
                                 *****************
                                 * O   R   C   A *
                                 *****************

                                            #,                                       
                                            ###                                      
                                            ####                                     
                                            #####                                    
                                            ######                                   
                                           ########,                                 
                                     ,,################,,,,,                         
                               ,,#################################,,                 
                          ,,##########################################,,             
                       ,#########################################, ''#####,          
                    ,#############################################,,   '####,        
                  ,##################################################,,,,####,       
                ,###########''''           ''''###############################       
              ,#####''   ,,,,##########,,,,          '''####'''          '####       
            ,##' ,,,,###########################,,,                        '##       
           ' ,,###''''                  '''############,,,                           
         ,,##''                                '''############,,,,        ,,,,,,###''
      ,#''                                            '''#######################'''  
     '                                                          ''''####''''         
             ,#######,   #######,   ,#######,      ##                                
            ,#'     '#,  ##    ##  ,#'     '#,    #''#        ######   ,####,        
            ##       ##  ##   ,#'  ##            #'  '#       #        #'  '#        
            ##       ##  #######   ##           ,######,      #####,   #    #        
            '#,     ,#'  ##    ##  '#,     ,#' ,#      #,         ##   #,  ,#        
             '#######'   ##     ##  '#######'  #'      '#     #####' # '####'        



                  #######################################################
                  #                        -***-                        #
                  #          Department of theory and spectroscopy      #
                  #    Directorship and core code : Frank Neese         #
                  #        Max Planck Institute fuer Kohlenforschung    #
                  #                Kaiser Wilhelm Platz 1               #
                  #                 D-45470 Muelheim/Ruhr               #
                  #                      Germany                        #
                  #                                                     #
                  #                  All rights reserved                #
                  #                        -***-                        #
                  #######################################################


                         Program Version 5.0.4 -  RELEASE  -


 With contributions from (in alphabetic order):
   Daniel Aravena         : Magnetic Suceptibility
   Michael Atanasov       : Ab Initio Ligand Field Theory (pilot matlab implementation)
   Alexander A. Auer      : GIAO ZORA, VPT2 properties, NMR spectrum
   Ute Becker             : Parallelization
   Giovanni Bistoni       : ED, misc. LED, open-shell LED, HFLD
   Martin Brehm           : Molecular dynamics
   Dmytro Bykov           : SCF Hessian
   Vijay G. Chilkuri      : MRCI spin determinant printing, contributions to CSF-ICE
   Dipayan Datta          : RHF DLPNO-CCSD density
   Achintya Kumar Dutta   : EOM-CC, STEOM-CC
   Dmitry Ganyushin       : Spin-Orbit,Spin-Spin,Magnetic field MRCI
   Miquel Garcia          : C-PCM and meta-GGA Hessian, CC/C-PCM, Gaussian charge scheme
   Yang Guo               : DLPNO-NEVPT2, F12-NEVPT2, CIM, IAO-localization
   Andreas Hansen         : Spin unrestricted coupled pair/coupled cluster methods
   Benjamin Helmich-Paris : MC-RPA, TRAH-SCF, COSX integrals
   Lee Huntington         : MR-EOM, pCC
   Robert Izsak           : Overlap fitted RIJCOSX, COSX-SCS-MP3, EOM
   Marcus Kettner         : VPT2
   Christian Kollmar      : KDIIS, OOCD, Brueckner-CCSD(T), CCSD density, CASPT2, CASPT2-K
   Simone Kossmann        : Meta GGA functionals, TD-DFT gradient, OOMP2, MP2 Hessian
   Martin Krupicka        : Initial AUTO-CI
   Lucas Lang             : DCDCAS
   Marvin Lechner         : AUTO-CI (C++ implementation), FIC-MRCC
   Dagmar Lenk            : GEPOL surface, SMD
   Dimitrios Liakos       : Extrapolation schemes; Compound Job, initial MDCI parallelization
   Dimitrios Manganas     : Further ROCIS development; embedding schemes
   Dimitrios Pantazis     : SARC Basis sets
   Anastasios Papadopoulos: AUTO-CI, single reference methods and gradients
   Taras Petrenko         : DFT Hessian,TD-DFT gradient, ASA, ECA, R-Raman, ABS, FL, XAS/XES, NRVS
   Peter Pinski           : DLPNO-MP2, DLPNO-MP2 Gradient
   Christoph Reimann      : Effective Core Potentials
   Marius Retegan         : Local ZFS, SOC
   Christoph Riplinger    : Optimizer, TS searches, QM/MM, DLPNO-CCSD(T), (RO)-DLPNO pert. Triples
   Tobias Risthaus        : Range-separated hybrids, TD-DFT gradient, RPA, STAB
   Michael Roemelt        : Original ROCIS implementation
   Masaaki Saitow         : Open-shell DLPNO-CCSD energy and density
   Barbara Sandhoefer     : DKH picture change effects
   Avijit Sen             : IP-ROCIS
   Kantharuban Sivalingam : CASSCF convergence, NEVPT2, FIC-MRCI
   Bernardo de Souza      : ESD, SOC TD-DFT
   Georgi Stoychev        : AutoAux, RI-MP2 NMR, DLPNO-MP2 response
   Willem Van den Heuvel  : Paramagnetic NMR
   Boris Wezisla          : Elementary symmetry handling
   Frank Wennmohs         : Technical directorship


 We gratefully acknowledge several colleagues who have allowed us to
 interface, adapt or use parts of their codes:
   Stefan Grimme, W. Hujo, H. Kruse, P. Pracht,  : VdW corrections, initial TS optimization,
                  C. Bannwarth, S. Ehlert          DFT functionals, gCP, sTDA/sTD-DF
   Ed Valeev, F. Pavosevic, A. Kumar             : LibInt (2-el integral package), F12 methods
   Garnet Chan, S. Sharma, J. Yang, R. Olivares  : DMRG
   Ulf Ekstrom                                   : XCFun DFT Library
   Mihaly Kallay                                 : mrcc  (arbitrary order and MRCC methods)
   Jiri Pittner, Ondrej Demel                    : Mk-CCSD
   Frank Weinhold                                : gennbo (NPA and NBO analysis)
   Christopher J. Cramer and Donald G. Truhlar   : smd solvation model
   Lars Goerigk                                  : TD-DFT with DH, B97 family of functionals
   V. Asgeirsson, H. Jonsson                     : NEB implementation
   FAccTs GmbH                                   : IRC, NEB, NEB-TS, DLPNO-Multilevel, CI-OPT
                                                   MM, QMMM, 2- and 3-layer-ONIOM, Crystal-QMMM,
                                                   LR-CPCM, SF, NACMEs, symmetry and pop. for TD-DFT,
                                                   nearIR, NL-DFT gradient (VV10), updates on ESD,
                                                   ML-optimized integration grids
   S Lehtola, MJT Oliveira, MAL Marques          : LibXC Library
   Liviu Ungur et al                             : ANISO software


 Your calculation uses the libint2 library for the computation of 2-el integrals
 For citations please refer to: http://libint.valeyev.net

 Your ORCA version has been built with support for libXC version: 5.1.0
 For citations please refer to: https://tddft.org/programs/libxc/

 This ORCA versions uses:
   CBLAS   interface :  Fast vector & matrix operations
   LAPACKE interface :  Fast linear algebra routines
   SCALAPACK package :  Parallel linear algebra routines
   Shared memory     :  Shared parallel matrices
   BLAS/LAPACK       :  OpenBLAS 0.3.15  USE64BITINT DYNAMIC_ARCH NO_AFFINITY SkylakeX SINGLE_THREADED
        Core in use  :  SkylakeX
   Copyright (c) 2011-2014, The OpenBLAS Project


Your calculation utilizes the geometrical counterpoise correction gCP
Please cite in your paper:
H.Kruse, S. Grimme J.Chem.Phys., 136, (2012), 154101 
   

Your calculation utilizes the atom-pairwise dispersion correction
with the Becke-Johnson damping scheme (D3BJ)
Cite in your paper:
S.Grimme, S.Ehrlich, L.Goerigk, J Comput Chem, (2011), 32, 1456–1465 
S.Grimme, J.Antony, S.Ehrlich and H.Krieg, J.Chem.Phys., 132, (2010), 154104 
   

Your calculation employs the composite approach PBEh-3c.
Please cite in your paper:
S. Grimme, J. G. Brandenburg, C. Bannwarth, A. Hansen J.Chem.Phys., 143, (2015), 054107 
   

================================================================================

cite the ECPs for Ir [Def2-ECP] as follows:
Ce-Yb(ecp-28): M. Dolg, H. Stoll, H.Preuss, J. Chem. Phys., 1989, 90, 1730-1734.
Y-Cd(ecp-28), Hf-Hg(ecp-46): D. Andrae,U. Haeussermann, M. Dolg, H. Stoll, H. Preuss, Theor. Chim. Acta, 1990, 77, 123-141.
In-Sb(ecp-28), Tl-Bi(ecp-46): B. Metz, H. Stoll, M. Dolg, J. Chem. Phys., 2000, 113, 2563-2569.
Te-Xe(ecp-28), Po-Rn(ecp-46): K. A. Peterson, D. Figgen, E. Goll, H. Stoll, M. Dolg, J. Chem. Phys., 2003, 119, 11113-11123.
Rb(ecp-28), Cs(ecp-46): T. Leininger, A. Nicklass, W. Kuechle, H. Stoll, M. Dolg, A. Bergner, Chem. Phys. Lett., 1996, 255, 274-280.
Sr(ecp-28), Ba(ecp-46): M. Kaupp, P. V. Schleyer, H. Stoll and H. Preuss, J. Chem. Phys., 1991, 94, 1360-1366.
La(ecp-46): M. Dolg, H. Stoll, A. Savin, H. Preuss, Theor. Chim. Acta, 1989, 75, 173-194.
Lu(ecp-28): X. Cao, M. Dolg, J. Chem. Phys., 2001, 115, 7348-7355.

ECP parameters for Ir [Def2-ECP] have been obtained from:
TURBOMOLE (7.0.2)

----- Orbital basis set information -----
Your calculation utilizes the basis: def2-mSVP

----- AuxJ basis set information -----
Your calculation utilizes the auxiliary basis: def2/J
   F. Weigend, Phys. Chem. Chem. Phys. 8, 1057 (2006).

================================================================================
                                        WARNINGS
                       Please study these warnings very carefully!
================================================================================


WARNING: Geometry Optimization
  ===> : Switching off AutoStart
         For restart on a previous wavefunction, please use MOREAD

WARNING: No Hueckel Guess possible with ECP basis!
  ===> : Switching to HCORE guess!

INFO   : the flag for use of the SHARK integral package has been found!

================================================================================
                                       INPUT FILE
================================================================================
NAME = reaction4-IEIP_ts_guess_scan_5-4_orca.inp
|  1> ! Opt PBEh-3c pal8
|  2> %geom Constraints
|  3> { B 0 20 2.3857142857 C }
|  4> { B 24 30 1.442857142 C }
|  5>     end
|  6>  trust -0.1
|  7> end
|  8> %output 
|  9> xyzfile=True 
| 10> end 
| 11> %scf 
| 12> maxiter 250 
| 13> end
| 14> %output
| 15> Print[P_Hirshfeld] = 1
| 16> end
| 17> % maxcore
| 18> 4000
| 19> *xyz 1 1
| 20> Ir   0.59851283  -0.71595280   0.44521686 
| 21> C    0.04864922  -2.80206733   0.34444207 
| 22> C    0.11464086  -2.34839713   1.71122893 
| 23> C    2.20921656  -2.12362819   0.77781372 
| 24> C    1.31931809  -2.64093042  -0.23721764 
| 25> C    1.47612542  -1.98021311   1.96994308 
| 26> N   -1.04646699   0.16661748  -0.52324360 
| 27> C   -2.31514699   0.48689848   0.14906226 
| 28> C   -3.12194308   1.56461763  -0.55715207 
| 29> H   -3.94940224   1.86244366   0.08540846 
| 30> H   -3.56495660   1.22092424  -1.49328275 
| 31> H   -2.52777662   2.45735787  -0.75461480 
| 32> C   -3.12608233  -0.78882787   0.34182542 
| 33> H   -2.02036810   0.86357271   1.12980475 
| 34> H   -4.03713692  -0.56217799   0.89354330 
| 35> H   -3.41589360  -1.22286118  -0.61600052 
| 36> H   -2.58041833  -1.53877746   0.91268862 
| 37> C   -0.85382120   0.37779259  -1.76766693 
| 38> C    0.49470154   0.15652162  -2.23989882 
| 39> H   -1.63771631   0.73902320  -2.42698751 
| 40> C    1.59103752   0.45503683  -1.43670695 
| 41> C    2.79892813   0.04937664  -2.07576871 
| 42> S    0.92981197  -0.56633179  -3.72000793 
| 43> C    2.59412669  -0.50931397  -3.29782724 
| 44> H    1.52851039   1.35150840  -0.66852939 
| 45> H    3.78239307   0.21767882  -1.66158195 
| 46> H    3.33400288  -0.87198152  -3.99528249 
| 47> H   -0.83444206  -3.16911143  -0.15860974 
| 48> H   -0.68195604  -2.38023081   2.43980338 
| 49> H    1.85199144  -1.58000033   2.90064859 
| 50> O    1.31991000   2.46355714   0.24967472 
| 51> O    0.53414093   0.91974698   1.65433568 
| 52> C    0.91163913   2.11783817   1.35601664 
| 53> C    0.85304586   3.09359892   2.49800775 
| 54> H    0.81365563   4.11496420   2.12940868 
| 55> H    1.75738126   2.99053422   3.10095469 
| 56> H    0.00567257   2.89975734   3.15234971 
| 57> H    3.25669900  -1.89697921   0.64626708 
| 58> H    1.58878644  -2.87239460  -1.25732535 
| 59> *
| 60> 
| 61>                          ****END OF INPUT****
================================================================================

                       *****************************
                       * Geometry Optimization Run *
                       *****************************

Geometry optimization settings:
Update method            Update   .... BFGS
Choice of coordinates    CoordSys .... Z-matrix Internals
Initial Hessian          InHess   .... Almoef's Model

Convergence Tolerances:
Energy Change            TolE     ....  5.0000e-06 Eh
Max. Gradient            TolMAXG  ....  3.0000e-04 Eh/bohr
RMS Gradient             TolRMSG  ....  1.0000e-04 Eh/bohr
Max. Displacement        TolMAXD  ....  4.0000e-03 bohr
RMS Displacement         TolRMSD  ....  2.0000e-03 bohr
Strict Convergence                ....  False
------------------------------------------------------------------------------
                        ORCA OPTIMIZATION COORDINATE SETUP
------------------------------------------------------------------------------

The optimization will be done in new redundant internal coordinates
Making redundant internal coordinates   ...  (new redundants) done
Evaluating the initial hessian          ...  (Almloef) done
Evaluating the coordinates              ...  done
Calculating the B-matrix                .... done
Calculating the G-matrix                .... done
Diagonalizing the G-matrix              .... done
Imposing constraints:
 Iter   0:  RMS(Cart)=    0.0241086770 RMS(Int)=    0.0024951939
 Iter   1:  RMS(Cart)=    0.0010100673 RMS(Int)=    0.0001169043
 Iter   2:  RMS(Cart)=    0.0000462169 RMS(Int)=    0.0000052875
 Iter   3:  RMS(Cart)=    0.0000020320 RMS(Int)=    0.0000002300
 Iter   4:  RMS(Cart)=    0.0000000861 RMS(Int)=    0.0000000097
CONVERGED
Small eigenvalue found = 1.252e-02
Small eigenvalue found = 1.599e-02
Small eigenvalue found = 2.258e-02
Small eigenvalue found = 2.321e-02
Small eigenvalue found = 2.880e-02
The first mode is                       ....  227
The number of degrees of freedom        ....  111
Storing new coordinates                 .... done

    -----------------------------------------------------------------
                    Redundant Internal Coordinates


    -----------------------------------------------------------------
         Definition                    Initial Value    Approx d2E/dq
    -----------------------------------------------------------------
      1. B(C   1,Ir  0)                  2.1597         0.086031   
      2. B(C   2,C   1)                  1.4417         0.516865   
      3. B(C   2,Ir  0)                  2.1218         0.098910   
      4. B(C   3,Ir  0)                  2.1649         0.084427   
      5. B(C   4,Ir  0)                  2.1658         0.084121   
      6. B(C   4,C   3)                  1.4456         0.509336   
      7. B(C   4,C   1)                  1.4068         0.587550   
      8. B(C   5,Ir  0)                  2.1665         0.083940   
      9. B(C   5,C   2)                  1.4339         0.531696   
     10. B(C   5,C   3)                  1.4069         0.587343   
     11. B(N   6,Ir  0)                  2.1026         0.094887   
     12. B(C   7,N   6)                  1.4711         0.415424   
     13. B(C   8,C   7)                  1.5202         0.387209   
     14. B(H   9,C   8)                  1.0892         0.361211   
     15. B(H  10,C   8)                  1.0912         0.358510   
     16. B(H  11,C   8)                  1.0904         0.359548   
     17. B(C  12,C   7)                  1.5239         0.382050   
     18. B(H  13,C   7)                  1.0912         0.358566   
     19. B(H  14,C  12)                  1.0889         0.361509   
     20. B(H  15,C  12)                  1.0908         0.359067   
     21. B(H  16,C  12)                  1.0891         0.361342   
     22. B(C  17,N   6)                  1.2752         0.848066   
     23. B(C  18,C  17)                  1.4449         0.508904   
     24. B(H  19,C  17)                  1.0862         0.365253   
     25. B(C  20,C  18)                  1.3914         0.621438   
     26. B(C  20,Ir  0)                  2.3857         0.032042 C 
     27. B(C  21,C  20)                  1.4256         0.548468   
     28. B(S  22,C  18)                  1.7036         0.532149   
     29. B(C  23,C  21)                  1.3595         0.699569   
     30. B(C  23,S  22)                  1.7182         0.504948   
     31. B(H  24,C  20)                  1.1822         0.256611   
     32. B(H  25,C  21)                  1.0804         0.373143   
     33. B(H  26,C  23)                  1.0796         0.374218   
     34. B(H  27,C   1)                  1.0806         0.372793   
     35. B(H  28,C   2)                  1.0800         0.373574   
     36. B(H  29,C   5)                  1.0806         0.372776   
     37. B(O  30,H  24)                  1.4429         0.083716 C 
     38. B(O  31,Ir  0)                  2.0352         0.121790   
     39. B(C  32,O  30)                  1.2289         1.011341   
     40. B(C  32,O  31)                  1.2912         0.804776   
     41. B(C  33,C  32)                  1.5032         0.412188   
     42. B(H  34,C  33)                  1.0866         0.364685   
     43. B(H  35,C  33)                  1.0918         0.357749   
     44. B(H  36,C  33)                  1.0880         0.362734   
     45. B(H  37,C   3)                  1.0798         0.373897   
     46. B(H  38,C   4)                  1.0802         0.373315   
     47. A(C   2,Ir  0,O  31)          104.8691         0.264860   
     48. A(C   1,Ir  0,O  31)          142.7493         0.259394   
     49. A(C   5,Ir  0,N   6)          152.3584         0.249140   
     50. A(C   1,Ir  0,C   3)           64.4390         0.246963   
     51. A(C   1,Ir  0,C   5)           64.6785         0.246757   
     52. A(C   3,Ir  0,O  31)          117.0558         0.258670   
     53. A(C   3,Ir  0,N   6)          157.7603         0.249350   
     54. A(C   2,Ir  0,C   5)           39.0536         0.251817   
     55. A(C   3,Ir  0,C   4)           39.0004         0.246162   
     56. A(C   2,Ir  0,C   4)           65.1720         0.251897   
     57. A(C   5,Ir  0,O  31)           93.6498         0.258448   
     58. A(C   4,Ir  0,N   6)          119.2236         0.249218   
     59. A(C   1,Ir  0,C   2)           39.3415         0.252726   
     60. A(C   4,Ir  0,C   5)           64.4229         0.245957   
     61. A(C   4,Ir  0,O  31)          155.7951         0.258531   
     62. A(C   1,Ir  0,N   6)          100.6448         0.250034   
     63. A(C   2,Ir  0,C   3)           65.0218         0.252030   
     64. A(C   2,Ir  0,N   6)          114.7884         0.255200   
     65. A(C   1,Ir  0,C   4)           37.9581         0.246833   
     66. A(N   6,Ir  0,O  31)           84.9272         0.261969   
     67. A(C   3,Ir  0,C   5)           37.9081         0.246086   
     68. A(Ir  0,C   1,H  27)          123.9096         0.269348   
     69. A(C   2,C   1,C   4)          108.3383         0.416140   
     70. A(Ir  0,C   1,C   4)           71.2568         0.320137   
     71. A(C   4,C   1,H  27)          125.7761         0.351769   
     72. A(Ir  0,C   1,C   2)           68.9091         0.313528   
     73. A(C   2,C   1,H  27)          125.8505         0.344255   
     74. A(C   5,C   2,H  28)          125.8866         0.346017   
     75. A(Ir  0,C   2,C   5)           72.1563         0.322219   
     76. A(C   1,C   2,C   5)          107.1766         0.408827   
     77. A(Ir  0,C   2,C   1)           71.7494         0.320730   
     78. A(Ir  0,C   2,H  28)          126.4003         0.275221   
     79. A(C   1,C   2,H  28)          126.6233         0.344377   
     80. A(Ir  0,C   3,H  37)          124.5127         0.268701   
     81. A(C   4,C   3,C   5)          108.1011         0.415030   
     82. A(C   4,C   3,H  37)          125.9263         0.343580   
     83. A(Ir  0,C   3,C   4)           70.5357         0.311832   
     84. A(Ir  0,C   3,C   5)           71.1067         0.319136   
     85. A(C   5,C   3,H  37)          125.9697         0.351924   
     86. A(Ir  0,C   4,C   1)           70.7851         0.318966   
     87. A(Ir  0,C   4,H  38)          124.8227         0.268491   
     88. A(C   1,C   4,H  38)          126.2484         0.351853   
     89. A(C   3,C   4,H  38)          125.8876         0.343490   
     90. A(Ir  0,C   4,C   3)           70.4639         0.311649   
     91. A(C   1,C   4,C   3)          107.8604         0.415056   
     92. A(Ir  0,C   5,H  29)          122.0712         0.268345   
     93. A(C   3,C   5,H  29)          125.8989         0.351746   
     94. A(C   2,C   5,H  29)          125.5037         0.345893   
     95. A(Ir  0,C   5,C   3)           70.9851         0.318835   
     96. A(C   2,C   5,C   3)          108.4039         0.418215   
     97. A(Ir  0,C   5,C   2)           68.7901         0.313715   
     98. A(Ir  0,N   6,C  17)          113.1297         0.341854   
     99. A(C   7,N   6,C  17)          122.8801         0.421779   
    100. A(Ir  0,N   6,C   7)          123.9765         0.304139   
    101. A(N   6,C   7,C   8)          113.5607         0.369983   
    102. A(N   6,C   7,C  12)          109.5408         0.369131   
    103. A(C   8,C   7,C  12)          111.7041         0.366994   
    104. A(N   6,C   7,H  13)          104.6515         0.327828   
    105. A(C   8,C   7,H  13)          108.4324         0.326007   
    106. A(C  12,C   7,H  13)          108.6056         0.325288   
    107. A(C   7,C   8,H  11)          112.0453         0.326153   
    108. A(H   9,C   8,H  11)          107.2737         0.290910   
    109. A(H  10,C   8,H  11)          108.8888         0.290567   
    110. A(C   7,C   8,H   9)          108.8428         0.326401   
    111. A(C   7,C   8,H  10)          112.9981         0.325998   
    112. A(H   9,C   8,H  10)          106.4876         0.290778   
    113. A(C   7,C  12,H  14)          109.5767         0.325726   
    114. A(C   7,C  12,H  15)          111.3103         0.325363   
    115. A(H  14,C  12,H  15)          107.7841         0.290887   
    116. A(C   7,C  12,H  16)          112.0956         0.325701   
    117. A(H  14,C  12,H  16)          107.2740         0.291175   
    118. A(H  15,C  12,H  16)          108.6268         0.290865   
    119. A(N   6,C  17,C  18)          115.1805         0.440313   
    120. A(N   6,C  17,H  19)          122.7870         0.370873   
    121. A(C  18,C  17,H  19)          121.9878         0.342187   
    122. A(C  17,C  18,C  20)          120.7022         0.419157   
    123. A(C  17,C  18,S  22)          126.0724         0.430145   
    124. A(C  20,C  18,S  22)          113.0881         0.445925   
    125. A(C  18,C  20,C  21)          110.3194         0.424799   
    126. A(C  18,C  20,H  24)          119.7513         0.333555   
    127. A(C  21,C  20,H  24)          123.5155         0.326738   
    128. A(C  20,C  21,H  25)          123.7236         0.347762   
    129. A(C  23,C  21,H  25)          123.0849         0.362414   
    130. A(C  20,C  21,C  23)          113.1035         0.433922   
    131. A(C  18,S  22,C  23)           91.1049         0.453450   
    132. A(C  21,C  23,H  26)          127.9959         0.362592   
    133. A(S  22,C  23,H  26)          119.6028         0.360972   
    134. A(C  21,C  23,S  22)          112.3785         0.451293   
    135. A(Ir  0,O  31,C  32)          126.8672         0.353396   
    136. A(O  30,C  32,O  31)          124.5027         0.491220   
    137. A(O  30,C  32,C  33)          120.9415         0.437564   
    138. A(O  31,C  32,C  33)          114.5368         0.419998   
    139. A(C  32,C  33,H  34)          110.7227         0.330306   
    140. A(C  32,C  33,H  35)          109.0248         0.329260   
    141. A(H  34,C  33,H  35)          107.8261         0.291118   
    142. A(C  32,C  33,H  36)          111.8151         0.330014   
    143. A(H  34,C  33,H  36)          110.0752         0.291752   
    144. A(H  35,C  33,H  36)          107.2267         0.290873   
    145. D(C   2,C   1,Ir  0,C   4)    119.1418         0.001704   
    146. D(C   2,C   1,Ir  0,C   5)     38.9280         0.001704   
    147. D(H  27,C   1,Ir  0,O  31)     99.1258         0.001704   
    148. D(C   4,C   1,Ir  0,C   2)   -119.1418         0.001704   
    149. D(C   2,C   1,Ir  0,O  31)    -20.6828         0.001704   
    150. D(H  27,C   1,Ir  0,C   3)   -159.1019         0.001704   
    151. D(C   4,C   1,Ir  0,O  31)   -139.8246         0.001704   
    152. D(H  27,C   1,Ir  0,C   2)    119.8085         0.001704   
    153. D(C   4,C   1,Ir  0,C   3)    -38.0523         0.001704   
    154. D(H  27,C   1,Ir  0,N   6)      3.4713         0.001704   
    155. D(C   2,C   1,Ir  0,C   3)     81.0895         0.001704   
    156. D(C   4,C   1,Ir  0,N   6)    124.5210         0.001704   
    157. D(H  27,C   1,Ir  0,C   4)   -121.0497         0.001704   
    158. D(H  27,C   1,Ir  0,C   5)    158.7365         0.001704   
    159. D(C   4,C   1,Ir  0,C   5)    -80.2139         0.001704   
    160. D(C   2,C   1,Ir  0,N   6)   -116.3372         0.001704   
    161. D(Ir  0,C   2,C   1,H  27)   -117.3236         0.021193   
    162. D(C   1,C   2,Ir  0,C   5)   -115.6471         0.001768   
    163. D(C   1,C   2,Ir  0,C   4)    -36.2946         0.001768   
    164. D(H  28,C   2,C   1,H  27)      4.9154         0.021193   
    165. D(H  28,C   2,C   1,Ir  0)    122.2390         0.021193   
    166. D(C   5,C   2,C   1,H  27)    178.7576         0.021193   
    167. D(C   1,C   2,Ir  0,C   3)    -79.4826         0.001768   
    168. D(H  28,C   2,Ir  0,C   4)   -158.7941         0.001768   
    169. D(H  28,C   2,Ir  0,C   5)    121.8534         0.001768   
    170. D(C   5,C   2,Ir  0,C   3)     36.1646         0.001768   
    171. D(C   5,C   2,Ir  0,C   1)    115.6471         0.001768   
    172. D(H  28,C   2,C   1,C   4)   -177.1452         0.021193   
    173. D(C   5,C   2,Ir  0,C   4)     79.3525         0.001768   
    174. D(C   5,C   2,C   1,Ir  0)    -63.9188         0.021193   
    175. D(H  28,C   2,Ir  0,N   6)    -46.5305         0.001768   
    176. D(H  28,C   2,Ir  0,O  31)     44.7212         0.001768   
    177. D(Ir  0,C   2,C   1,C   4)     60.6158         0.021193   
    178. D(C   5,C   2,C   1,C   4)     -3.3029         0.021193   
    179. D(C   1,C   2,Ir  0,N   6)     75.9690         0.001768   
    180. D(C   5,C   2,Ir  0,O  31)    -77.1322         0.001768   
    181. D(H  28,C   2,Ir  0,C   1)   -122.4995         0.001768   
    182. D(C   1,C   2,Ir  0,O  31)    167.2207         0.001768   
    183. D(H  28,C   2,Ir  0,C   3)    158.0180         0.001768   
    184. D(C   5,C   2,Ir  0,N   6)   -168.3838         0.001768   
    185. D(C   4,C   3,Ir  0,C   5)    117.9855         0.001696   
    186. D(C   4,C   3,Ir  0,C   1)     37.0443         0.001696   
    187. D(C   4,C   3,Ir  0,O  31)    175.3321         0.001696   
    188. D(C   4,C   3,Ir  0,C   2)     80.7467         0.001696   
    189. D(C   5,C   3,Ir  0,O  31)     57.3466         0.001696   
    190. D(C   5,C   3,Ir  0,C   2)    -37.2388         0.001696   
    191. D(C   4,C   3,Ir  0,N   6)    -14.0032         0.001696   
    192. D(H  37,C   3,Ir  0,C   4)    120.8116         0.001696   
    193. D(H  37,C   3,Ir  0,C   1)    157.8559         0.001696   
    194. D(C   5,C   3,Ir  0,C   1)    -80.9412         0.001696   
    195. D(C   5,C   3,Ir  0,C   4)   -117.9855         0.001696   
    196. D(C   5,C   3,Ir  0,N   6)   -131.9886         0.001696   
    197. D(H  37,C   3,Ir  0,C   5)   -121.2030         0.001696   
    198. D(H  37,C   3,Ir  0,N   6)    106.8084         0.001696   
    199. D(H  37,C   3,Ir  0,O  31)    -63.8564         0.001696   
    200. D(H  37,C   3,Ir  0,C   2)   -158.4417         0.001696   
    201. D(C   1,C   4,Ir  0,C   3)    117.9241         0.001695   
    202. D(H  38,C   4,C   3,H  37)      0.3375         0.020562   
    203. D(C   1,C   4,Ir  0,C   5)     80.9469         0.001695   
    204. D(C   1,C   4,Ir  0,N   6)    -68.0997         0.001695   
    205. D(C   1,C   4,Ir  0,O  31)    107.7426         0.001695   
    206. D(C   1,C   4,Ir  0,C   2)     37.5956         0.001695   
    207. D(C   3,C   4,Ir  0,C   1)   -117.9241         0.001695   
    208. D(H  38,C   4,C   3,C   5)   -179.0622         0.020562   
    209. D(C   3,C   4,Ir  0,C   5)    -36.9772         0.001695   
    210. D(C   3,C   4,Ir  0,N   6)    173.9763         0.001695   
    211. D(C   3,C   4,Ir  0,O  31)    -10.1815         0.001695   
    212. D(Ir  0,C   4,C   1,C   2)    -59.1493         0.027711   
    213. D(H  38,C   4,Ir  0,C   2)    158.9497         0.001695   
    214. D(H  38,C   4,Ir  0,C   3)   -120.7218         0.001695   
    215. D(H  38,C   4,C   1,C   2)   -178.7740         0.027711   
    216. D(H  38,C   4,Ir  0,N   6)     53.2544         0.001695   
    217. D(H  38,C   4,Ir  0,O  31)   -130.9033         0.001695   
    218. D(Ir  0,C   4,C   1,H  27)    118.7921         0.027711   
    219. D(C   3,C   4,C   1,Ir  0)     61.0291         0.027711   
    220. D(C   3,C   4,C   1,H  27)    179.8212         0.027711   
    221. D(H  38,C   4,C   1,Ir  0)   -119.6247         0.027711   
    222. D(H  38,C   4,Ir  0,C   5)   -157.6990         0.001695   
    223. D(H  38,C   4,C   1,H  27)     -0.8326         0.027711   
    224. D(Ir  0,C   4,C   3,C   5)     61.5209         0.020562   
    225. D(Ir  0,C   4,C   3,H  37)   -119.0794         0.020562   
    226. D(C   3,C   4,C   1,C   2)      1.8798         0.027711   
    227. D(C   1,C   4,C   3,C   5)      0.2870         0.020562   
    228. D(C   1,C   4,C   3,H  37)    179.6867         0.020562   
    229. D(H  38,C   4,C   3,Ir  0)    119.4169         0.020562   
    230. D(H  38,C   4,Ir  0,C   1)    121.3541         0.001695   
    231. D(C   1,C   4,C   3,Ir  0)    -61.2339         0.020562   
    232. D(C   3,C   4,Ir  0,C   2)    -80.3285         0.001695   
    233. D(C   2,C   5,Ir  0,C   1)    -39.2146         0.001694   
    234. D(H  29,C   5,C   3,C   4)   -177.5079         0.027690   
    235. D(C   2,C   5,Ir  0,C   4)    -81.4351         0.001694   
    236. D(C   2,C   5,Ir  0,N   6)     23.2049         0.001694   
    237. D(C   2,C   5,Ir  0,O  31)    109.2382         0.001694   
    238. D(C   3,C   5,Ir  0,C   1)     80.2533         0.001694   
    239. D(C   3,C   5,Ir  0,C   2)    119.4679         0.001694   
    240. D(C   3,C   5,Ir  0,C   4)     38.0328         0.001694   
    241. D(H  29,C   5,C   2,C   1)    178.6599         0.022471   
    242. D(C   3,C   5,Ir  0,O  31)   -131.2939         0.001694   
    243. D(H  29,C   5,Ir  0,C   1)   -158.6853         0.001694   
    244. D(C   3,C   5,C   2,Ir  0)    -60.1686         0.022471   
    245. D(H  29,C   5,Ir  0,C   3)    121.0614         0.001694   
    246. D(H  29,C   5,Ir  0,C   4)    159.0942         0.001694   
    247. D(H  29,C   5,Ir  0,N   6)    -96.2658         0.001694   
    248. D(H  29,C   5,Ir  0,O  31)    -10.2325         0.001694   
    249. D(Ir  0,C   5,C   2,C   1)     63.6495         0.022471   
    250. D(H  29,C   5,Ir  0,C   2)   -119.4707         0.001694   
    251. D(Ir  0,C   5,C   2,H  28)   -122.4503         0.022471   
    252. D(C   3,C   5,C   2,C   1)      3.4809         0.022471   
    253. D(C   3,C   5,C   2,H  28)    177.3812         0.022471   
    254. D(C   3,C   5,Ir  0,N   6)    142.6728         0.001694   
    255. D(H  29,C   5,C   2,Ir  0)    115.0104         0.022471   
    256. D(H  29,C   5,C   2,H  28)     -7.4398         0.022471   
    257. D(Ir  0,C   5,C   3,C   4)    -61.1575         0.027690   
    258. D(Ir  0,C   5,C   3,H  37)    119.4431         0.027690   
    259. D(C   2,C   5,C   3,Ir  0)     58.8046         0.027690   
    260. D(C   2,C   5,C   3,C   4)     -2.3529         0.027690   
    261. D(C   2,C   5,C   3,H  37)    178.2477         0.027690   
    262. D(C   2,C   5,Ir  0,C   3)   -119.4679         0.001694   
    263. D(H  29,C   5,C   3,Ir  0)   -116.3504         0.027690   
    264. D(H  29,C   5,C   3,H  37)      3.0928         0.027690   
    265. D(C  17,N   6,Ir  0,C   1)    -95.0271         0.001767   
    266. D(C   7,N   6,Ir  0,C   2)     44.9152         0.001767   
    267. D(C   7,N   6,Ir  0,C   3)    129.2040         0.001767   
    268. D(C   7,N   6,Ir  0,C   4)    119.1550         0.001767   
    269. D(C   7,N   6,Ir  0,C   5)     29.0458         0.001767   
    270. D(C   7,N   6,Ir  0,C   1)     83.6559         0.001767   
    271. D(C   7,N   6,Ir  0,O  31)    -59.1349         0.001767   
    272. D(C  17,N   6,Ir  0,C   2)   -133.7677         0.001767   
    273. D(C  17,N   6,Ir  0,C   3)    -49.4790         0.001767   
    274. D(C  17,N   6,Ir  0,C   4)    -59.5280         0.001767   
    275. D(C  17,N   6,Ir  0,C   5)   -149.6372         0.001767   
    276. D(C  17,N   6,Ir  0,O  31)    122.1822         0.001767   
    277. D(C   8,C   7,N   6,Ir  0)    157.5492         0.014718   
    278. D(C   8,C   7,N   6,C  17)    -23.8930         0.014718   
    279. D(C  12,C   7,N   6,Ir  0)    -76.7979         0.014718   
    280. D(C  12,C   7,N   6,C  17)    101.7599         0.014718   
    281. D(H  13,C   7,N   6,Ir  0)     39.4798         0.014718   
    282. D(H  13,C   7,N   6,C  17)   -141.9625         0.014718   
    283. D(H   9,C   8,C   7,N   6)   -170.3504         0.011927   
    284. D(H   9,C   8,C   7,C  12)     65.1563         0.011927   
    285. D(H   9,C   8,C   7,H  13)    -54.4887         0.011927   
    286. D(H  10,C   8,C   7,N   6)     71.5754         0.011927   
    287. D(H  10,C   8,C   7,C  12)    -52.9179         0.011927   
    288. D(H  10,C   8,C   7,H  13)   -172.5629         0.011927   
    289. D(H  11,C   8,C   7,N   6)    -51.8808         0.011927   
    290. D(H  11,C   8,C   7,C  12)   -176.3742         0.011927   
    291. D(H  11,C   8,C   7,H  13)     63.9809         0.011927   
    292. D(H  14,C  12,C   7,N   6)    176.5493         0.011627   
    293. D(H  14,C  12,C   7,C   8)    -56.7394         0.011627   
    294. D(H  14,C  12,C   7,H  13)     62.8034         0.011627   
    295. D(H  15,C  12,C   7,N   6)    -64.3276         0.011627   
    296. D(H  15,C  12,C   7,C   8)     62.3837         0.011627   
    297. D(H  15,C  12,C   7,H  13)   -178.0735         0.011627   
    298. D(H  16,C  12,C   7,N   6)     57.5688         0.011627   
    299. D(H  16,C  12,C   7,C   8)   -175.7199         0.011627   
    300. D(H  16,C  12,C   7,H  13)    -56.1771         0.011627   
    301. D(C  18,C  17,N   6,Ir  0)     -8.2674         0.062233   
    302. D(C  18,C  17,N   6,C   7)    173.0331         0.062233   
    303. D(H  19,C  17,N   6,Ir  0)    174.1227         0.062233   
    304. D(H  19,C  17,N   6,C   7)     -4.5768         0.062233   
    305. D(C  20,C  18,C  17,N   6)    -35.1787         0.017648   
    306. D(C  20,C  18,C  17,H  19)    142.4523         0.017648   
    307. D(S  22,C  18,C  17,N   6)    140.2584         0.017648   
    308. D(S  22,C  18,C  17,H  19)    -42.1106         0.017648   
    309. D(C  21,C  20,C  18,C  17)    175.1784         0.029048   
    310. D(C  21,C  20,C  18,S  22)     -0.8133         0.029048   
    311. D(H  24,C  20,C  18,C  17)    -31.9670         0.029048   
    312. D(H  24,C  20,C  18,S  22)    152.0412         0.029048   
    313. D(C  23,C  21,C  20,C  18)      0.5507         0.022327   
    314. D(C  23,C  21,C  20,H  24)   -151.0831         0.022327   
    315. D(H  25,C  21,C  20,C  18)    177.2294         0.022327   
    316. D(H  25,C  21,C  20,H  24)     25.5955         0.022327   
    317. D(C  23,S  22,C  18,C  17)   -175.0611         0.005724   
    318. D(C  23,S  22,C  18,C  20)      0.6745         0.005724   
    319. D(S  22,C  23,C  21,C  20)     -0.0558         0.034465   
    320. D(S  22,C  23,C  21,H  25)   -176.7588         0.034465   
    321. D(H  26,C  23,C  21,C  20)    178.1763         0.034465   
    322. D(H  26,C  23,C  21,H  25)      1.4733         0.034465   
    323. D(C  21,C  23,S  22,C  18)     -0.3475         0.005283   
    324. D(H  26,C  23,S  22,C  18)   -178.7453         0.005283   
    325. D(C  32,O  31,Ir  0,C   1)   -175.3535         0.001915   
    326. D(C  32,O  31,Ir  0,C   2)    171.2516         0.001915   
    327. D(C  32,O  31,Ir  0,C   3)    102.0441         0.001915   
    328. D(C  32,O  31,Ir  0,C   4)    109.2199         0.001915   
    329. D(C  32,O  31,Ir  0,C   5)    133.2653         0.001915   
    330. D(C  32,O  31,Ir  0,N   6)    -74.4222         0.001915   
    331. D(O  30,C  32,O  31,Ir  0)      3.4718         0.049988   
    332. D(C  33,C  32,O  31,Ir  0)   -174.9502         0.049988   
    333. D(H  34,C  33,C  32,O  30)     22.7399         0.012578   
    334. D(H  34,C  33,C  32,O  31)   -158.7763         0.012578   
    335. D(H  35,C  33,C  32,O  30)    -95.7279         0.012578   
    336. D(H  35,C  33,C  32,O  31)     82.7559         0.012578   
    337. D(H  36,C  33,C  32,O  30)    145.8834         0.012578   
    338. D(H  36,C  33,C  32,O  31)    -35.6327         0.012578   
    -----------------------------------------------------------------

Number of atoms                         .... 39
Number of degrees of freedom            .... 338

         *************************************************************
         *                GEOMETRY OPTIMIZATION CYCLE   1            *
         *************************************************************
---------------------------------
CARTESIAN COORDINATES (ANGSTROEM)
---------------------------------
  Ir     0.598930   -0.711495    0.430439
  C      0.052144   -2.798445    0.330291
  C      0.126065   -2.346547    1.697290
  C      2.214277   -2.116745    0.750795
  C      1.318822   -2.634230   -0.259274
  C      1.488547   -1.976288    1.947811
  N     -1.053466    0.169274   -0.526057
  C     -2.320460    0.488855    0.149764
  C     -3.129904    1.565984   -0.554328
  H     -3.955746    1.863379    0.090514
  H     -3.575328    1.221895   -1.489172
  H     -2.536844    2.459067   -0.753570
  C     -3.130064   -0.787349    0.344964
  H     -2.023166    0.865838    1.129632
  H     -4.039713   -0.561193    0.899206
  H     -3.422291   -1.221685   -0.611994
  H     -2.582335   -1.536887    0.914394
  C     -0.859882    0.378467   -1.768997
  C      0.491401    0.151296   -2.227504
  H     -1.639630    0.740145   -2.433003
  C      1.578064    0.447636   -1.410578
  C      2.792580    0.036864   -2.033927
  S      0.941863   -0.576091   -3.700725
  C      2.601147   -0.523443   -3.257679
  H      1.508614    1.345492   -0.644738
  H      3.771439    0.202623   -1.607771
  H      3.348592   -0.889849   -3.945162
  H     -0.833510   -3.166369   -0.167621
  H     -0.665816   -2.380809    2.430914
  H      1.869645   -1.576690    2.876668
  O      1.313213    2.471302    0.236288
  O      0.539357    0.922455    1.642352
  C      0.912542    2.122024    1.344276
  C      0.859001    3.095025    2.488885
  H      0.815175    4.117159    2.122890
  H      1.767301    2.992465    3.085972
  H      0.016102    2.897893    3.148048
  H      3.260514   -1.888039    0.612870
  H      1.582193   -2.863795   -1.281423

----------------------------
CARTESIAN COORDINATES (A.U.)
----------------------------
  NO LB      ZA    FRAG     MASS         X           Y           Z
   0 Ir   17.0000*   0   192.220    1.131813   -1.344531    0.813411
   1 C     6.0000    0    12.011    0.098537   -5.288295    0.624159
   2 C     6.0000    0    12.011    0.238229   -4.434331    3.207413
   3 C     6.0000    0    12.011    4.184377   -4.000067    1.418797
   4 C     6.0000    0    12.011    2.492213   -4.977973   -0.489956
   5 C     6.0000    0    12.011    2.812945   -3.734643    3.680830
   6 N     7.0000    0    14.007   -1.990762    0.319882   -0.994104
   7 C     6.0000    0    12.011   -4.385034    0.923802    0.283012
   8 C     6.0000    0    12.011   -5.914661    2.959280   -1.047527
   9 H     1.0000    0     1.008   -7.475277    3.521276    0.171047
  10 H     1.0000    0     1.008   -6.756391    2.309048   -2.814128
  11 H     1.0000    0     1.008   -4.793941    4.646963   -1.424041
  12 C     6.0000    0    12.011   -5.914964   -1.487874    0.651887
  13 H     1.0000    0     1.008   -3.823229    1.636197    2.134694
  14 H     1.0000    0     1.008   -7.633951   -1.060501    1.699253
  15 H     1.0000    0     1.008   -6.467193   -2.308650   -1.156502
  16 H     1.0000    0     1.008   -4.879907   -2.904296    1.727954
  17 C     6.0000    0    12.011   -1.624941    0.715200   -3.342920
  18 C     6.0000    0    12.011    0.928613    0.285907   -4.209372
  19 H     1.0000    0     1.008   -3.098452    1.398672   -4.597710
  20 C     6.0000    0    12.011    2.982109    0.845910   -2.665606
  21 C     6.0000    0    12.011    5.277212    0.069663   -3.843564
  22 S    16.0000    0    32.060    1.779863   -1.088655   -6.993357
  23 C     6.0000    0    12.011    4.915456   -0.989165   -6.156120
  24 H     1.0000    0     1.008    2.850867    2.542611   -1.218379
  25 H     1.0000    0     1.008    7.126988    0.382902   -3.038247
  26 H     1.0000    0     1.008    6.327921   -1.681571   -7.455275
  27 H     1.0000    0     1.008   -1.575105   -5.983569   -0.316759
  28 H     1.0000    0     1.008   -1.258210   -4.499078    4.593761
  29 H     1.0000    0     1.008    3.533116   -2.979512    5.436115
  30 O     8.0000    0    15.999    2.481612    4.670084    0.446520
  31 O     8.0000    0    15.999    1.019236    1.743188    3.103596
  32 C     6.0000    0    12.011    1.724454    4.010045    2.540314
  33 C     6.0000    0    12.011    1.623276    5.848749    4.703312
  34 H     1.0000    0     1.008    1.540458    7.780302    4.011681
  35 H     1.0000    0     1.008    3.339715    5.654940    5.831642
  36 H     1.0000    0     1.008    0.030429    5.476225    5.948949
  37 H     1.0000    0     1.008    6.161478   -3.567877    1.158157
  38 H     1.0000    0     1.008    2.989911   -5.411789   -2.421538
* core charge reduced due to ECP

--------------------------------
INTERNAL COORDINATES (ANGSTROEM)
--------------------------------
 Ir     0   0   0     0.000000000000     0.00000000     0.00000000
 C      1   0   0     2.159717430633     0.00000000     0.00000000
 C      2   1   0     1.441623344562    68.90823824     0.00000000
 C      1   2   3     2.164841144456    64.43812185    81.08970226
 C      2   1   3     1.406731139624    71.25698386   240.85805559
 C      4   1   2     1.406827251546    71.10662351   279.05857970
 N      1   2   3     2.103046497330   100.64527104   243.66223039
 C      7   1   2     1.471096200373   123.74348996    83.63779109
 C      8   7   1     1.520242473099   113.56078802   157.56044057
 H      9   8   7     1.089161622684   108.84291699   189.64964288
 H      9   8   7     1.091204277516   112.99788300    71.57538546
 H      9   8   7     1.090417556738   112.04541467   308.11905669
 C      8   7   1     1.523893526989   109.54056997   283.21344798
 H      8   7   1     1.091161720932   104.65156116    39.49117790
 H     13   8   7     1.088936753524   109.57646237   176.54931228
 H     13   8   7     1.090782296219   111.31047308   295.67242914
 H     13   8   7     1.089063075102   112.09574317    57.56871655
 C      7   1   2     1.276830745141   113.59120387   264.98316336
 C     18   7   1     1.445848325515   115.70472204   351.62917827
 H     18   7   1     1.086132001321   122.52998572   174.01636021
 C     19  18   7     1.391467244199   120.89735036   324.69032679
 C     21  19  18     1.425468290974   110.35313015   175.20856432
 S     19  18   7     1.703690440235   125.93617131   140.20324047
 C     22  21  19     1.359229884263   113.10203100     0.56740102
 H     21  19  18     1.182229961341   119.74039145   328.07022796
 H     22  21  19     1.080314576483   123.72319837   177.23973745
 H     24  22  21     1.079531543821   128.00212509   178.16928077
 H      2   1   3     1.080570545453   123.91023170   119.80867715
 H      3   2   1     1.080000339567   126.62295615   122.23935137
 H      6   4   1     1.080582380298   125.89883043   243.65080921
 O     25  21  19     1.457142858633   174.69786849     8.83866790
 O      1   2   3     2.035098482305   142.75198192   339.31621524
 C     31  25  21     1.228901604465   113.58804951    83.74195011
 C     33  31  25     1.503225168712   120.94854499   169.94034433
 H     34  33  31     1.086555980985   110.72382523    22.74023537
 H     34  33  31     1.091782881591   109.02527898   264.27277175
 H     34  33  31     1.088016291863   111.81416992   145.88419567
 H      4   1   2     1.079765595275   124.51181494   157.85595210
 H      5   2   1     1.080189149305   126.24752420   240.37437726

---------------------------
INTERNAL COORDINATES (A.U.)
---------------------------
 Ir     0   0   0     0.000000000000     0.00000000     0.00000000
 C      1   0   0     4.081274470552     0.00000000     0.00000000
 C      2   1   0     2.724273309490    68.90823824     0.00000000
 C      1   2   3     4.090956886466    64.43812185    81.08970226
 C      2   1   3     2.658336597949    71.25698386   240.85805559
 C      4   1   2     2.658518223159    71.10662351   279.05857970
 N      1   2   3     3.974181926855   100.64527104   243.66223039
 C      7   1   2     2.779968935357   123.74348996    83.63779109
 C      8   7   1     2.872841931312   113.56078802   157.56044057
 H      9   8   7     2.058217182450   108.84291699   189.64964288
 H      9   8   7     2.062077240669   112.99788300    71.57538546
 H      9   8   7     2.060590553855   112.04541467   308.11905669
 C      8   7   1     2.879741423264   109.54056997   283.21344798
 H      8   7   1     2.061996820380   104.65156116    39.49117790
 H     13   8   7     2.057792241322   109.57646237   176.54931228
 H     13   8   7     2.061279811584   111.31047308   295.67242914
 H     13   8   7     2.058030954510   112.09574317    57.56871655
 C      7   1   2     2.412860427687   113.59120387   264.98316336
 C     18   7   1     2.732257366412   115.70472204   351.62917827
 H     18   7   1     2.052492027785   122.52998572   174.01636021
 C     19  18   7     2.629492015858   120.89735036   324.69032679
 C     21  19  18     2.693744682529   110.35313015   175.20856432
 S     19  18   7     3.219508349024   125.93617131   140.20324047
 C     22  21  19     2.568572234299   113.10203100     0.56740102
 H     21  19  18     2.234090854250   119.74039145   328.07022796
 H     22  21  19     2.041498688036   123.72319837   177.23973745
 H     24  22  21     2.040018970751   128.00212509   178.16928077
 H      2   1   3     2.041982399289   123.91023170   119.80867715
 H      3   2   1     2.040904866324   126.62295615   122.23935137
 H      6   4   1     2.042004763904   125.89883043   243.65080921
 O     25  21  19     2.753600940815   174.69786849     8.83866790
 O      1   2   3     3.845778787115   142.75198192   339.31621524
 C     31  25  21     2.322287477976   113.58804951    83.74195011
 C     33  31  25     2.840683886483   120.94854499   169.94034433
 H     34  33  31     2.053293233235   110.72382523    22.74023537
 H     34  33  31     2.063170643910   109.02527898   264.27277175
 H     34  33  31     2.056052820865   111.81416992   145.88419567
 H      4   1   2     2.040461263899   124.51181494   157.85595210
 H      5   2   1     2.041261665020   126.24752420   240.37437726

---------------------
BASIS SET INFORMATION
---------------------
There are 6 groups of distinct atoms

 Group   1 Type Ir  : 7s6p5d1f contracted to 6s3p2d1f pattern {211111/411/41/1}
 Group   2 Type C   : 8s4p1d contracted to 4s2p1d pattern {5111/31/1}
 Group   3 Type N   : 8s4p1d contracted to 4s2p1d pattern {5111/31/1}
 Group   4 Type H   : 4s contracted to 2s pattern {31}
 Group   5 Type S   : 10s7p1d contracted to 4s3p1d pattern {5311/511/1}
 Group   6 Type O   : 8s4p1d contracted to 4s2p1d pattern {5111/31/1}

Atom   0Ir   basis set group =>   1
Atom   1C    basis set group =>   2
Atom   2C    basis set group =>   2
Atom   3C    basis set group =>   2
Atom   4C    basis set group =>   2
Atom   5C    basis set group =>   2
Atom   6N    basis set group =>   3
Atom   7C    basis set group =>   2
Atom   8C    basis set group =>   2
Atom   9H    basis set group =>   4
Atom  10H    basis set group =>   4
Atom  11H    basis set group =>   4
Atom  12C    basis set group =>   2
Atom  13H    basis set group =>   4
Atom  14H    basis set group =>   4
Atom  15H    basis set group =>   4
Atom  16H    basis set group =>   4
Atom  17C    basis set group =>   2
Atom  18C    basis set group =>   2
Atom  19H    basis set group =>   4
Atom  20C    basis set group =>   2
Atom  21C    basis set group =>   2
Atom  22S    basis set group =>   5
Atom  23C    basis set group =>   2
Atom  24H    basis set group =>   4
Atom  25H    basis set group =>   4
Atom  26H    basis set group =>   4
Atom  27H    basis set group =>   4
Atom  28H    basis set group =>   4
Atom  29H    basis set group =>   4
Atom  30O    basis set group =>   6
Atom  31O    basis set group =>   6
Atom  32C    basis set group =>   2
Atom  33C    basis set group =>   2
Atom  34H    basis set group =>   4
Atom  35H    basis set group =>   4
Atom  36H    basis set group =>   4
Atom  37H    basis set group =>   4
Atom  38H    basis set group =>   4
---------------------------------
AUXILIARY/J BASIS SET INFORMATION
---------------------------------
There are 6 groups of distinct atoms

 Group   1 Type Ir  : 11s5p5d3f3g contracted to 8s5p5d2f3g pattern {41111111/11111/11111/21/111}
 Group   2 Type C   : 12s5p4d2f1g contracted to 6s4p3d1f1g pattern {711111/2111/211/2/1}
 Group   3 Type N   : 12s5p4d2f1g contracted to 6s4p3d1f1g pattern {711111/2111/211/2/1}
 Group   4 Type H   : 5s2p1d contracted to 3s1p1d pattern {311/2/1}
 Group   5 Type S   : 14s5p5d2f1g contracted to 8s4p3d1f1g pattern {71111111/2111/311/2/1}
 Group   6 Type O   : 12s5p4d2f1g contracted to 6s4p3d1f1g pattern {711111/2111/211/2/1}

Atom   0Ir   basis set group =>   1
Atom   1C    basis set group =>   2
Atom   2C    basis set group =>   2
Atom   3C    basis set group =>   2
Atom   4C    basis set group =>   2
Atom   5C    basis set group =>   2
Atom   6N    basis set group =>   3
Atom   7C    basis set group =>   2
Atom   8C    basis set group =>   2
Atom   9H    basis set group =>   4
Atom  10H    basis set group =>   4
Atom  11H    basis set group =>   4
Atom  12C    basis set group =>   2
Atom  13H    basis set group =>   4
Atom  14H    basis set group =>   4
Atom  15H    basis set group =>   4
Atom  16H    basis set group =>   4
Atom  17C    basis set group =>   2
Atom  18C    basis set group =>   2
Atom  19H    basis set group =>   4
Atom  20C    basis set group =>   2
Atom  21C    basis set group =>   2
Atom  22S    basis set group =>   5
Atom  23C    basis set group =>   2
Atom  24H    basis set group =>   4
Atom  25H    basis set group =>   4
Atom  26H    basis set group =>   4
Atom  27H    basis set group =>   4
Atom  28H    basis set group =>   4
Atom  29H    basis set group =>   4
Atom  30O    basis set group =>   6
Atom  31O    basis set group =>   6
Atom  32C    basis set group =>   2
Atom  33C    basis set group =>   2
Atom  34H    basis set group =>   4
Atom  35H    basis set group =>   4
Atom  36H    basis set group =>   4
Atom  37H    basis set group =>   4
Atom  38H    basis set group =>   4
-------------------------
ECP PARAMETER INFORMATION
-------------------------

 Group 1, Type Ir ECP Def2-ECP (replacing 60 core electrons, lmax=3)

Atom   0Ir   ECP group =>   1



           ************************************************************
           *        Program running with 8 parallel MPI-processes     *
           *              working on a common directory               *
           ************************************************************
------------------------------------------------------------------------------
                           ORCA GTO INTEGRAL CALCULATION
                           -- RI-GTO INTEGRALS CHOSEN --
------------------------------------------------------------------------------
------------------------------------------------------------------------------
                   ___                                                        
                  /   \      - P O W E R E D   B Y -                         
                 /     \                                                     
                 |  |  |   _    _      __       _____    __    __             
                 |  |  |  | |  | |    /  \     |  _  \  |  |  /  |          
                  \  \/   | |  | |   /    \    | | | |  |  | /  /          
                 / \  \   | |__| |  /  /\  \   | |_| |  |  |/  /          
                |  |  |   |  __  | /  /__\  \  |    /   |      \           
                |  |  |   | |  | | |   __   |  |    \   |  |\   \          
                \     /   | |  | | |  |  |  |  | |\  \  |  | \   \       
                 \___/    |_|  |_| |__|  |__|  |_| \__\ |__|  \__/        
                                                                              
                      - O R C A' S   B I G   F R I E N D -                    
                                      &                                       
                       - I N T E G R A L  F E E D E R -                       
                                                                              
 v1 FN, 2020, v2 2021                                                         
------------------------------------------------------------------------------


Reading SHARK input file reaction4-IEIP_ts_guess_scan_5-4_orca.SHARKINP.tmp ... ok
----------------------
SHARK INTEGRAL PACKAGE
----------------------

Number of atoms                             ...     39
Number of basis functions                   ...    358
Number of shells                            ...    184
Maximum angular momentum                    ...      3
Integral batch strategy                     ... SHARK/LIBINT Hybrid
RI-J (if used) integral strategy            ... SPLIT-RIJ (Revised 2003 algorithm where possible)
Printlevel                                  ...      1
Contraction scheme used                     ... SEGMENTED contraction
Coulomb Range Separation                    ... NOT USED
Exchange Range Separation                   ... NOT USED
Finite Nucleus Model                        ... NOT USED
Auxiliary Coulomb fitting basis             ... AVAILABLE
   # of basis functions in Aux-J            ...   1231
   # of shells in Aux-J                     ...    405
   Maximum angular momentum in Aux-J        ...      4
Auxiliary J/K fitting basis                 ... NOT available
Auxiliary Correlation fitting basis         ... NOT available
Auxiliary 'external' fitting basis          ... NOT available
Integral threshold                          ...     2.500000e-11
Primitive cut-off                           ...     2.500000e-12
Primitive pair pre-selection threshold      ...     2.500000e-12

Calculating pre-screening integrals         ... done (  0.1 sec) Dimension = 184
Organizing shell pair data                  ... done (  0.1 sec)
Shell pair information
Total number of shell pairs                 ...     17020
Shell pairs after pre-screening             ...     13010
Total number of primitive shell pairs       ...     60705
Primitive shell pairs kept                  ...     29276
          la=0 lb=0:   4987 shell pairs
          la=1 lb=0:   4259 shell pairs
          la=1 lb=1:    858 shell pairs
          la=2 lb=0:   1758 shell pairs
          la=2 lb=1:    790 shell pairs
          la=2 lb=2:    181 shell pairs
          la=3 lb=0:    113 shell pairs
          la=3 lb=1:     42 shell pairs
          la=3 lb=2:     21 shell pairs
          la=3 lb=3:      1 shell pairs

Calculating one electron integrals          ... done (  0.0 sec)
Calculating ECP integrals                   ... done (  0.9 sec)
Calculating RI/J V-Matrix + Cholesky decomp.... done (  0.2 sec)
Calculating Nuclear repulsion               ... done (  0.0 sec) ENN=   2042.761501460761 Eh

SHARK setup successfully completed in   1.9 seconds

Maximum memory used throughout the entire GTOINT-calculation: 27.2 MB


           ************************************************************
           *        Program running with 8 parallel MPI-processes     *
           *              working on a common directory               *
           ************************************************************
-------------------------------------------------------------------------------
                                 ORCA SCF
-------------------------------------------------------------------------------

------------
SCF SETTINGS
------------
Hamiltonian:
 Density Functional     Method          .... DFT(GTOs)
 Exchange Functional    Exchange        .... PBE
   PBE kappa parameter   XKappa         ....  1.024500
   PBE mue parameter    XMuePBE         ....  0.123457
 Correlation Functional Correlation     .... PBE
   PBE beta parameter  CBetaPBE         ....  0.030000
 LDA part of GGA corr.  LDAOpt          .... PW91-LDA
 Gradients option       PostSCFGGA      .... off
 Hybrid DFT is turned on
   Fraction HF Exchange ScalHFX         ....  0.420000
   Scaling of DF-GGA-X  ScalDFX         ....  0.580000
   Scaling of DF-GGA-C  ScalDFC         ....  1.000000
   Scaling of DF-LDA-C  ScalLDAC        ....  1.000000
   Perturbative correction              ....  0.000000
   Density functional embedding theory  .... OFF
 RI-approximation to the Coulomb term is turned on
   Number of AuxJ basis functions       .... 1231
   RIJ-ON(X) (HFX calculated with O(N)) .... on
   Number of AuxJ basis functions       .... 1231
   RIJ-COSX (HFX calculated with COS-X)).... on


General Settings:
 Integral files         IntName         .... reaction4-IEIP_ts_guess_scan_5-4_orca
 Hartree-Fock type      HFTyp           .... RHF
 Total Charge           Charge          ....    1
 Multiplicity           Mult            ....    1
 Number of Electrons    NEL             ....  164
 Basis Dimension        Dim             ....  358
 Nuclear Repulsion      ENuc            ....   2042.7615014608 Eh

Convergence Acceleration:
 DIIS                   CNVDIIS         .... on
   Start iteration      DIISMaxIt       ....    12
   Startup error        DIISStart       ....  0.200000
   # of expansion vecs  DIISMaxEq       ....     5
   Bias factor          DIISBfac        ....   1.050
   Max. coefficient     DIISMaxC        ....  10.000
 Trust-Rad. Augm. Hess. CNVTRAH         .... auto
   Auto Start mean grad. ratio tolernc. ....  1.125000
   Auto Start start iteration           ....    20
   Auto Start num. interpolation iter.  ....    10
   Max. Number of Micro iterations      ....    16
   Max. Number of Macro iterations      .... Maxiter - #DIIS iter
   Number of Davidson start vectors     ....     2
   Converg. threshold I  (grad. norm)   ....   1.000e-05
   Converg. threshold II (energy diff.) ....   1.000e-08
   Grad. Scal. Fac. for Micro threshold ....   0.100
   Minimum threshold for Micro iter.    ....   0.010
   NR start threshold (gradient norm)   ....   0.001
   Initial trust radius                 ....   0.400
   Minimum AH scaling param. (alpha)    ....   1.000
   Maximum AH scaling param. (alpha)    .... 1000.000
   Orbital update algorithm             .... Taylor
   White noise on init. David. guess    .... on
   Maximum white noise                  ....   0.010
   Quad. conv. algorithm                .... NR
   COSX micro iterations for RIJONX calc.... off
 SOSCF                  CNVSOSCF        .... off
 Level Shifting         CNVShift        .... on
   Level shift para.    LevelShift      ....    0.2500
   Turn off err/grad.   ShiftErr        ....    0.0010
 Zerner damping         CNVZerner       .... off
 Static damping         CNVDamp         .... on
   Fraction old density DampFac         ....    0.7000
   Max. Damping (<1)    DampMax         ....    0.9800
   Min. Damping (>=0)   DampMin         ....    0.0000
   Turn off err/grad.   DampErr         ....    0.1000
 Fernandez-Rico         CNVRico         .... off

SCF Procedure:
 Maximum # iterations   MaxIter         ....   250
 SCF integral mode      SCFMode         .... Direct
   Integral package                     .... SHARK and LIBINT hybrid scheme
 Reset frequency        DirectResetFreq ....    20
 Integral Threshold     Thresh          ....  2.500e-11 Eh
 Primitive CutOff       TCut            ....  2.500e-12 Eh

Convergence Tolerance:
 Convergence Check Mode ConvCheckMode   .... Total+1el-Energy
 Convergence forced     ConvForced      .... 0
 Energy Change          TolE            ....  1.000e-08 Eh
 1-El. energy change                    ....  1.000e-05 Eh
 DIIS Error             TolErr          ....  5.000e-07


Diagonalization of the overlap matrix:
Smallest eigenvalue                        ... 1.163e-03
Time for diagonalization                   ...    0.031 sec
Threshold for overlap eigenvalues          ... 1.000e-08
Number of eigenvalues below threshold      ... 0
Time for construction of square roots      ...    0.016 sec
Total time needed                          ...    0.050 sec

--------------------
INITIAL GUESS: HCORE
--------------------
                      -----------------
                      INTIAL GUESS DONE 
                      -----------------
-------------------
DFT GRID GENERATION
-------------------

General Integration Accuracy     IntAcc      ... 4.159
Radial Grid Type                 RadialGrid  ... OptM3 with GC (2021)
Angular Grid (max. ang.)         AngularGrid ... 3 (Lebedev-194)
Angular grid pruning method      GridPruning ... 4 (adaptive)
Weight generation scheme         WeightScheme... Becke
Basis function cutoff            BFCut       ... 1.0000e-11
Integration weight cutoff        WCut        ... 1.0000e-14
Angular grids for H and He will be reduced by one unit
Partially contracted basis set               ... off
Rotationally invariant grid construction     ... off

Total number of grid points                  ...    93284
Total number of batches                      ...     1478
Average number of points per batch           ...       63
Average number of grid points per atom       ...     2392
Time for grid setup =    0.429 sec

--------------------
COSX GRID GENERATION
--------------------

GRIDX 1
-------
General Integration Accuracy     IntAcc      ... 3.816
Radial Grid Type                 RadialGrid  ... OptM3 with GC (2021)
Angular Grid (max. ang.)         AngularGrid ... 1 (Lebedev-50)
Angular grid pruning method      GridPruning ... 4 (adaptive)
Weight generation scheme         WeightScheme... Becke
Basis function cutoff            BFCut       ... 1.0000e-11
Integration weight cutoff        WCut        ... 1.0000e-14
Angular grids for H and He will be reduced by one unit
Partially contracted basis set               ... on
Rotationally invariant grid construction     ... off

Total number of grid points                  ...    23164
Total number of batches                      ...      381
Average number of points per batch           ...       60
Average number of grid points per atom       ...      594
UseSFitting                                  ... on

GRIDX 2
-------
General Integration Accuracy     IntAcc      ... 4.020
Radial Grid Type                 RadialGrid  ... OptM3 with GC (2021)
Angular Grid (max. ang.)         AngularGrid ... 2 (Lebedev-110)
Angular grid pruning method      GridPruning ... 4 (adaptive)
Weight generation scheme         WeightScheme... Becke
Basis function cutoff            BFCut       ... 1.0000e-11
Integration weight cutoff        WCut        ... 1.0000e-14
Angular grids for H and He will be reduced by one unit
Partially contracted basis set               ... on
Rotationally invariant grid construction     ... off

Total number of grid points                  ...    50293
Total number of batches                      ...      807
Average number of points per batch           ...       62
Average number of grid points per atom       ...     1290
UseSFitting                                  ... on

GRIDX 3
-------
General Integration Accuracy     IntAcc      ... 4.338
Radial Grid Type                 RadialGrid  ... OptM3 with GC (2021)
Angular Grid (max. ang.)         AngularGrid ... 3 (Lebedev-194)
Angular grid pruning method      GridPruning ... 4 (adaptive)
Weight generation scheme         WeightScheme... Becke
Basis function cutoff            BFCut       ... 1.0000e-11
Integration weight cutoff        WCut        ... 1.0000e-14
Angular grids for H and He will be reduced by one unit
Partially contracted basis set               ... on
Rotationally invariant grid construction     ... off

Total number of grid points                  ...   108732
Total number of batches                      ...     1719
Average number of points per batch           ...       63
Average number of grid points per atom       ...     2788
UseSFitting                                  ... on

Time for X-Grid setup             =    1.209 sec

--------------
SCF ITERATIONS
--------------
ITER       Energy         Delta-E        Max-DP      RMS-DP      [F,P]     Damp
               ***  Starting incremental Fock matrix formation  ***
  0   -859.3217076316   0.00000000000019.89505231  0.14944550  2.9101807 0.7000
  1  -1096.6981850076-237.37647737599510.80142900  0.12633330  1.4770286 0.7000
  2  -1165.0746651599 -68.376480152260 5.52956580  0.06664070  1.0606952 0.7000
  3  -1190.6888433028 -25.614178142882 3.84986476  0.04619714  0.7729860 0.7000
  4  -1207.9123539610 -17.223510658231 2.70442181  0.03707839  0.4585415 0.7000
  5  -1224.4109898032 -16.498635842200 2.43209045  0.03093132  0.3690114 0.7000
  6  -1234.9561083492 -10.545118546009 1.77231656  0.02981094  0.3195443 0.7000
  7  -1241.6829334709  -6.726825121708 2.01387428  0.02531263  0.3417784 0.7000
  8  -1246.2767851180  -4.593851647075 1.57077542  0.02500428  0.4088242 0.7000
  9  -1250.2865128590  -4.009727741026 1.71460149  0.02413782  0.3663251 0.7000
 10  -1252.9167759089  -2.630263049871 1.58800336  0.02452181  0.4233500 0.7000
 11  -1254.6133197937  -1.696543884815 1.60781701  0.02369060  0.3765738 0.7000
                               ***Turning on DIIS***
 12  -1255.9238092967  -1.310489502940 1.56819598  0.02396307  0.4425072 0.7000
 13  -1256.7741223147  -0.850313018028 1.44390421  0.02038903  0.3822269 0.7000
 14  -1267.5279058154 -10.753783500708 0.99851017  0.01439283  0.2512130 0.7000
 15  -1274.0120959840  -6.484190168560 0.69499328  0.01020987  0.1603007 0.7000
 16  -1278.1146422796  -4.102546295676 0.48500718  0.00721895  0.1175116 0.7000
 17  -1280.8810464865  -2.766404206859 0.33585110  0.00511448  0.1532791 0.7000
 18  -1282.9157406742  -2.034694187752 0.23331388  0.00364347  0.1527406 0.7000
 19  -1284.4134873011  -1.497746626871 0.15890449  0.00269720  0.1437145 0.7000
               *** Restarting incremental Fock matrix formation ***
                                   *** Resetting DIIS ***
 20  -1285.5540658578  -1.140578556684 0.12282553  0.00241022  0.1251845 0.7000
 21  -1286.4488520368  -0.894786178991 0.28745981  0.00545798  0.0463437 0.0000
 22  -1288.4091634783  -1.960311441471 0.03476270  0.00083095  0.0446523 0.0000
 23  -1288.4394320838  -0.030268605565 0.03357524  0.00057057  0.0150104 0.0000
 24  -1288.4432923453  -0.003860261519 0.01903716  0.00022632  0.0144986 0.0000
 25  -1288.4454183887  -0.002126043317 0.00547908  0.00010120  0.0029571 0.0000
 26  -1288.4457733706  -0.000354981981 0.00294556  0.00005551  0.0017557 0.0000
 27  -1288.4459002534  -0.000126882731 0.00252830  0.00004221  0.0010566 0.0000
 28  -1288.4459575945  -0.000057341123 0.00251379  0.00005062  0.0006255 0.0000
               *** Restarting incremental Fock matrix formation ***
                                   *** Resetting DIIS ***
 29  -1288.4470951610  -0.001137566532 0.00425198  0.00008335  0.0006326 0.0000
 30  -1288.4471129798  -0.000017818796 0.00090046  0.00001382  0.0003155 0.0000
 31  -1288.4471130307  -0.000000050851 0.00054946  0.00000768  0.0003916 0.0000
 32  -1288.4471151102  -0.000002079500 0.00034034  0.00000265  0.0001212 0.0000
 33  -1288.4471152084  -0.000000098218 0.00022463  0.00000173  0.0001215 0.0000
 34  -1288.4471152819  -0.000000073550 0.00010779  0.00000088  0.0000370 0.0000
 35  -1288.4471152849  -0.000000002927 0.00006089  0.00000058  0.0000193 0.0000
 36  -1288.4471152851  -0.000000000267 0.00003168  0.00000027  0.0000079 0.0000
                 **** Energy Check signals convergence ****

               *****************************************************
               *                     SUCCESS                       *
               *           SCF CONVERGED AFTER  37 CYCLES          *
               *****************************************************

Old exchange energy                            =    -59.660962905 Eh
New exchange energy                            =    -59.660902005 Eh
Exchange energy change after final integration =      0.000060901 Eh
Total energy after final integration           =  -1288.447054378 Eh
Final COS-X integration done in                =     7.633 sec

----------------
TOTAL SCF ENERGY
----------------

Total Energy       :        -1288.44705438 Eh          -35060.42679 eV

Components:
Nuclear Repulsion  :         2042.76150146 Eh           55586.36641 eV
Electronic Energy  :        -3331.20855584 Eh          -90646.79320 eV
One Electron Energy:        -5840.94604586 Eh         -158940.22227 eV
Two Electron Energy:         2509.73749002 Eh           68293.42907 eV
Max COSX asymmetry :            0.00001989 Eh               0.00054 eV

Virial components:
Potential Energy   :        -2501.57927403 Eh          -68071.43273 eV
Kinetic Energy     :         1213.13221965 Eh           33011.00594 eV
Virial Ratio       :            2.06208296


DFT components:
N(Alpha)           :       82.000634417316 electrons
N(Beta)            :       82.000634417316 electrons
N(Total)           :      164.001268834633 electrons
E(X)               :      -79.595870966823 Eh       
E(C)               :       -7.456102548937 Eh       
E(XC)              :      -87.051973515760 Eh       
DFET-embed. en.    :        0.000000000000 Eh       

---------------
SCF CONVERGENCE
---------------

  Last Energy change         ...    6.5520e-09  Tolerance :   1.0000e-08
  Last MAX-Density change    ...    0.0000e+00  Tolerance :   1.0000e-07
  Last RMS-Density change    ...    0.0000e+00  Tolerance :   5.0000e-09
  Last DIIS Error            ...    4.1705e-06  Tolerance :   5.0000e-07

             **** THE GBW FILE WAS UPDATED (reaction4-IEIP_ts_guess_scan_5-4_orca.gbw) ****
             **** DENSITY reaction4-IEIP_ts_guess_scan_5-4_orca.scfp WAS UPDATED ****
             **** ENERGY FILE WAS UPDATED (reaction4-IEIP_ts_guess_scan_5-4_orca.en.tmp) ****
             **** THE GBW FILE WAS UPDATED (reaction4-IEIP_ts_guess_scan_5-4_orca.gbw) ****
             **** DENSITY reaction4-IEIP_ts_guess_scan_5-4_orca.scfp WAS UPDATED ****
----------------
ORBITAL ENERGIES
----------------

  NO   OCC          E(Eh)            E(eV) 
   0   2.0000     -89.765206     -2442.6354 
   1   2.0000     -19.622148      -533.9458 
   2   2.0000     -19.587684      -533.0080 
   3   2.0000     -14.841736      -403.8642 
   4   2.0000     -10.679415      -290.6017 
   5   2.0000     -10.662703      -290.1469 
   6   2.0000     -10.636348      -289.4298 
   7   2.0000     -10.635518      -289.4072 
   8   2.0000     -10.632962      -289.3376 
   9   2.0000     -10.630643      -289.2745 
  10   2.0000     -10.630045      -289.2582 
  11   2.0000     -10.629569      -289.2453 
  12   2.0000     -10.616250      -288.8828 
  13   2.0000     -10.611770      -288.7609 
  14   2.0000     -10.587158      -288.0912 
  15   2.0000     -10.584205      -288.0109 
  16   2.0000     -10.557129      -287.2741 
  17   2.0000     -10.552231      -287.1408 
  18   2.0000     -10.532157      -286.5946 
  19   2.0000      -8.404514      -228.6984 
  20   2.0000      -6.294551      -171.2835 
  21   2.0000      -6.290898      -171.1840 
  22   2.0000      -6.289307      -171.1408 
  23   2.0000      -4.028995      -109.6345 
  24   2.0000      -2.347888       -63.8893 
  25   2.0000      -2.314060       -62.9688 
  26   2.0000      -2.312669       -62.9309 
  27   2.0000      -1.304320       -35.4923 
  28   2.0000      -1.215491       -33.0752 
  29   2.0000      -1.207377       -32.8544 
  30   2.0000      -1.172149       -31.8958 
  31   2.0000      -1.129297       -30.7297 
  32   2.0000      -1.028484       -27.9865 
  33   2.0000      -0.986862       -26.8539 
  34   2.0000      -0.977255       -26.5925 
  35   2.0000      -0.968220       -26.3466 
  36   2.0000      -0.962195       -26.1827 
  37   2.0000      -0.925864       -25.1940 
  38   2.0000      -0.903533       -24.5864 
  39   2.0000      -0.875345       -23.8193 
  40   2.0000      -0.799554       -21.7570 
  41   2.0000      -0.788239       -21.4491 
  42   2.0000      -0.787021       -21.4159 
  43   2.0000      -0.782960       -21.3054 
  44   2.0000      -0.772040       -21.0083 
  45   2.0000      -0.756566       -20.5872 
  46   2.0000      -0.744660       -20.2632 
  47   2.0000      -0.724584       -19.7169 
  48   2.0000      -0.694205       -18.8903 
  49   2.0000      -0.673817       -18.3355 
  50   2.0000      -0.666135       -18.1265 
  51   2.0000      -0.651548       -17.7295 
  52   2.0000      -0.647597       -17.6220 
  53   2.0000      -0.639994       -17.4151 
  54   2.0000      -0.636071       -17.3084 
  55   2.0000      -0.628759       -17.1094 
  56   2.0000      -0.623406       -16.9638 
  57   2.0000      -0.613275       -16.6881 
  58   2.0000      -0.607887       -16.5414 
  59   2.0000      -0.607105       -16.5202 
  60   2.0000      -0.598995       -16.2995 
  61   2.0000      -0.590143       -16.0586 
  62   2.0000      -0.580186       -15.7877 
  63   2.0000      -0.573891       -15.6164 
  64   2.0000      -0.564705       -15.3664 
  65   2.0000      -0.554926       -15.1003 
  66   2.0000      -0.552770       -15.0416 
  67   2.0000      -0.548684       -14.9304 
  68   2.0000      -0.539889       -14.6911 
  69   2.0000      -0.536536       -14.5999 
  70   2.0000      -0.528404       -14.3786 
  71   2.0000      -0.520838       -14.1727 
  72   2.0000      -0.516296       -14.0491 
  73   2.0000      -0.504736       -13.7346 
  74   2.0000      -0.488671       -13.2974 
  75   2.0000      -0.481950       -13.1145 
  76   2.0000      -0.469320       -12.7708 
  77   2.0000      -0.448892       -12.2150 
  78   2.0000      -0.441870       -12.0239 
  79   2.0000      -0.424597       -11.5539 
  80   2.0000      -0.416799       -11.3417 
  81   2.0000      -0.402851       -10.9621 
  82   0.0000      -0.201392        -5.4801 
  83   0.0000      -0.160017        -4.3543 
  84   0.0000      -0.141676        -3.8552 
  85   0.0000      -0.100852        -2.7443 
  86   0.0000      -0.077325        -2.1041 
  87   0.0000      -0.068280        -1.8580 
  88   0.0000      -0.060975        -1.6592 
  89   0.0000      -0.051692        -1.4066 
  90   0.0000      -0.045637        -1.2418 
  91   0.0000      -0.034329        -0.9342 
  92   0.0000      -0.004777        -0.1300 
  93   0.0000      -0.002696        -0.0734 
  94   0.0000       0.012099         0.3292 
  95   0.0000       0.022038         0.5997 
  96   0.0000       0.024094         0.6556 
  97   0.0000       0.034673         0.9435 
  98   0.0000       0.044955         1.2233 
  99   0.0000       0.058156         1.5825 
 100   0.0000       0.068388         1.8609 
 101   0.0000       0.070475         1.9177 
 102   0.0000       0.071527         1.9463 
 103   0.0000       0.079619         2.1665 
 104   0.0000       0.083708         2.2778 
 105   0.0000       0.090084         2.4513 
 106   0.0000       0.093596         2.5469 
 107   0.0000       0.100500         2.7348 
 108   0.0000       0.107424         2.9232 
 109   0.0000       0.113087         3.0773 
 110   0.0000       0.114891         3.1263 
 111   0.0000       0.121623         3.3095 
 112   0.0000       0.121906         3.3172 
 113   0.0000       0.125629         3.4185 
 114   0.0000       0.130849         3.5606 
 115   0.0000       0.138250         3.7620 
 116   0.0000       0.143238         3.8977 
 117   0.0000       0.154316         4.1992 
 118   0.0000       0.157383         4.2826 
 119   0.0000       0.160285         4.3616 
 120   0.0000       0.166063         4.5188 
 121   0.0000       0.180815         4.9202 
 122   0.0000       0.188834         5.1384 
 123   0.0000       0.198951         5.4137 
 124   0.0000       0.223514         6.0821 
 125   0.0000       0.231709         6.3051 
 126   0.0000       0.256679         6.9846 
 127   0.0000       0.264896         7.2082 
 128   0.0000       0.277253         7.5444 
 129   0.0000       0.291643         7.9360 
 130   0.0000       0.303367         8.2550 
 131   0.0000       0.310388         8.4461 
 132   0.0000       0.321536         8.7494 
 133   0.0000       0.335452         9.1281 
 134   0.0000       0.340635         9.2691 
 135   0.0000       0.355396         9.6708 
 136   0.0000       0.360720         9.8157 
 137   0.0000       0.368359        10.0235 
 138   0.0000       0.382580        10.4105 
 139   0.0000       0.397382        10.8133 
 140   0.0000       0.401676        10.9302 
 141   0.0000       0.417343        11.3565 
 142   0.0000       0.424128        11.5411 
 143   0.0000       0.435934        11.8624 
 144   0.0000       0.443526        12.0689 
 145   0.0000       0.449145        12.2218 
 146   0.0000       0.456164        12.4128 
 147   0.0000       0.459187        12.4951 
 148   0.0000       0.468988        12.7618 
 149   0.0000       0.476289        12.9605 
 150   0.0000       0.480267        13.0687 
 151   0.0000       0.488477        13.2921 
 152   0.0000       0.493693        13.4341 
 153   0.0000       0.500323        13.6145 
[...]

----------------------
LOEWDIN ATOMIC CHARGES
----------------------
   0 Ir:   -0.229606
   1 C :   -0.039980
   2 C :   -0.067824
   3 C :   -0.056306
   4 C :   -0.057266
   5 C :   -0.022742
   6 N :   -0.002841
   7 C :   -0.069237
   8 C :   -0.364258
   9 H :    0.157389
  10 H :    0.133407
  11 H :    0.146876
  12 C :   -0.343445
  13 H :    0.157027
  14 H :    0.152971
  15 H :    0.137171
  16 H :    0.133965
  17 C :    0.034137
  18 C :   -0.178895
  19 H :    0.162988
  20 C :   -0.196265
  21 C :   -0.132609
  22 S :    0.475982
  23 C :   -0.263359
  24 H :    0.294526
  25 H :    0.162975
  26 H :    0.168459
  27 H :    0.184759
  28 H :    0.185262
  29 H :    0.193103
  30 O :   -0.275483
  31 O :   -0.207509
  32 C :    0.152406
  33 C :   -0.376166
  34 H :    0.159373
  35 H :    0.166601
  36 H :    0.152943
  37 H :    0.186101
  38 H :    0.185367

-------------------------------
LOEWDIN REDUCED ORBITAL CHARGES
-------------------------------
  0 Irs       :     2.449662  s :     2.449662
      pz      :     2.242489  p :     6.752162
      px      :     2.240939
      py      :     2.268734
      dz2     :     1.840189  d :     7.938138
      dxz     :     1.731920
      dyz     :     1.282236
      dx2y2   :     1.630986
      dxy     :     1.452806
      f0      :     0.011467  f :     0.089644
      f+1     :     0.003365
      f-1     :     0.013366
      f+2     :     0.017125
      f-2     :     0.016474
      f+3     :     0.011076
      f-3     :     0.016771
  1 C s       :     2.875652  s :     2.875652
      pz      :     1.047919  p :     3.059894
      px      :     1.087426
      py      :     0.924548
      dz2     :     0.026410  d :     0.104435
      dxz     :     0.027087
      dyz     :     0.017584
      dx2y2   :     0.018452
      dxy     :     0.014902
  2 C s       :     2.874670  s :     2.874670
      pz      :     1.046177  p :     3.091528
      px      :     1.075755
      py      :     0.969596
      dz2     :     0.025525  d :     0.101626
      dxz     :     0.027568
      dyz     :     0.017434
      dx2y2   :     0.018054
      dxy     :     0.013045
  3 C s       :     2.874306  s :     2.874306
      pz      :     1.035742  p :     3.080224
      px      :     1.077488
      py      :     0.966993
      dz2     :     0.024042  d :     0.101776
      dxz     :     0.032010
      dyz     :     0.015997
      dx2y2   :     0.015328
      dxy     :     0.014400
  4 C s       :     2.873886  s :     2.873886
      pz      :     1.092280  p :     3.081340
      px      :     1.036263
      py      :     0.952797
      dz2     :     0.022366  d :     0.102040
      dxz     :     0.031516
      dyz     :     0.012974
      dx2y2   :     0.017700
      dxy     :     0.017484
  5 C s       :     2.877443  s :     2.877443
      pz      :     1.061703  p :     3.040864
      px      :     1.034003
      py      :     0.945158
      dz2     :     0.024936  d :     0.104436
      dxz     :     0.030132
      dyz     :     0.015827
      dx2y2   :     0.015561
      dxy     :     0.017981
  6 N s       :     3.123346  s :     3.123346
      pz      :     1.266171  p :     3.780838
      px      :     1.291733
      py      :     1.222934
      dz2     :     0.030364  d :     0.098657
      dxz     :     0.027656
      dyz     :     0.019149
      dx2y2   :     0.011486
      dxy     :     0.010002
  7 C s       :     2.862267  s :     2.862267
      pz      :     1.061122  p :     3.072628
      px      :     0.937444
      py      :     1.074062
      dz2     :     0.023708  d :     0.134343
      dxz     :     0.029186
      dyz     :     0.019428
      dx2y2   :     0.029109
      dxy     :     0.032912
  8 C s       :     2.953225  s :     2.953225
      pz      :     1.130689  p :     3.343592
      px      :     1.123649
      py      :     1.089254
      dz2     :     0.011728  d :     0.067441
      dxz     :     0.018003
      dyz     :     0.010403
      dx2y2   :     0.008858
      dxy     :     0.018449
  9 H s       :     0.842611  s :     0.842611
 10 H s       :     0.866593  s :     0.866593
 11 H s       :     0.853124  s :     0.853124
 12 C s       :     2.953084  s :     2.953084
      pz      :     1.140121  p :     3.322445
      px      :     1.111537
      py      :     1.070788
      dz2     :     0.009972  d :     0.067916
      dxz     :     0.013697
      dyz     :     0.015542
      dx2y2   :     0.010912
      dxy     :     0.017793
 13 H s       :     0.842973  s :     0.842973
 14 H s       :     0.847029  s :     0.847029
 15 H s       :     0.862829  s :     0.862829
 16 H s       :     0.866035  s :     0.866035
 17 C s       :     2.878136  s :     2.878136
      pz      :     1.021700  p :     2.947325
      px      :     1.061061
      py      :     0.864564
      dz2     :     0.040702  d :     0.140403
      dxz     :     0.050983
      dyz     :     0.024603
      dx2y2   :     0.011798
      dxy     :     0.012318
 18 C s       :     2.896372  s :     2.896372
      pz      :     1.041496  p :     3.170388
      px      :     1.089594
      py      :     1.039298
      dz2     :     0.031024  d :     0.112134
      dxz     :     0.030278
      dyz     :     0.017167
      dx2y2   :     0.020326
      dxy     :     0.013338
 19 H s       :     0.837012  s :     0.837012
 20 C s       :     2.911310  s :     2.911310
      pz      :     1.100549  p :     3.194713
      px      :     1.047589
      py      :     1.046574
      dz2     :     0.010695  d :     0.090242
      dxz     :     0.033698
      dyz     :     0.009727
      dx2y2   :     0.017776
      dxy     :     0.018346
 21 C s       :     2.897940  s :     2.897940
      pz      :     1.067192  p :     3.140470
      px      :     1.089135
      py      :     0.984143
      dz2     :     0.024947  d :     0.094199
      dxz     :     0.028427
      dyz     :     0.014340
      dx2y2   :     0.016439
      dxy     :     0.010046
 22 S s       :     5.503412  s :     5.503412
      pz      :     3.289585  p :     9.867327
      px      :     3.082059
      py      :     3.495683
      dz2     :     0.039290  d :     0.153279
      dxz     :     0.032970
      dyz     :     0.023479
      dx2y2   :     0.032928
      dxy     :     0.024612
 23 C s       :     2.964551  s :     2.964551
      pz      :     1.115388  p :     3.213143
      px      :     1.021073
      py      :     1.076682
      dz2     :     0.020785  d :     0.085665
      dxz     :     0.027756
      dyz     :     0.012590
      dx2y2   :     0.013620
      dxy     :     0.010914
 24 H s       :     0.705474  s :     0.705474
 25 H s       :     0.837025  s :     0.837025
 26 H s       :     0.831541  s :     0.831541
 27 H s       :     0.815241  s :     0.815241
 28 H s       :     0.814738  s :     0.814738
 29 H s       :     0.806897  s :     0.806897
 30 O s       :     3.507942  s :     3.507942
      pz      :     1.465773  p :     4.713022
      px      :     1.525347
      py      :     1.721901
      dz2     :     0.017882  d :     0.054520
      dxz     :     0.013000
      dyz     :     0.016209
      dx2y2   :     0.003987
      dxy     :     0.003442
 31 O s       :     3.446343  s :     3.446343
      pz      :     1.695428  p :     4.702176
      px      :     1.629156
      py      :     1.377591
      dz2     :     0.009393  d :     0.058990
      dxz     :     0.003461
      dyz     :     0.016141
      dx2y2   :     0.015691
      dxy     :     0.014304
 32 C s       :     2.813968  s :     2.813968
      pz      :     1.006388  p :     2.711010
      px      :     0.754821
      py      :     0.949801
      dz2     :     0.076678  d :     0.322615
      dxz     :     0.044527
      dyz     :     0.107901
      dx2y2   :     0.045299
      dxy     :     0.048211
 33 C s       :     2.959916  s :     2.959916
      pz      :     1.095639  p :     3.353559
      px      :     1.149368
      py      :     1.108552
      dz2     :     0.006013  d :     0.062691
      dxz     :     0.017284
      dyz     :     0.018967
      dx2y2   :     0.018124
      dxy     :     0.002302
 34 H s       :     0.840627  s :     0.840627
 35 H s       :     0.833399  s :     0.833399
 36 H s       :     0.847057  s :     0.847057
 37 H s       :     0.813899  s :     0.813899
 38 H s       :     0.814633  s :     0.814633


                      *****************************
                      * MAYER POPULATION ANALYSIS *
                      *****************************

  NA   - Mulliken gross atomic population
  ZA   - Total nuclear charge
  QA   - Mulliken gross atomic charge
  VA   - Mayer's total valence
  BVA  - Mayer's bonded valence
  FA   - Mayer's free valence

  ATOM       NA         ZA         QA         VA         BVA        FA
  0 Ir    16.3886    17.0000     0.6114     3.7442     3.7442     0.0000
  1 C      6.2107     6.0000    -0.2107     3.7012     3.7012    -0.0000
  2 C      6.2866     6.0000    -0.2866     3.7419     3.7419    -0.0000
  3 C      6.2378     6.0000    -0.2378     3.7337     3.7337    -0.0000
  4 C      6.2464     6.0000    -0.2464     3.7232     3.7232     0.0000
  5 C      6.1648     6.0000    -0.1648     3.6941     3.6941    -0.0000
  6 N      7.4256     7.0000    -0.4256     3.2168     3.2168     0.0000
  7 C      6.1215     6.0000    -0.1215     3.6983     3.6983    -0.0000
  8 C      6.6917     6.0000    -0.6917     3.6862     3.6862    -0.0000
  9 H      0.7278     1.0000     0.2722     0.8965     0.8965    -0.0000
 10 H      0.7749     1.0000     0.2251     0.9099     0.9099    -0.0000
 11 H      0.7393     1.0000     0.2607     0.8975     0.8975    -0.0000
 12 C      6.6376     6.0000    -0.6376     3.6729     3.6729    -0.0000
 13 H      0.7173     1.0000     0.2827     0.8749     0.8749    -0.0000
 14 H      0.7359     1.0000     0.2641     0.8968     0.8968    -0.0000
 15 H      0.7692     1.0000     0.2308     0.9096     0.9096     0.0000
 16 H      0.7674     1.0000     0.2326     0.9057     0.9057    -0.0000
 17 C      5.9290     6.0000     0.0710     3.6348     3.6348    -0.0000
 18 C      6.1794     6.0000    -0.1794     3.7113     3.7113     0.0000
 19 H      0.7084     1.0000     0.2916     0.8857     0.8857    -0.0000
 20 C      6.4704     6.0000    -0.4704     3.4631     3.4631    -0.0000
 21 C      6.1237     6.0000    -0.1237     3.7450     3.7450     0.0000
 22 S     15.6898    16.0000     0.3102     2.5819     2.5819     0.0000
 23 C      6.4323     6.0000    -0.4323     3.7453     3.7453    -0.0000
 24 H      0.5018     1.0000     0.4982     0.7402     0.7402     0.0000
 25 H      0.7325     1.0000     0.2675     0.9027     0.9027     0.0000
 26 H      0.7018     1.0000     0.2982     0.8971     0.8971     0.0000
 27 H      0.7092     1.0000     0.2908     0.9021     0.9021     0.0000
 28 H      0.7085     1.0000     0.2915     0.9055     0.9055     0.0000
 29 H      0.6943     1.0000     0.3057     0.8921     0.8921    -0.0000
 30 O      8.4786     8.0000    -0.4786     2.1268     2.1268     0.0000
 31 O      8.5393     8.0000    -0.5393     2.0745     2.0745    -0.0000
 32 C      5.3852     6.0000     0.6148     3.9215     3.9215    -0.0000
 33 C      6.7450     6.0000    -0.7450     3.6690     3.6690    -0.0000
 34 H      0.7310     1.0000     0.2690     0.8955     0.8955     0.0000
 35 H      0.7345     1.0000     0.2655     0.8957     0.8957    -0.0000
 36 H      0.7475     1.0000     0.2525     0.9013     0.9013    -0.0000
 37 H      0.7084     1.0000     0.2916     0.9028     0.9028     0.0000
 38 H      0.7064     1.0000     0.2936     0.9035     0.9035     0.0000

  Mayer bond orders larger than 0.100000
B(  0-Ir,  1-C ) :   0.4181 B(  0-Ir,  2-C ) :   0.5165 B(  0-Ir,  3-C ) :   0.4614 
B(  0-Ir,  4-C ) :   0.4490 B(  0-Ir,  5-C ) :   0.4010 B(  0-Ir,  6-N ) :   0.4621 
B(  0-Ir, 20-C ) :   0.2803 B(  0-Ir, 31-O ) :   0.5791 B(  1-C ,  2-C ) :   1.1214 
B(  1-C ,  4-C ) :   1.2445 B(  1-C , 27-H ) :   0.9036 B(  2-C ,  5-C ) :   1.1403 
B(  2-C , 28-H ) :   0.9080 B(  3-C ,  4-C ) :   1.1071 B(  3-C ,  5-C ) :   1.2295 
B(  3-C , 37-H ) :   0.9056 B(  4-C , 38-H ) :   0.9000 B(  5-C , 29-H ) :   0.8981 
B(  6-N ,  7-C ) :   0.8919 B(  6-N , 17-C ) :   1.6879 B(  7-C ,  8-C ) :   0.9917 
B(  7-C , 12-C ) :   0.9685 B(  7-C , 13-H ) :   0.8717 B(  8-C ,  9-H ) :   0.9036 
B(  8-C , 10-H ) :   0.9127 B(  8-C , 11-H ) :   0.9083 B( 12-C , 14-H ) :   0.9065 
B( 12-C , 15-H ) :   0.9155 B( 12-C , 16-H ) :   0.9116 B( 17-C , 18-C ) :   1.0596 
B( 17-C , 19-H ) :   0.8743 B( 18-C , 20-C ) :   1.2811 B( 18-C , 22-S ) :   1.2379 
B( 20-C , 21-C ) :   1.2594 B( 20-C , 24-H ) :   0.4688 B( 21-C , 23-C ) :   1.5511 
B( 21-C , 25-H ) :   0.9038 B( 22-S , 23-C ) :   1.2017 B( 23-C , 26-H ) :   0.8918 
B( 24-H , 30-O ) :   0.2460 B( 30-O , 32-C ) :   1.6927 B( 31-O , 32-C ) :   1.2778 
B( 32-C , 33-C ) :   0.9458 B( 33-C , 34-H ) :   0.9053 B( 33-C , 35-H ) :   0.8992 
B( 33-C , 36-H ) :   0.9097 


------------------
HIRSHFELD ANALYSIS
------------------

Total integrated alpha density =     82.000640412
Total integrated beta density  =     82.000640412

  ATOM     CHARGE      SPIN    
   0 Ir   0.199489    0.000000
   1 C    0.007071    0.000000
   2 C   -0.001611    0.000000
   3 C   -0.000402    0.000000
   4 C   -0.005306    0.000000
   5 C    0.018802    0.000000
   6 N   -0.065271    0.000000
   7 C    0.054001    0.000000
   8 C   -0.071020    0.000000
   9 H    0.054032    0.000000
  10 H    0.037685    0.000000
  11 H    0.043851    0.000000
  12 C   -0.070351    0.000000
  13 H    0.047006    0.000000
  14 H    0.051596    0.000000
  15 H    0.036572    0.000000
  16 H    0.030755    0.000000
  17 C    0.100799    0.000000
  18 C   -0.001318    0.000000
  19 H    0.078891    0.000000
  20 C   -0.069344    0.000000
  21 C   -0.028806    0.000000
  22 S    0.129530    0.000000
  23 C   -0.027024    0.000000
  24 H    0.063715    0.000000
  25 H    0.070456    0.000000
  26 H    0.078075    0.000000
  27 H    0.083572    0.000000
  28 H    0.084812    0.000000
  29 H    0.094424    0.000000
  30 O   -0.260373    0.000000
  31 O   -0.259858    0.000000
  32 C    0.240575    0.000000
  33 C   -0.067992    0.000000
  34 H    0.053973    0.000000
  35 H    0.058697    0.000000
  36 H    0.047930    0.000000
  37 H    0.084619    0.000000
  38 H    0.076463    0.000000

  TOTAL   0.998719    0.000000

-------
TIMINGS
-------

Total SCF time: 0 days 0 hours 0 min 40 sec 

Total time                  ....      40.270 sec
Sum of individual times     ....      39.619 sec  ( 98.4%)

Fock matrix formation       ....      37.070 sec  ( 92.1%)
  Split-RI-J                ....       3.763 sec  ( 10.2% of F)
  Chain of spheres X        ....      30.918 sec  ( 83.4% of F)
  XC integration            ....       2.215 sec  (  6.0% of F)
    Basis function eval.    ....       0.928 sec  ( 41.9% of XC)
    Density eval.           ....       0.580 sec  ( 26.2% of XC)
    XC-Functional eval.     ....       0.151 sec  (  6.8% of XC)
    XC-Potential eval.      ....       0.364 sec  ( 16.4% of XC)
Diagonalization             ....       0.325 sec  (  0.8%)
Density matrix formation    ....       0.015 sec  (  0.0%)
Population analysis         ....       0.467 sec  (  1.2%)
Initial guess               ....       0.037 sec  (  0.1%)
Orbital Transformation      ....       0.000 sec  (  0.0%)
Orbital Orthonormalization  ....       0.026 sec  (  0.1%)
DIIS solution               ....       0.183 sec  (  0.5%)
Grid generation             ....       1.523 sec  (  3.8%)

Maximum memory used throughout the entire SCF-calculation: 94.9 MB


-------------------------------------------------------------------------------
                          DFT DISPERSION CORRECTION                            
                                                                               
                              DFTD3 V3.1  Rev 1                                
                          USING Becke-Johnson damping                          
-------------------------------------------------------------------------------
The PBEh-3c composite method is recognized
Using three-body term ABC
Active option DFTDOPT                   ...         4   

molecular C6(AA) [au] = 19550.283697 


            DFT-D V3
 parameters
 s6 scaling factor         :     1.0000 
 a1 scaling factor         :     0.4860 
 s8 scaling factor         :     0.0000 
 a2 scaling factor         :     4.5000 
 Damping factor alpha9(ATM):    16.0000 
 ad hoc parameters k1-k3   :    16.0000     1.3333    -4.0000 

 Edisp/kcal,au: -19.389771956497  -0.030899565169 
 E6   /kcal   : -19.738490673 
 E8   /kcal   :  -0.000000000 
 E6(ABC)      :   0.348718716 
 % E8         :   0.000000000 
 % E6(ABC)    :  -1.798467342 

-------------------------   ----------------
Dispersion correction           -0.030899565
-------------------------   ----------------

 ** NOTE ** -> element ir will be treated as co
NOTIFICATION: Different basis set in ORCA and otool_gcp:
ORCA: 358  gCP: 357 
If you are NOT using ECPs, check your basis set inputs!
------------------   -----------------
gCP correction             0.078691969
------------------   -----------------

-------------------------   --------------------
FINAL SINGLE POINT ENERGY     -1288.399538019789
-------------------------   --------------------

                                *** OPTIMIZATION RUN DONE ***

                            ***************************************
                            *     ORCA property calculations      *
                            ***************************************

                                    ---------------------
                                    Active property flags
                                    ---------------------
   (+) Dipole Moment


------------------------------------------------------------------------------
                       ORCA ELECTRIC PROPERTIES CALCULATION
------------------------------------------------------------------------------

Dipole Moment Calculation                       ... on
Quadrupole Moment Calculation                   ... off
Polarizability Calculation                      ... off
GBWName                                         ... reaction4-IEIP_ts_guess_scan_5-4_orca.gbw
Electron density                                ... reaction4-IEIP_ts_guess_scan_5-4_orca.scfp
The origin for moment calculation is the CENTER OF MASS  = ( 0.857216, -0.615783 -0.147014)

-------------
DIPOLE MOMENT
-------------
                                X             Y             Z
Electronic contribution:     36.44119     -67.57890      72.33572
Nuclear contribution   :    -37.06811      66.38377     -72.68102
                        -----------------------------------------
Total Dipole Moment    :     -0.62692      -1.19513      -0.34529
                        -----------------------------------------
Magnitude (a.u.)       :      1.39305
Magnitude (Debye)      :      3.54085



--------------------
Rotational spectrum 
--------------------
 
Rotational constants in cm-1:     0.010691     0.009110     0.008253 
Rotational constants in MHz :   320.516033   273.125432   247.426099 

 Dipole components along the rotational axes: 
x,y,z [a.u.] :    -0.305796    -0.399935     1.298896 
x,y,z [Debye]:    -0.777273    -1.016553     3.301531 

 

Timings for individual modules:

Sum of individual times         ...      808.904 sec (=  13.482 min)
GTO integral calculation        ...       19.473 sec (=   0.325 min)   2.4 %
SCF iterations                  ...      609.388 sec (=  10.156 min)  75.3 %
SCF Gradient evaluation         ...      176.898 sec (=   2.948 min)  21.9 %
Geometry relaxation             ...        3.145 sec (=   0.052 min)   0.4 %
                             ****ORCA TERMINATED NORMALLY****
TOTAL RUN TIME: 0 days 0 hours 13 minutes 35 seconds 443 msec
