
                                 *****************
                                 * O   R   C   A *
                                 *****************

                                            #,                                       
                                            ###                                      
                                            ####                                     
                                            #####                                    
                                            ######                                   
                                           ########,                                 
                                     ,,################,,,,,                         
                               ,,#################################,,                 
                          ,,##########################################,,             
                       ,#########################################, ''#####,          
                    ,#############################################,,   '####,        
                  ,##################################################,,,,####,       
                ,###########''''           ''''###############################       
              ,#####''   ,,,,##########,,,,          '''####'''          '####       
            ,##' ,,,,###########################,,,                        '##       
           ' ,,###''''                  '''############,,,                           
         ,,##''                                '''############,,,,        ,,,,,,###''
      ,#''                                            '''#######################'''  
     '                                                          ''''####''''         
             ,#######,   #######,   ,#######,      ##                                
            ,#'     '#,  ##    ##  ,#'     '#,    #''#        ######   ,####,        
            ##       ##  ##   ,#'  ##            #'  '#       #        #'  '#        
            ##       ##  #######   ##           ,######,      #####,   #    #        
            '#,     ,#'  ##    ##  '#,     ,#' ,#      #,         ##   #,  ,#        
             '#######'   ##     ##  '#######'  #'      '#     #####' # '####'        



                  #######################################################
                  #                        -***-                        #
                  #          Department of theory and spectroscopy      #
                  #    Directorship and core code : Frank Neese         #
                  #        Max Planck Institute fuer Kohlenforschung    #
                  #                Kaiser Wilhelm Platz 1               #
                  #                 D-45470 Muelheim/Ruhr               #
                  #                      Germany                        #
                  #                                                     #
                  #                  All rights reserved                #
                  #                        -***-                        #
                  #######################################################


                         Program Version 5.0.3 -  RELEASE  -


 With contributions from (in alphabetic order):
   Daniel Aravena         : Magnetic Suceptibility
   Michael Atanasov       : Ab Initio Ligand Field Theory (pilot matlab implementation)
   Alexander A. Auer      : GIAO ZORA, VPT2 properties, NMR spectrum
   Ute Becker             : Parallelization
   Giovanni Bistoni       : ED, misc. LED, open-shell LED, HFLD
   Martin Brehm           : Molecular dynamics
   Dmytro Bykov           : SCF Hessian
   Vijay G. Chilkuri      : MRCI spin determinant printing, contributions to CSF-ICE
   Dipayan Datta          : RHF DLPNO-CCSD density
   Achintya Kumar Dutta   : EOM-CC, STEOM-CC
   Dmitry Ganyushin       : Spin-Orbit,Spin-Spin,Magnetic field MRCI
   Miquel Garcia          : C-PCM and meta-GGA Hessian, CC/C-PCM, Gaussian charge scheme
   Yang Guo               : DLPNO-NEVPT2, F12-NEVPT2, CIM, IAO-localization
   Andreas Hansen         : Spin unrestricted coupled pair/coupled cluster methods
   Benjamin Helmich-Paris : MC-RPA, TRAH-SCF, COSX integrals
   Lee Huntington         : MR-EOM, pCC
   Robert Izsak           : Overlap fitted RIJCOSX, COSX-SCS-MP3, EOM
   Marcus Kettner         : VPT2
   Christian Kollmar      : KDIIS, OOCD, Brueckner-CCSD(T), CCSD density, CASPT2, CASPT2-K
   Simone Kossmann        : Meta GGA functionals, TD-DFT gradient, OOMP2, MP2 Hessian
   Martin Krupicka        : Initial AUTO-CI
   Lucas Lang             : DCDCAS
   Marvin Lechner         : AUTO-CI (C++ implementation), FIC-MRCC
   Dagmar Lenk            : GEPOL surface, SMD
   Dimitrios Liakos       : Extrapolation schemes; Compound Job, initial MDCI parallelization
   Dimitrios Manganas     : Further ROCIS development; embedding schemes
   Dimitrios Pantazis     : SARC Basis sets
   Anastasios Papadopoulos: AUTO-CI, single reference methods and gradients
   Taras Petrenko         : DFT Hessian,TD-DFT gradient, ASA, ECA, R-Raman, ABS, FL, XAS/XES, NRVS
   Peter Pinski           : DLPNO-MP2, DLPNO-MP2 Gradient
   Christoph Reimann      : Effective Core Potentials
   Marius Retegan         : Local ZFS, SOC
   Christoph Riplinger    : Optimizer, TS searches, QM/MM, DLPNO-CCSD(T), (RO)-DLPNO pert. Triples
   Tobias Risthaus        : Range-separated hybrids, TD-DFT gradient, RPA, STAB
   Michael Roemelt        : Original ROCIS implementation
   Masaaki Saitow         : Open-shell DLPNO-CCSD energy and density
   Barbara Sandhoefer     : DKH picture change effects
   Avijit Sen             : IP-ROCIS
   Kantharuban Sivalingam : CASSCF convergence, NEVPT2, FIC-MRCI
   Bernardo de Souza      : ESD, SOC TD-DFT
   Georgi Stoychev        : AutoAux, RI-MP2 NMR, DLPNO-MP2 response
   Willem Van den Heuvel  : Paramagnetic NMR
   Boris Wezisla          : Elementary symmetry handling
   Frank Wennmohs         : Technical directorship


 We gratefully acknowledge several colleagues who have allowed us to
 interface, adapt or use parts of their codes:
   Stefan Grimme, W. Hujo, H. Kruse, P. Pracht,  : VdW corrections, initial TS optimization,
                  C. Bannwarth, S. Ehlert          DFT functionals, gCP, sTDA/sTD-DF
   Ed Valeev, F. Pavosevic, A. Kumar             : LibInt (2-el integral package), F12 methods
   Garnet Chan, S. Sharma, J. Yang, R. Olivares  : DMRG
   Ulf Ekstrom                                   : XCFun DFT Library
   Mihaly Kallay                                 : mrcc  (arbitrary order and MRCC methods)
   Jiri Pittner, Ondrej Demel                    : Mk-CCSD
   Frank Weinhold                                : gennbo (NPA and NBO analysis)
   Christopher J. Cramer and Donald G. Truhlar   : smd solvation model
   Lars Goerigk                                  : TD-DFT with DH, B97 family of functionals
   V. Asgeirsson, H. Jonsson                     : NEB implementation
   FAccTs GmbH                                   : IRC, NEB, NEB-TS, DLPNO-Multilevel, CI-OPT
                                                   MM, QMMM, 2- and 3-layer-ONIOM, Crystal-QMMM,
                                                   LR-CPCM, SF, NACMEs, symmetry and pop. for TD-DFT,
                                                   nearIR, NL-DFT gradient (VV10), updates on ESD,
                                                   ML-optimized integration grids
   S Lehtola, MJT Oliveira, MAL Marques          : LibXC Library
   Liviu Ungur et al                             : ANISO software


 Your calculation uses the libint2 library for the computation of 2-el integrals
 For citations please refer to: http://libint.valeyev.net

 Your ORCA version has been built with support for libXC version: 5.1.0
 For citations please refer to: https://tddft.org/programs/libxc/

 This ORCA versions uses:
   CBLAS   interface :  Fast vector & matrix operations
   LAPACKE interface :  Fast linear algebra routines
   SCALAPACK package :  Parallel linear algebra routines
   Shared memory     :  Shared parallel matrices
   BLAS/LAPACK       :  OpenBLAS 0.3.15  USE64BITINT DYNAMIC_ARCH NO_AFFINITY SkylakeX SINGLE_THREADED
        Core in use  :  SkylakeX
   Copyright (c) 2011-2014, The OpenBLAS Project


Your calculation utilizes the geometrical counterpoise correction gCP
Please cite in your paper:
H.Kruse, S. Grimme J.Chem.Phys., 136, (2012), 154101 
   

Your calculation utilizes the atom-pairwise dispersion correction
with the Becke-Johnson damping scheme (D3BJ)
Cite in your paper:
S.Grimme, S.Ehrlich, L.Goerigk, J Comput Chem, (2011), 32, 1456–1465 
S.Grimme, J.Antony, S.Ehrlich and H.Krieg, J.Chem.Phys., 132, (2010), 154104 
   

Your calculation employs the composite approach PBEh-3c.
Please cite in your paper:
S. Grimme, J. G. Brandenburg, C. Bannwarth, A. Hansen J.Chem.Phys., 143, (2015), 054107 
   

================================================================================

cite the ECPs for Pd [Def2-ECP] as follows:
Ce-Yb(ecp-28): M. Dolg, H. Stoll, H.Preuss, J. Chem. Phys., 1989, 90, 1730-1734.
Y-Cd(ecp-28), Hf-Hg(ecp-46): D. Andrae,U. Haeussermann, M. Dolg, H. Stoll, H. Preuss, Theor. Chim. Acta, 1990, 77, 123-141.
In-Sb(ecp-28), Tl-Bi(ecp-46): B. Metz, H. Stoll, M. Dolg, J. Chem. Phys., 2000, 113, 2563-2569.
Te-Xe(ecp-28), Po-Rn(ecp-46): K. A. Peterson, D. Figgen, E. Goll, H. Stoll, M. Dolg, J. Chem. Phys., 2003, 119, 11113-11123.
Rb(ecp-28), Cs(ecp-46): T. Leininger, A. Nicklass, W. Kuechle, H. Stoll, M. Dolg, A. Bergner, Chem. Phys. Lett., 1996, 255, 274-280.
Sr(ecp-28), Ba(ecp-46): M. Kaupp, P. V. Schleyer, H. Stoll and H. Preuss, J. Chem. Phys., 1991, 94, 1360-1366.
La(ecp-46): M. Dolg, H. Stoll, A. Savin, H. Preuss, Theor. Chim. Acta, 1989, 75, 173-194.
Lu(ecp-28): X. Cao, M. Dolg, J. Chem. Phys., 2001, 115, 7348-7355.

ECP parameters for Pd [Def2-ECP] have been obtained from:
TURBOMOLE (7.0.2)

----- Orbital basis set information -----
Your calculation utilizes the basis: def2-mSVP

----- AuxJ basis set information -----
Your calculation utilizes the auxiliary basis: def2/J
   F. Weigend, Phys. Chem. Chem. Phys. 8, 1057 (2006).

================================================================================
                                        WARNINGS
                       Please study these warnings very carefully!
================================================================================


INFO   : the flag for use of the SHARK integral package has been found!

================================================================================
                                       INPUT FILE
================================================================================
NAME = 1_11_orca.inp
|  1> ! EnGrad PBEh-3c
|  2> %output 
|  3> xyzfile=True 
|  4> end 
|  5> %scf 
|  6> maxiter 250 
|  7> end
|  8> %output
|  9> Print[P_Hirshfeld] = 1
| 10> end
| 11> % maxcore
| 12> 4000
| 13> *xyz 0 1
| 14> C   -1.78800467   0.19402888  -0.23936103 
| 15> C   -1.88710650  -0.77078598  -1.22731493 
| 16> C   -1.34873544  -2.03031387  -1.06585071 
| 17> C   -0.60932237  -2.29259173   0.06742288 
| 18> C   -1.13268785  -0.15398056   0.92057186 
| 19> C   -0.47794742  -1.35382917   1.07526385 
| 20> H   -2.20323547   1.18891739  -0.41039734 
| 21> H   -2.41135391  -0.51408037  -2.12525201 
| 22> H   -1.50697655  -2.79282049  -1.80237037 
| 23> H    0.12896853  -1.57160001   1.95405370 
| 24> H   -0.13491446  -3.24178197   0.20816805 
| 25> Pd   1.51244297   1.26748976   0.09764000 
| 26> O    2.75330841   1.03032377  -1.52449954 
| 27> O    2.61768478  -0.42553520   0.05749513 
| 28> O    0.40541919   2.90790803  -0.01959193 
| 29> C    0.11819750   2.93586675   1.21993180 
| 30> O    0.58367332   2.06339575   1.96849126 
| 31> H   -1.18831780   0.49599723   1.77759811 
| 32> C    3.14273591  -0.05473848  -1.02556904 
| 33> H    3.95309560  -0.62564141  -1.48638024 
| 34> H   -0.53572500   3.74886162   1.58283553 
| 35> *
| 36> 
| 37>                          ****END OF INPUT****
================================================================================

                     *******************************
                     * Energy+Gradient Calculation *
                     *******************************

---------------------------------
CARTESIAN COORDINATES (ANGSTROEM)
---------------------------------
  C     -1.788005    0.194029   -0.239361
  C     -1.887107   -0.770786   -1.227315
  C     -1.348735   -2.030314   -1.065851
  C     -0.609322   -2.292592    0.067423
  C     -1.132688   -0.153981    0.920572
  C     -0.477947   -1.353829    1.075264
  H     -2.203235    1.188917   -0.410397
  H     -2.411354   -0.514080   -2.125252
  H     -1.506977   -2.792820   -1.802370
  H      0.128969   -1.571600    1.954054
  H     -0.134914   -3.241782    0.208168
  Pd     1.512443    1.267490    0.097640
  O      2.753308    1.030324   -1.524500
  O      2.617685   -0.425535    0.057495
  O      0.405419    2.907908   -0.019592
  C      0.118197    2.935867    1.219932
  O      0.583673    2.063396    1.968491
  H     -1.188318    0.495997    1.777598
  C      3.142736   -0.054738   -1.025569
  H      3.953096   -0.625641   -1.486380
  H     -0.535725    3.748862    1.582836

----------------------------
CARTESIAN COORDINATES (A.U.)
----------------------------
  NO LB      ZA    FRAG     MASS         X           Y           Z
   0 C     6.0000    0    12.011   -3.378839    0.366661   -0.452327
   1 C     6.0000    0    12.011   -3.566114   -1.456574   -2.319289
   2 C     6.0000    0    12.011   -2.548741   -3.836737   -2.014166
   3 C     6.0000    0    12.011   -1.151452   -4.332371    0.127411
   4 C     6.0000    0    12.011   -2.140470   -0.290981    1.739629
   5 C     6.0000    0    12.011   -0.903190   -2.558366    2.031954
   6 H     1.0000    0     1.008   -4.163512    2.246728   -0.775539
   7 H     1.0000    0     1.008   -4.556799   -0.971471   -4.016144
   8 H     1.0000    0     1.008   -2.847773   -5.277666   -3.405986
   9 H     1.0000    0     1.008    0.243715   -2.969894    3.692626
  10 H     1.0000    0     1.008   -0.254951   -6.126080    0.393381
  11 Pd   18.0000*   0   106.400    2.858103    2.395209    0.184513
  12 O     8.0000    0    15.999    5.202999    1.947030   -2.880887
  13 O     8.0000    0    15.999    4.946707   -0.804145    0.108650
  14 O     8.0000    0    15.999    0.766131    5.495150   -0.037023
  15 C     6.0000    0    12.011    0.223361    5.547984    2.305337
  16 O     8.0000    0    15.999    1.102983    3.899253    3.719909
  17 H     1.0000    0     1.008   -2.245595    0.937299    3.359174
  18 C     6.0000    0    12.011    5.938910   -0.103441   -1.938045
  19 H     1.0000    0     1.008    7.470268   -1.182291   -2.808852
  20 H     1.0000    0     1.008   -1.012374    7.084322    2.991126
* core charge reduced due to ECP

--------------------------------
INTERNAL COORDINATES (ANGSTROEM)
--------------------------------
 C      0   0   0     0.000000000000     0.00000000     0.00000000
 C      1   0   0     1.384464443498     0.00000000     0.00000000
 C      2   1   0     1.379247837872   121.66262654     0.00000000
 C      3   2   1     1.378343351174   118.64730963   355.04336834
 C      1   2   3     1.376951347800   117.32694518   359.73242602
 C      5   1   2     1.375591265371   122.79970541     6.32736254
 H      1   2   3     1.091546235364   119.74437844   178.43542530
 H      2   1   3     1.070992117962   117.79414236   179.14072045
 H      3   2   1     1.071875834229   120.76793335   174.61727017
 H      6   5   1     1.089973719675   122.00303435   173.05489525
 H      4   3   2     1.070436443541   120.96990868   182.99740723
 Pd     5   1   2     3.113601093872    93.80044618   100.39410619
 O     12   5   1     2.056047527230   131.95733203   301.94030053
 O     12   5   1     2.022252354268    95.01083278   243.13395615
 O     12   5   1     1.982477509443    85.35433590    58.52060085
 C     15  12   5     1.272673197040    94.96844077    64.20446744
 O     16  15  12     1.240247817979   119.18822804     1.07275477
 H      5   1   2     1.077060728102   119.55085907   191.14455610
 C     13  12   5     1.256163010107    88.47425979   287.06569470
 H     19  13  12     1.093142234435   120.89766653   185.45555203
 H     16  15  12     1.104660315165   118.01671405   180.67977448

---------------------------
INTERNAL COORDINATES (A.U.)
---------------------------
 C      0   0   0     0.000000000000     0.00000000     0.00000000
 C      1   0   0     2.616258640364     0.00000000     0.00000000
 C      2   1   0     2.606400684380   121.66262654     0.00000000
 C      3   2   1     2.604691452229   118.64730963   355.04336834
 C      1   2   3     2.602060947075   117.32694518   359.73242602
 C      5   1   2     2.599490763766   122.79970541     6.32736254
 H      1   2   3     2.062723447350   119.74437844   178.43542530
 H      2   1   3     2.023881794536   117.79414236   179.14072045
 H      3   2   1     2.025551776261   120.76793335   174.61727017
 H      6   5   1     2.059751823357   122.00303435   173.05489525
 H      4   3   2     2.022831722061   120.96990868   182.99740723
 Pd     5   1   2     5.883853357695    93.80044618   100.39410619
 O     12   5   1     3.885366744792   131.95733203   301.94030053
 O     12   5   1     3.821503123244    95.01083278   243.13395615
 O     12   5   1     3.746339559505    85.35433590    58.52060085
 C     15  12   5     2.405003800387    94.96844077    64.20446744
 O     16  15  12     2.343728714173   119.18822804     1.07275477
 H      5   1   2     2.035349805714   119.55085907   191.14455610
 C     13  12   5     2.373804068665    88.47425979   287.06569470
 H     19  13  12     2.065739448504   120.89766653   185.45555203
 H     16  15  12     2.087505466673   118.01671405   180.67977448

---------------------
BASIS SET INFORMATION
---------------------
There are 4 groups of distinct atoms

 Group   1 Type C   : 8s4p1d contracted to 4s2p1d pattern {5111/31/1}
 Group   2 Type H   : 4s contracted to 2s pattern {31}
 Group   3 Type Pd  : 7s6p5d1f contracted to 5s3p2d1f pattern {31111/411/41/1}
 Group   4 Type O   : 8s4p1d contracted to 4s2p1d pattern {5111/31/1}

Atom   0C    basis set group =>   1
Atom   1C    basis set group =>   1
Atom   2C    basis set group =>   1
Atom   3C    basis set group =>   1
Atom   4C    basis set group =>   1
Atom   5C    basis set group =>   1
Atom   6H    basis set group =>   2
Atom   7H    basis set group =>   2
Atom   8H    basis set group =>   2
Atom   9H    basis set group =>   2
Atom  10H    basis set group =>   2
Atom  11Pd   basis set group =>   3
Atom  12O    basis set group =>   4
Atom  13O    basis set group =>   4
Atom  14O    basis set group =>   4
Atom  15C    basis set group =>   1
Atom  16O    basis set group =>   4
Atom  17H    basis set group =>   2
Atom  18C    basis set group =>   1
Atom  19H    basis set group =>   2
Atom  20H    basis set group =>   2
---------------------------------
AUXILIARY/J BASIS SET INFORMATION
---------------------------------
There are 4 groups of distinct atoms

 Group   1 Type C   : 12s5p4d2f1g contracted to 6s4p3d1f1g pattern {711111/2111/211/2/1}
 Group   2 Type H   : 5s2p1d contracted to 3s1p1d pattern {311/2/1}
 Group   3 Type Pd  : 11s5p5d3f3g contracted to 8s5p5d2f3g pattern {41111111/11111/11111/21/111}
 Group   4 Type O   : 12s5p4d2f1g contracted to 6s4p3d1f1g pattern {711111/2111/211/2/1}

Atom   0C    basis set group =>   1
Atom   1C    basis set group =>   1
Atom   2C    basis set group =>   1
Atom   3C    basis set group =>   1
Atom   4C    basis set group =>   1
Atom   5C    basis set group =>   1
Atom   6H    basis set group =>   2
Atom   7H    basis set group =>   2
Atom   8H    basis set group =>   2
Atom   9H    basis set group =>   2
Atom  10H    basis set group =>   2
Atom  11Pd   basis set group =>   3
Atom  12O    basis set group =>   4
Atom  13O    basis set group =>   4
Atom  14O    basis set group =>   4
Atom  15C    basis set group =>   1
Atom  16O    basis set group =>   4
Atom  17H    basis set group =>   2
Atom  18C    basis set group =>   1
Atom  19H    basis set group =>   2
Atom  20H    basis set group =>   2
-------------------------
ECP PARAMETER INFORMATION
-------------------------

 Group 1, Type Pd ECP Def2-ECP (replacing 28 core electrons, lmax=3)

Atom  11Pd   ECP group =>   1

------------------------------------------------------------------------------
                           ORCA GTO INTEGRAL CALCULATION
                           -- RI-GTO INTEGRALS CHOSEN --
------------------------------------------------------------------------------
------------------------------------------------------------------------------
                   ___                                                        
                  /   \      - P O W E R E D   B Y -                         
                 /     \                                                     
                 |  |  |   _    _      __       _____    __    __             
                 |  |  |  | |  | |    /  \     |  _  \  |  |  /  |          
                  \  \/   | |  | |   /    \    | | | |  |  | /  /          
                 / \  \   | |__| |  /  /\  \   | |_| |  |  |/  /          
                |  |  |   |  __  | /  /__\  \  |    /   |      \           
                |  |  |   | |  | | |   __   |  |    \   |  |\   \          
                \     /   | |  | | |  |  |  |  | |\  \  |  | \   \       
                 \___/    |_|  |_| |__|  |__|  |_| \__\ |__|  \__/        
                                                                              
                      - O R C A' S   B I G   F R I E N D -                    
                                      &                                       
                       - I N T E G R A L  F E E D E R -                       
                                                                              
 v1 FN, 2020, v2 2021                                                         
------------------------------------------------------------------------------


Reading SHARK input file 1_11_orca.SHARKINP.tmp ... ok
----------------------
SHARK INTEGRAL PACKAGE
----------------------

Number of atoms                             ...     21
Number of basis functions                   ...    227
Number of shells                            ...    111
Maximum angular momentum                    ...      3
Integral batch strategy                     ... SHARK/LIBINT Hybrid
RI-J (if used) integral strategy            ... SPLIT-RIJ (Revised 2003 algorithm where possible)
Printlevel                                  ...      1
Contraction scheme used                     ... SEGMENTED contraction
Coulomb Range Separation                    ... NOT USED
Exchange Range Separation                   ... NOT USED
Finite Nucleus Model                        ... NOT USED
Auxiliary Coulomb fitting basis             ... AVAILABLE
   # of basis functions in Aux-J            ...    765
   # of shells in Aux-J                     ...    243
   Maximum angular momentum in Aux-J        ...      4
Auxiliary J/K fitting basis                 ... NOT available
Auxiliary Correlation fitting basis         ... NOT available
Auxiliary 'external' fitting basis          ... NOT available
Integral threshold                          ...     2.500000e-11
Primitive cut-off                           ...     2.500000e-12
Primitive pair pre-selection threshold      ...     2.500000e-12

Calculating pre-screening integrals         ... done (  0.1 sec) Dimension = 111
Organizing shell pair data                  ... done (  0.0 sec)
Shell pair information
Total number of shell pairs                 ...      6216
Shell pairs after pre-screening             ...      4996
Total number of primitive shell pairs       ...     21723
Primitive shell pairs kept                  ...     11793
          la=0 lb=0:   1745 shell pairs
          la=1 lb=0:   1625 shell pairs
          la=1 lb=1:    366 shell pairs
          la=2 lb=0:    720 shell pairs
          la=2 lb=1:    354 shell pairs
          la=2 lb=2:     91 shell pairs
          la=3 lb=0:     54 shell pairs
          la=3 lb=1:     27 shell pairs
          la=3 lb=2:     13 shell pairs
          la=3 lb=3:      1 shell pairs

Calculating one electron integrals          ... done (  0.0 sec)
Calculating ECP integrals                   ... done (  0.2 sec)
Calculating RI/J V-Matrix + Cholesky decomp.... done (  0.0 sec)
Calculating Nuclear repulsion               ... done (  0.0 sec) ENN=    934.920859960378 Eh

SHARK setup successfully completed in   0.5 seconds

Maximum memory used throughout the entire GTOINT-calculation: 45.4 MB
-------------------------------------------------------------------------------
                                 ORCA SCF
-------------------------------------------------------------------------------

------------
SCF SETTINGS
------------
Hamiltonian:
 Density Functional     Method          .... DFT(GTOs)
 Exchange Functional    Exchange        .... PBE
   PBE kappa parameter   XKappa         ....  1.024500
   PBE mue parameter    XMuePBE         ....  0.123457
 Correlation Functional Correlation     .... PBE
   PBE beta parameter  CBetaPBE         ....  0.030000
 LDA part of GGA corr.  LDAOpt          .... PW91-LDA
 Gradients option       PostSCFGGA      .... off
 Hybrid DFT is turned on
   Fraction HF Exchange ScalHFX         ....  0.420000
   Scaling of DF-GGA-X  ScalDFX         ....  0.580000
   Scaling of DF-GGA-C  ScalDFC         ....  1.000000
   Scaling of DF-LDA-C  ScalLDAC        ....  1.000000
   Perturbative correction              ....  0.000000
   Density functional embedding theory  .... OFF
 RI-approximation to the Coulomb term is turned on
   Number of AuxJ basis functions       .... 765
   RIJ-ON(X) (HFX calculated with O(N)) .... on
   Number of AuxJ basis functions       .... 765
   RIJ-COSX (HFX calculated with COS-X)).... on


General Settings:
 Integral files         IntName         .... 1_11_orca
 Hartree-Fock type      HFTyp           .... RHF
 Total Charge           Charge          ....    0
 Multiplicity           Mult            ....    1
 Number of Electrons    NEL             ....  106
 Basis Dimension        Dim             ....  227
 Nuclear Repulsion      ENuc            ....    934.9208599604 Eh

Convergence Acceleration:
 DIIS                   CNVDIIS         .... on
   Start iteration      DIISMaxIt       ....    12
   Startup error        DIISStart       ....  0.200000
   # of expansion vecs  DIISMaxEq       ....     5
   Bias factor          DIISBfac        ....   1.050
   Max. coefficient     DIISMaxC        ....  10.000
 Trust-Rad. Augm. Hess. CNVTRAH         .... auto
   Auto Start mean grad. ratio tolernc. ....  1.125000
   Auto Start start iteration           ....    20
   Auto Start num. interpolation iter.  ....    10
   Max. Number of Micro iterations      ....    16
   Max. Number of Macro iterations      .... Maxiter - #DIIS iter
   Number of Davidson start vectors     ....     2
   Converg. threshold I  (grad. norm)   ....   1.000e-05
   Converg. threshold II (energy diff.) ....   1.000e-08
   Grad. Scal. Fac. for Micro threshold ....   0.100
   Minimum threshold for Micro iter.    ....   0.010
   NR start threshold (gradient norm)   ....   0.001
   Initial trust radius                 ....   0.400
   Minimum AH scaling param. (alpha)    ....   1.000
   Maximum AH scaling param. (alpha)    .... 1000.000
   Orbital update algorithm             .... Taylor
   White noise on init. David. guess    .... on
   Maximum white noise                  ....   0.010
   Quad. conv. algorithm                .... NR
   COSX micro iterations for RIJONX calc.... off
 SOSCF                  CNVSOSCF        .... off
 Level Shifting         CNVShift        .... on
   Level shift para.    LevelShift      ....    0.2500
   Turn off err/grad.   ShiftErr        ....    0.0010
 Zerner damping         CNVZerner       .... off
 Static damping         CNVDamp         .... on
   Fraction old density DampFac         ....    0.7000
   Max. Damping (<1)    DampMax         ....    0.9800
   Min. Damping (>=0)   DampMin         ....    0.0000
   Turn off err/grad.   DampErr         ....    0.1000
 Fernandez-Rico         CNVRico         .... off

SCF Procedure:
 Maximum # iterations   MaxIter         ....   250
 SCF integral mode      SCFMode         .... Direct
   Integral package                     .... SHARK and LIBINT hybrid scheme
 Reset frequency        DirectResetFreq ....    20
 Integral Threshold     Thresh          ....  2.500e-11 Eh
 Primitive CutOff       TCut            ....  2.500e-12 Eh

Convergence Tolerance:
 Convergence Check Mode ConvCheckMode   .... Total+1el-Energy
 Convergence forced     ConvForced      .... 0
 Energy Change          TolE            ....  1.000e-08 Eh
 1-El. energy change                    ....  1.000e-05 Eh
 DIIS Error             TolErr          ....  5.000e-07


Diagonalization of the overlap matrix:
Smallest eigenvalue                        ... 4.588e-04
Time for diagonalization                   ...    0.007 sec
Threshold for overlap eigenvalues          ... 1.000e-08
Number of eigenvalues below threshold      ... 0
Time for construction of square roots      ...    0.003 sec
Total time needed                          ...    0.010 sec

--------------------------------
INITIAL GUESS: MINIMAL BASIS EHT
--------------------------------
The minimal basis has 81 functions
EHT matrix was diagonalized
Basis set overlap was calculated now projecting the orbitals
Using GuessMode=FMatrix for the initial guess
C*T matrix was formed
Effective Fockian was calculated
Effective Fockian was diagonalized
Initial density was built
                      ------------------
                      INITIAL GUESS DONE
                      ------------------
-------------------
DFT GRID GENERATION
-------------------

General Integration Accuracy     IntAcc      ... 4.159
Radial Grid Type                 RadialGrid  ... OptM3 with GC (2021)
Angular Grid (max. ang.)         AngularGrid ... 3 (Lebedev-194)
Angular grid pruning method      GridPruning ... 4 (adaptive)
Weight generation scheme         WeightScheme... Becke
Basis function cutoff            BFCut       ... 1.0000e-11
Integration weight cutoff        WCut        ... 1.0000e-14
Angular grids for H and He will be reduced by one unit
Partially contracted basis set               ... off
Rotationally invariant grid construction     ... off

Total number of grid points                  ...    56298
Total number of batches                      ...      890
Average number of points per batch           ...       63
Average number of grid points per atom       ...     2681
Time for grid setup =    0.629 sec

--------------------
COSX GRID GENERATION
--------------------

GRIDX 1
-------
General Integration Accuracy     IntAcc      ... 3.816
Radial Grid Type                 RadialGrid  ... OptM3 with GC (2021)
Angular Grid (max. ang.)         AngularGrid ... 1 (Lebedev-50)
Angular grid pruning method      GridPruning ... 4 (adaptive)
Weight generation scheme         WeightScheme... Becke
Basis function cutoff            BFCut       ... 1.0000e-11
Integration weight cutoff        WCut        ... 1.0000e-14
Angular grids for H and He will be reduced by one unit
Partially contracted basis set               ... on
Rotationally invariant grid construction     ... off

Total number of grid points                  ...    13560
Total number of batches                      ...      220
Average number of points per batch           ...       61
Average number of grid points per atom       ...      646
UseSFitting                                  ... on

GRIDX 2
-------
General Integration Accuracy     IntAcc      ... 4.020
Radial Grid Type                 RadialGrid  ... OptM3 with GC (2021)
Angular Grid (max. ang.)         AngularGrid ... 2 (Lebedev-110)
Angular grid pruning method      GridPruning ... 4 (adaptive)
Weight generation scheme         WeightScheme... Becke
Basis function cutoff            BFCut       ... 1.0000e-11
Integration weight cutoff        WCut        ... 1.0000e-14
Angular grids for H and He will be reduced by one unit
Partially contracted basis set               ... on
Rotationally invariant grid construction     ... off

Total number of grid points                  ...    30268
Total number of batches                      ...      484
Average number of points per batch           ...       62
Average number of grid points per atom       ...     1441
UseSFitting                                  ... on

GRIDX 3
-------
General Integration Accuracy     IntAcc      ... 4.338
Radial Grid Type                 RadialGrid  ... OptM3 with GC (2021)
Angular Grid (max. ang.)         AngularGrid ... 3 (Lebedev-194)
Angular grid pruning method      GridPruning ... 4 (adaptive)
Weight generation scheme         WeightScheme... Becke
Basis function cutoff            BFCut       ... 1.0000e-11
Integration weight cutoff        WCut        ... 1.0000e-14
Angular grids for H and He will be reduced by one unit
Partially contracted basis set               ... on
Rotationally invariant grid construction     ... off

Total number of grid points                  ...    65868
Total number of batches                      ...     1038
Average number of points per batch           ...       63
Average number of grid points per atom       ...     3137
UseSFitting                                  ... on

Time for X-Grid setup             =    1.719 sec

--------------
SCF ITERATIONS
--------------
ITER       Energy         Delta-E        Max-DP      RMS-DP      [F,P]     Damp
               ***  Starting incremental Fock matrix formation  ***
  0   -716.7879301327   0.000000000000 5.27738116  0.04272299  5.0175871 0.7000
  1   -710.9872054129   5.800724719774 3.71850063  0.06233786  3.8913584 0.7000
  2   -708.8104399597   2.176765453255 3.49269349  0.03300414  2.5977730 0.7000
  3   -713.5119763231  -4.701536363391 3.04699527  0.03733867  1.9245067 0.7000
  4   -716.0373406189  -2.525364295817 1.73968326  0.02432866  1.2417594 0.7000
  5   -720.9316667466  -4.894326127750 1.18697362  0.01765269  0.9672487 0.7000
  6   -725.5570820876  -4.625415340961 0.79638130  0.01244525  0.6466824 0.7000
  7   -728.9277745061  -3.370692418550 0.56872920  0.00898205  0.4967538 0.7000
  8   -731.3113440872  -2.383569581079 0.43602669  0.00647525  0.3694914 0.7000
  9   -733.0252413048  -1.713897217540 0.32161298  0.00460915  0.2627099 0.7000
                               ***Turning on DIIS***
 10   -734.2482277874  -1.222986482676 0.22550637  0.00323847  0.1819058 0.7000
 11   -735.1144324814  -0.866204693942 0.14963870  0.00225713  0.1253372 0.7000
 12   -735.7259447588  -0.611512277381 0.34868009  0.00531592  0.0888751 0.0000
 13   -737.1711663168  -1.445221558057 0.00827312  0.00013509  0.0030155 0.0000
 14   -737.1714861945  -0.000319877704 0.00485495  0.00008883  0.0024221 0.0000
 15   -737.1715983947  -0.000112200180 0.00582902  0.00006389  0.0018602 0.0000
 16   -737.1716629088  -0.000064514056 0.00402034  0.00004570  0.0014778 0.0000
 17   -737.1716921380  -0.000029229266 0.00353618  0.00003492  0.0011500 0.0000
 18   -737.1717081385  -0.000016000453 0.00643568  0.00006286  0.0008726 0.0000
               *** Restarting incremental Fock matrix formation ***
                                   *** Resetting DIIS ***
 19   -737.1720682749  -0.000360136396 0.00174045  0.00004413  0.0003895 0.0000
 20   -737.1720726890  -0.000004414150 0.00088109  0.00001102  0.0004125 0.0000
 21   -737.1720737456  -0.000001056606 0.00093350  0.00000931  0.0003059 0.0000
 22   -737.1720746866  -0.000000940983 0.00075560  0.00000698  0.0001271 0.0000
 23   -737.1720749896  -0.000000302983 0.00058994  0.00000514  0.0000734 0.0000
 24   -737.1720751334  -0.000000143792 0.00033703  0.00000314  0.0000478 0.0000
 25   -737.1720751717  -0.000000038331 0.00018045  0.00000160  0.0000161 0.0000
 26   -737.1720751663   0.000000005433 0.00003535  0.00000035  0.0000090 0.0000
 27   -737.1720751677  -0.000000001384 0.00000996  0.00000014  0.0000043 0.0000
                 **** Energy Check signals convergence ****

               *****************************************************
               *                     SUCCESS                       *
               *           SCF CONVERGED AFTER  28 CYCLES          *
               *****************************************************

Old exchange energy                            =    -37.412461749 Eh
New exchange energy                            =    -37.412601738 Eh
Exchange energy change after final integration =     -0.000139989 Eh
Total energy after final integration           =   -737.172215166 Eh
Final COS-X integration done in                =    17.604 sec

----------------
TOTAL SCF ENERGY
----------------

Total Energy       :         -737.17221517 Eh          -20059.47578 eV

Components:
Nuclear Repulsion  :          934.92085996 Eh           25440.48997 eV
Electronic Energy  :        -1672.09307513 Eh          -45499.96575 eV
One Electron Energy:        -2916.41720992 Eh          -79359.74685 eV
Two Electron Energy:         1244.32413480 Eh           33859.78111 eV
Max COSX asymmetry :            0.00004986 Eh               0.00136 eV

Virial components:
Potential Energy   :        -1390.32971660 Eh          -37832.79497 eV
Kinetic Energy     :          653.15750143 Eh           17773.31919 eV
Virial Ratio       :            2.12862857


DFT components:
N(Alpha)           :       53.000146993282 electrons
N(Beta)            :       53.000146993282 electrons
N(Total)           :      106.000293986564 electrons
E(X)               :      -49.991875922765 Eh       
E(C)               :       -4.849346016530 Eh       
E(XC)              :      -54.841221939295 Eh       
DFET-embed. en.    :        0.000000000000 Eh       

---------------
SCF CONVERGENCE
---------------

  Last Energy change         ...   -9.2818e-09  Tolerance :   1.0000e-08
  Last MAX-Density change    ...    0.0000e+00  Tolerance :   1.0000e-07
  Last RMS-Density change    ...    0.0000e+00  Tolerance :   5.0000e-09
  Last DIIS Error            ...    3.0437e-06  Tolerance :   5.0000e-07

             **** THE GBW FILE WAS UPDATED (1_11_orca.gbw) ****
             **** DENSITY 1_11_orca.scfp WAS UPDATED ****
             **** ENERGY FILE WAS UPDATED (1_11_orca.en.tmp) ****
             **** THE GBW FILE WAS UPDATED (1_11_orca.gbw) ****
             **** DENSITY 1_11_orca.scfp WAS UPDATED ****
----------------
ORBITAL ENERGIES
----------------

  NO   OCC          E(Eh)            E(eV) 
   0   2.0000     -19.540983      -531.7372 
   1   2.0000     -19.539742      -531.7034 
   2   2.0000     -19.534860      -531.5706 
   3   2.0000     -19.524346      -531.2845 
   4   2.0000     -10.599764      -288.4343 
   5   2.0000     -10.591423      -288.2073 
   6   2.0000     -10.449561      -284.3470 
   7   2.0000     -10.447139      -284.2811 
   8   2.0000     -10.446728      -284.2699 
   9   2.0000     -10.446026      -284.2508 
  10   2.0000     -10.445156      -284.2271 
  11   2.0000     -10.444777      -284.2168 
  12   2.0000      -3.697492      -100.6139 
  13   2.0000      -2.352198       -64.0066 
  14   2.0000      -2.337579       -63.6088 
  15   2.0000      -2.305110       -62.7252 
  16   2.0000      -1.245592       -33.8943 
  17   2.0000      -1.231151       -33.5013 
  18   2.0000      -1.126876       -30.6639 
  19   2.0000      -1.117608       -30.4117 
  20   2.0000      -0.963321       -26.2133 
  21   2.0000      -0.842567       -22.9274 
  22   2.0000      -0.841893       -22.9091 
  23   2.0000      -0.710365       -19.3300 
  24   2.0000      -0.694902       -18.9093 
  25   2.0000      -0.684218       -18.6185 
  26   2.0000      -0.682420       -18.5696 
  27   2.0000      -0.604877       -16.4595 
  28   2.0000      -0.598967       -16.2987 
  29   2.0000      -0.586298       -15.9540 
  30   2.0000      -0.579547       -15.7703 
  31   2.0000      -0.555818       -15.1246 
  32   2.0000      -0.545763       -14.8510 
  33   2.0000      -0.531839       -14.4721 
  34   2.0000      -0.523559       -14.2468 
  35   2.0000      -0.515426       -14.0255 
  36   2.0000      -0.485083       -13.1998 
  37   2.0000      -0.483804       -13.1650 
  38   2.0000      -0.456120       -12.4117 
  39   2.0000      -0.436519       -11.8783 
  40   2.0000      -0.428142       -11.6503 
  41   2.0000      -0.418868       -11.3980 
  42   2.0000      -0.403362       -10.9760 
  43   2.0000      -0.398672       -10.8484 
  44   2.0000      -0.394198       -10.7267 
  45   2.0000      -0.389468       -10.5980 
  46   2.0000      -0.383247       -10.4287 
  47   2.0000      -0.375068       -10.2061 
  48   2.0000      -0.352610        -9.5950 
  49   2.0000      -0.340739        -9.2720 
  50   2.0000      -0.334195        -9.0939 
  51   2.0000      -0.296067        -8.0564 
  52   2.0000      -0.291649        -7.9362 
  53   0.0000      -0.094395        -2.5686 
  54   0.0000       0.011134         0.3030 
  55   0.0000       0.016751         0.4558 
  56   0.0000       0.017960         0.4887 
  57   0.0000       0.026128         0.7110 
  58   0.0000       0.052738         1.4351 
  59   0.0000       0.073064         1.9882 
  60   0.0000       0.086477         2.3532 
  61   0.0000       0.094605         2.5743 
  62   0.0000       0.145329         3.9546 
  63   0.0000       0.170750         4.6463 
  64   0.0000       0.181059         4.9269 
  65   0.0000       0.192556         5.2397 
  66   0.0000       0.204353         5.5607 
  67   0.0000       0.207704         5.6519 
  68   0.0000       0.224065         6.0971 
  69   0.0000       0.230656         6.2765 
  70   0.0000       0.243252         6.6192 
  71   0.0000       0.254451         6.9240 
  72   0.0000       0.299554         8.1513 
  73   0.0000       0.301654         8.2084 
  74   0.0000       0.321471         8.7477 
  75   0.0000       0.333921         9.0864 
  76   0.0000       0.337856         9.1935 
  77   0.0000       0.340417         9.2632 
  78   0.0000       0.353515         9.6196 
  79   0.0000       0.403896        10.9906 
  80   0.0000       0.416844        11.3429 
  81   0.0000       0.423980        11.5371 
  82   0.0000       0.446044        12.1375 
  83   0.0000       0.456042        12.4095 
  84   0.0000       0.474343        12.9075 
  85   0.0000       0.493249        13.4220 
  86   0.0000       0.521964        14.2034 
  87   0.0000       0.537912        14.6373 
  88   0.0000       0.554345        15.0845 
  89   0.0000       0.573222        15.5982 
  90   0.0000       0.579924        15.7805 
  91   0.0000       0.596901        16.2425 
  92   0.0000       0.599723        16.3193 
  93   0.0000       0.603746        16.4288 
  94   0.0000       0.617427        16.8010 
  95   0.0000       0.623537        16.9673 
  96   0.0000       0.628998        17.1159 
  97   0.0000       0.640182        17.4202 
  98   0.0000       0.644602        17.5405 
  99   0.0000       0.652460        17.7543 
 100   0.0000       0.662705        18.0331 
 101   0.0000       0.686025        18.6677 
 102   0.0000       0.703022        19.1302 
 103   0.0000       0.711484        19.3605 
 104   0.0000       0.738690        20.1008 
 105   0.0000       0.756573        20.5874 
 106   0.0000       0.766490        20.8573 
 107   0.0000       0.772163        21.0116 
 108   0.0000       0.809432        22.0258 
 109   0.0000       0.827371        22.5139 
 110   0.0000       0.846755        23.0414 
 111   0.0000       0.898492        24.4492 
 112   0.0000       0.933163        25.3926 
 113   0.0000       0.937888        25.5212 
 114   0.0000       0.941545        25.6207 
 115   0.0000       0.956947        26.0398 
 116   0.0000       0.966343        26.2955 
 117   0.0000       0.975646        26.5487 
 118   0.0000       0.983285        26.7566 
 119   0.0000       1.011143        27.5146 
 120   0.0000       1.027678        27.9646 
 121   0.0000       1.043678        28.3999 
 122   0.0000       1.054381        28.6912 
 123   0.0000       1.070404        29.1272 
 124   0.0000       1.077662        29.3247 
 125   0.0000       1.085176        29.5291 
 126   0.0000       1.099284        29.9130 
 127   0.0000       1.108984        30.1770 
 128   0.0000       1.124516        30.5996 
 129   0.0000       1.131909        30.8008 
 130   0.0000       1.155677        31.4476 
 131   0.0000       1.166315        31.7370 
 132   0.0000       1.178891        32.0792 
 133   0.0000       1.202238        32.7145 
 134   0.0000       1.213551        33.0224 
 135   0.0000       1.250801        34.0360 
 136   0.0000       1.292864        35.1806 
 137   0.0000       1.314597        35.7720 
 138   0.0000       1.325281        36.0627 
 139   0.0000       1.380308        37.5601 
 140   0.0000       1.415386        38.5146 
 141   0.0000       1.443922        39.2911 
 142   0.0000       1.452663        39.5290 
 143   0.0000       1.470212        40.0065 
 144   0.0000       1.494686        40.6725 
 145   0.0000       1.514714        41.2175 
 146   0.0000       1.542713        41.9794 
 147   0.0000       1.544913        42.0392 
 148   0.0000       1.569170        42.6993 
 149   0.0000       1.574389        42.8413 
 150   0.0000       1.596772        43.4504 
 151   0.0000       1.604746        43.6674 
 152   0.0000       1.772856        48.2419 
 153   0.0000       1.782904        48.5153 
 154   0.0000       1.807972        49.1974 
 155   0.0000       1.822989        49.6060 
 156   0.0000       1.827230        49.7215 
 157   0.0000       1.833084        49.8808 
 158   0.0000       1.839636        50.0591 
 159   0.0000       1.853433        50.4345 
 160   0.0000       1.892323        51.4927 
 161   0.0000       1.900425        51.7132 
 162   0.0000       1.934479        52.6398 
 163   0.0000       1.975668        53.7606 
 164   0.0000       1.995409        54.2978 
 165   0.0000       2.005824        54.5813 
 166   0.0000       2.032604        55.3100 
 167   0.0000       2.045935        55.6727 
 168   0.0000       2.053793        55.8866 
 169   0.0000       2.061368        56.0927 
 170   0.0000       2.067377        56.2562 
 171   0.0000       2.086259        56.7700 
 172   0.0000       2.170667        59.0669 
 173   0.0000       2.177519        59.2533 
 174   0.0000       2.194795        59.7234 
 175   0.0000       2.211105        60.1672 
 176   0.0000       2.221796        60.4581 
 177   0.0000       2.224765        60.5389 
 178   0.0000       2.229694        60.6731 
 179   0.0000       2.266341        61.6703 
 180   0.0000       2.309173        62.8358 
 181   0.0000       2.389088        65.0104 
 182   0.0000       2.394123        65.1474 
 183   0.0000       2.401761        65.3552 
 184   0.0000       2.407663        65.5158 
 185   0.0000       2.418019        65.7976 
 186   0.0000       2.424152        65.9645 
 187   0.0000       2.434396        66.2433 
 188   0.0000       2.453620        66.7664 
 189   0.0000       2.487350        67.6842 
 190   0.0000       2.522865        68.6506 
 191   0.0000       2.531089        68.8744 
 192   0.0000       2.578219        70.1569 
 193   0.0000       2.593982        70.5858 
 194   0.0000       2.598748        70.7155 
 195   0.0000       2.652477        72.1776 
 196   0.0000       2.662409        72.4478 
 197   0.0000       2.692401        73.2640 
 198   0.0000       2.728587        74.2486 
 199   0.0000       2.744005        74.6682 
 200   0.0000       2.760192        75.1086 
 201   0.0000       2.829578        76.9967 
 202   0.0000       2.843160        77.3663 
 203   0.0000       2.848381        77.5084 
 204   0.0000       2.864803        77.9553 
 205   0.0000       2.871888        78.1480 
 206   0.0000       2.929082        79.7044 
 207   0.0000       2.949172        80.2511 
 208   0.0000       2.966907        80.7337 
 209   0.0000       2.994021        81.4715 
 210   0.0000       3.076541        83.7169 
 211   0.0000       3.105882        84.5153 
 212   0.0000       3.138511        85.4032 
 213   0.0000       3.490450        94.9800 
 214   0.0000      13.287493       361.5711 
 215   0.0000      13.657667       371.6440 
 216   0.0000      13.690425       372.5354 
 217   0.0000      13.846090       376.7713 
 218   0.0000      13.912426       378.5764 
 219   0.0000      14.141141       384.8000 
 220   0.0000      14.164695       385.4409 
 221   0.0000      14.587913       396.9573 
 222   0.0000      25.509623       694.1521 
 223   0.0000      25.654799       698.1026 
 224   0.0000      25.659871       698.2406 
 225   0.0000      25.772149       701.2958 
 226   0.0000      51.650816      1405.4902 

                    ********************************
                    * MULLIKEN POPULATION ANALYSIS *
                    ********************************

-----------------------
MULLIKEN ATOMIC CHARGES
-----------------------
   0 C :   -0.196956
   1 C :   -0.235086
   2 C :   -0.207735
   3 C :   -0.234201
   4 C :   -0.305022
   5 C :   -0.195447
   6 H :    0.227074
   7 H :    0.221317
   8 H :    0.220802
   9 H :    0.237636
  10 H :    0.220563
  11 Pd:    0.554587
  12 O :   -0.448882
  13 O :   -0.461302
  14 O :   -0.473402
  15 C :    0.408202
  16 O :   -0.442584
  17 H :    0.254485
  18 C :    0.437656
  19 H :    0.213824
  20 H :    0.204470
Sum of atomic charges:   -0.0000000

--------------------------------
MULLIKEN REDUCED ORBITAL CHARGES
--------------------------------
  0 C s       :     3.236787  s :     3.236787
      pz      :     0.918618  p :     2.919624
      px      :     0.991220
      py      :     1.009786
      dz2     :     0.010597  d :     0.040545
      dxz     :     0.006813
      dyz     :     0.010588
      dx2y2   :     0.006371
      dxy     :     0.006176
  1 C s       :     3.245546  s :     3.245546
      pz      :     1.034264  p :     2.948727
      px      :     1.000776
      py      :     0.913687
      dz2     :     0.008714  d :     0.040813
      dxz     :     0.007036
      dyz     :     0.010712
      dx2y2   :     0.006973
      dxy     :     0.007377
  2 C s       :     3.240170  s :     3.240170
      pz      :     0.988484  p :     2.926939
      px      :     0.968944
      py      :     0.969511
      dz2     :     0.007598  d :     0.040625
      dxz     :     0.005394
      dyz     :     0.013260
      dx2y2   :     0.007813
      dxy     :     0.006560
  3 C s       :     3.247431  s :     3.247431
      pz      :     0.917071  p :     2.945911
      px      :     0.981814
      py      :     1.047026
      dz2     :     0.010826  d :     0.040859
      dxz     :     0.006978
      dyz     :     0.009360
      dx2y2   :     0.006123
      dxy     :     0.007572
  4 C s       :     3.262833  s :     3.262833
      pz      :     1.019276  p :     3.000521
      px      :     0.959504
      py      :     1.021740
      dz2     :     0.009208  d :     0.041668
      dxz     :     0.005972
      dyz     :     0.013536
      dx2y2   :     0.007126
      dxy     :     0.005826
  5 C s       :     3.234603  s :     3.234603
      pz      :     1.011028  p :     2.920215
      px      :     0.985742
      py      :     0.923445
      dz2     :     0.008016  d :     0.040629
      dxz     :     0.007907
      dyz     :     0.009996
      dx2y2   :     0.007262
      dxy     :     0.007448
  6 H s       :     0.772926  s :     0.772926
  7 H s       :     0.778683  s :     0.778683
  8 H s       :     0.779198  s :     0.779198
  9 H s       :     0.762364  s :     0.762364
 10 H s       :     0.779437  s :     0.779437
 11 Pds       :     2.509937  s :     2.509937
      pz      :     2.113655  p :     6.310001
      px      :     2.084896
      py      :     2.111450
      dz2     :     1.468559  d :     8.620229
      dxz     :     1.755241
      dyz     :     1.962314
      dx2y2   :     1.820911
      dxy     :     1.613203
      f0      :     0.000387  f :     0.005245
      f+1     :     0.001092
      f-1     :     0.000962
      f+2     :     0.000378
      f-2     :     0.000450
      f+3     :     0.001413
      f-3     :     0.000563
 12 O s       :     3.819771  s :     3.819771
      pz      :     1.616196  p :     4.597586
      px      :     1.575063
      py      :     1.406327
      dz2     :     0.005663  d :     0.031525
      dxz     :     0.004885
      dyz     :     0.007758
      dx2y2   :     0.007647
      dxy     :     0.005573
 13 O s       :     3.818948  s :     3.818948
      pz      :     1.417322  p :     4.610678
      px      :     1.559230
      py      :     1.634126
      dz2     :     0.010390  d :     0.031676
      dxz     :     0.006395
      dyz     :     0.006789
      dx2y2   :     0.003546
      dxy     :     0.004555
 14 O s       :     3.820021  s :     3.820021
      pz      :     1.395562  p :     4.622076
      px      :     1.599925
      py      :     1.626590
      dz2     :     0.011632  d :     0.031305
      dxz     :     0.007824
      dyz     :     0.006996
      dx2y2   :     0.002339
      dxy     :     0.002514
 15 C s       :     3.060649  s :     3.060649
      pz      :     0.784737  p :     2.394430
      px      :     0.781363
      py      :     0.828330
      dz2     :     0.042391  d :     0.136719
      dxz     :     0.030631
      dyz     :     0.037015
      dx2y2   :     0.010433
      dxy     :     0.016248
 16 O s       :     3.811169  s :     3.811169
      pz      :     1.605595  p :     4.601839
      px      :     1.545410
      py      :     1.450834
      dz2     :     0.005769  d :     0.029576
      dxz     :     0.006192
      dyz     :     0.007967
      dx2y2   :     0.005561
      dxy     :     0.004087
 17 H s       :     0.745515  s :     0.745515
 18 C s       :     3.057591  s :     3.057591
      pz      :     0.775631  p :     2.368629
      px      :     0.808021
      py      :     0.784977
      dz2     :     0.031573  d :     0.136124
      dxz     :     0.023984
      dyz     :     0.035001
      dx2y2   :     0.020440
      dxy     :     0.025126
 19 H s       :     0.786176  s :     0.786176
 20 H s       :     0.795530  s :     0.795530


                     *******************************
                     * LOEWDIN POPULATION ANALYSIS *
                     *******************************

----------------------
LOEWDIN ATOMIC CHARGES
----------------------
   0 C :   -0.127234
   1 C :   -0.124752
   2 C :   -0.136008
   3 C :   -0.122629
   4 C :   -0.125726
   5 C :   -0.119932
   6 H :    0.145698
   7 H :    0.135626
   8 H :    0.138163
   9 H :    0.150181
  10 H :    0.135824
  11 Pd:   -0.107461
  12 O :   -0.131716
  13 O :   -0.136122
  14 O :   -0.142504
  15 C :    0.155430
  16 O :   -0.165758
  17 H :    0.151744
  18 C :    0.177988
  19 H :    0.127921
  20 H :    0.121266

-------------------------------
LOEWDIN REDUCED ORBITAL CHARGES
-------------------------------
  0 C s       :     2.882808  s :     2.882808
      pz      :     1.079314  p :     3.151637
      px      :     1.003853
      py      :     1.068469
      dz2     :     0.026159  d :     0.092790
      dxz     :     0.016165
      dyz     :     0.026753
      dx2y2   :     0.011978
      dxy     :     0.011735
  1 C s       :     2.884504  s :     2.884504
      pz      :     1.064142  p :     3.147093
      px      :     1.001317
      py      :     1.081633
      dz2     :     0.019527  d :     0.093155
      dxz     :     0.012718
      dyz     :     0.027168
      dx2y2   :     0.017097
      dxy     :     0.016646
  2 C s       :     2.883525  s :     2.883525
      pz      :     1.064374  p :     3.159598
      px      :     1.018597
      py      :     1.076628
      dz2     :     0.017947  d :     0.092885
      dxz     :     0.012647
      dyz     :     0.029554
      dx2y2   :     0.017126
      dxy     :     0.015611
  3 C s       :     2.884255  s :     2.884255
      pz      :     1.069816  p :     3.145105
      px      :     1.007213
      py      :     1.068076
      dz2     :     0.025948  d :     0.093270
      dxz     :     0.016662
      dyz     :     0.023961
      dx2y2   :     0.012155
      dxy     :     0.014543
  4 C s       :     2.878157  s :     2.878157
      pz      :     1.077777  p :     3.152717
      px      :     1.002908
      py      :     1.072032
      dz2     :     0.021164  d :     0.094852
      dxz     :     0.014013
      dyz     :     0.030551
      dx2y2   :     0.015141
      dxy     :     0.013983
  5 C s       :     2.882396  s :     2.882396
      pz      :     1.062065  p :     3.144489
      px      :     1.009825
      py      :     1.072600
      dz2     :     0.018058  d :     0.093047
      dxz     :     0.014458
      dyz     :     0.025688
      dx2y2   :     0.017549
      dxy     :     0.017294
  6 H s       :     0.854302  s :     0.854302
  7 H s       :     0.864374  s :     0.864374
  8 H s       :     0.861837  s :     0.861837
  9 H s       :     0.849819  s :     0.849819
 10 H s       :     0.864176  s :     0.864176
 11 Pds       :     2.483035  s :     2.483035
      pz      :     2.196726  p :     6.617759
      px      :     2.191322
      py      :     2.229712
      dz2     :     1.569355  d :     8.999585
      dxz     :     1.829632
      dyz     :     2.000737
      dx2y2   :     1.883811
      dxy     :     1.716049
      f0      :     0.000465  f :     0.007082
      f+1     :     0.001588
      f-1     :     0.001376
      f+2     :     0.000500
      f-2     :     0.000478
      f+3     :     0.002019
      f-3     :     0.000655
 12 O s       :     3.471251  s :     3.471251
      pz      :     1.592843  p :     4.600501
      px      :     1.550560
      py      :     1.457099
      dz2     :     0.009892  d :     0.059963
      dxz     :     0.007835
      dyz     :     0.015632
      dx2y2   :     0.014555
      dxy     :     0.012050
 13 O s       :     3.463441  s :     3.463441
      pz      :     1.467103  p :     4.612130
      px      :     1.543285
      py      :     1.601743
      dz2     :     0.018433  d :     0.060550
      dxz     :     0.014532
      dyz     :     0.013311
      dx2y2   :     0.006728
      dxy     :     0.007547
 14 O s       :     3.461425  s :     3.461425
      pz      :     1.462215  p :     4.620001
      px      :     1.566555
      py      :     1.591231
      dz2     :     0.024898  d :     0.061078
      dxz     :     0.013757
      dyz     :     0.012931
      dx2y2   :     0.004887
      dxy     :     0.004606
 15 C s       :     2.855875  s :     2.855875
      pz      :     0.938515  p :     2.689077
      px      :     0.829674
      py      :     0.920887
      dz2     :     0.099104  d :     0.299619
      dxz     :     0.065613
      dyz     :     0.083054
      dx2y2   :     0.019334
      dxy     :     0.032514
 16 O s       :     3.486560  s :     3.486560
      pz      :     1.608387  p :     4.623051
      px      :     1.530187
      py      :     1.484477
      dz2     :     0.010411  d :     0.056147
      dxz     :     0.009819
      dyz     :     0.017270
      dx2y2   :     0.008923
      dxy     :     0.009724
 17 H s       :     0.848256  s :     0.848256
 18 C s       :     2.853584  s :     2.853584
      pz      :     0.891682  p :     2.671498
      px      :     0.877585
      py      :     0.902231
      dz2     :     0.068847  d :     0.296930
      dxz     :     0.051159
      dyz     :     0.080938
      dx2y2   :     0.043308
      dxy     :     0.052679
 19 H s       :     0.872079  s :     0.872079
 20 H s       :     0.878734  s :     0.878734


                      *****************************
                      * MAYER POPULATION ANALYSIS *
                      *****************************

  NA   - Mulliken gross atomic population
  ZA   - Total nuclear charge
  QA   - Mulliken gross atomic charge
  VA   - Mayer's total valence
  BVA  - Mayer's bonded valence
  FA   - Mayer's free valence

  ATOM       NA         ZA         QA         VA         BVA        FA
  0 C      6.1970     6.0000    -0.1970     3.7903     3.7903    -0.0000
  1 C      6.2351     6.0000    -0.2351     3.8394     3.8394    -0.0000
  2 C      6.2077     6.0000    -0.2077     3.8027     3.8027    -0.0000
  3 C      6.2342     6.0000    -0.2342     3.8350     3.8350     0.0000
  4 C      6.3050     6.0000    -0.3050     3.8065     3.8065    -0.0000
  5 C      6.1954     6.0000    -0.1954     3.8107     3.8107    -0.0000
  6 H      0.7729     1.0000     0.2271     0.9120     0.9120    -0.0000
  7 H      0.7787     1.0000     0.2213     0.9096     0.9096    -0.0000
  8 H      0.7792     1.0000     0.2208     0.9103     0.9103    -0.0000
  9 H      0.7624     1.0000     0.2376     0.9060     0.9060    -0.0000
 10 H      0.7794     1.0000     0.2206     0.9099     0.9099     0.0000
 11 Pd    17.4454    18.0000     0.5546     2.3428     2.3428    -0.0000
 12 O      8.4489     8.0000    -0.4489     2.2071     2.2071     0.0000
 13 O      8.4613     8.0000    -0.4613     2.1938     2.1938     0.0000
 14 O      8.4734     8.0000    -0.4734     2.1804     2.1804    -0.0000
 15 C      5.5918     6.0000     0.4082     3.8687     3.8687    -0.0000
 16 O      8.4426     8.0000    -0.4426     2.1916     2.1916     0.0000
 17 H      0.7455     1.0000     0.2545     0.9042     0.9042     0.0000
 18 C      5.5623     6.0000     0.4377     3.8251     3.8251     0.0000
 19 H      0.7862     1.0000     0.2138     0.9096     0.9096    -0.0000
 20 H      0.7955     1.0000     0.2045     0.9118     0.9118    -0.0000

  Mayer bond orders larger than 0.100000
B(  0-C ,  1-C ) :   1.4297 B(  0-C ,  4-C ) :   1.4017 B(  0-C ,  6-H ) :   0.9166 
B(  1-C ,  2-C ) :   1.4254 B(  1-C ,  7-H ) :   0.9186 B(  2-C ,  3-C ) :   1.4272 
B(  2-C ,  8-H ) :   0.9210 B(  3-C ,  5-C ) :   1.4254 B(  3-C , 10-H ) :   0.9191 
B(  4-C ,  5-C ) :   1.4268 B(  4-C , 17-H ) :   0.8941 B(  5-C ,  9-H ) :   0.9127 
B( 11-Pd, 12-O ) :   0.5835 B( 11-Pd, 13-O ) :   0.5781 B( 11-Pd, 14-O ) :   0.6249 
B( 11-Pd, 16-O ) :   0.4414 B( 12-O , 13-O ) :   0.1138 B( 12-O , 18-C ) :   1.4661 
B( 13-O , 18-C ) :   1.4415 B( 14-O , 15-C ) :   1.3802 B( 14-O , 16-O ) :   0.1090 
B( 15-C , 16-O ) :   1.5766 B( 15-C , 20-H ) :   0.8863 B( 18-C , 19-H ) :   0.8892 



------------------
HIRSHFELD ANALYSIS
------------------

Total integrated alpha density =     53.000146993
Total integrated beta density  =     53.000146993

  ATOM     CHARGE      SPIN    
   0 C   -0.047557    0.000000
   1 C   -0.043176    0.000000
   2 C   -0.043728    0.000000
   3 C   -0.040460    0.000000
   4 C   -0.055093    0.000000
   5 C   -0.041534    0.000000
   6 H    0.046296    0.000000
   7 H    0.041448    0.000000
   8 H    0.046040    0.000000
   9 H    0.051197    0.000000
  10 H    0.042156    0.000000
  11 Pd   0.641268    0.000000
  12 O   -0.287811    0.000000
  13 O   -0.294122    0.000000
  14 O   -0.298673    0.000000
  15 C    0.196771    0.000000
  16 O   -0.300259    0.000000
  17 H    0.031186    0.000000
  18 C    0.204325    0.000000
  19 H    0.079268    0.000000
  20 H    0.072161    0.000000

  TOTAL  -0.000294    0.000000

-------
TIMINGS
-------

Total SCF time: 0 days 0 hours 3 min 17 sec 

Total time                  ....     197.287 sec
Sum of individual times     ....     196.839 sec  ( 99.8%)

Fock matrix formation       ....     193.530 sec  ( 98.1%)
  Split-RI-J                ....      19.436 sec  ( 10.0% of F)
  Chain of spheres X        ....     150.658 sec  ( 77.8% of F)
  XC integration            ....      22.533 sec  ( 11.6% of F)
    Basis function eval.    ....       9.221 sec  ( 40.9% of XC)
    Density eval.           ....       5.039 sec  ( 22.4% of XC)
    XC-Functional eval.     ....       2.046 sec  (  9.1% of XC)
    XC-Potential eval.      ....       5.424 sec  ( 24.1% of XC)
Diagonalization             ....       0.243 sec  (  0.1%)
Density matrix formation    ....       0.031 sec  (  0.0%)
Population analysis         ....       0.579 sec  (  0.3%)
Initial guess               ....       0.024 sec  (  0.0%)
Orbital Transformation      ....       0.000 sec  (  0.0%)
Orbital Orthonormalization  ....       0.000 sec  (  0.0%)
DIIS solution               ....       0.085 sec  (  0.0%)
Grid generation             ....       2.348 sec  (  1.2%)

Maximum memory used throughout the entire SCF-calculation: 111.7 MB


-------------------------------------------------------------------------------
                          DFT DISPERSION CORRECTION                            
                                                                               
                              DFTD3 V3.1  Rev 1                                
                          USING Becke-Johnson damping                          
-------------------------------------------------------------------------------
The PBEh-3c composite method is recognized
Using three-body term ABC
Active option DFTDOPT                   ...         4   

molecular C6(AA) [au] = 6748.796690 


            DFT-D V3
 parameters
 s6 scaling factor         :     1.0000 
 a1 scaling factor         :     0.4860 
 s8 scaling factor         :     0.0000 
 a2 scaling factor         :     4.5000 
 Damping factor alpha9(ATM):    16.0000 
 ad hoc parameters k1-k3   :    16.0000     1.3333    -4.0000 

 Edisp/kcal,au: -8.248405780312  -0.013144669908 
 E6   /kcal   :  -8.340198648 
 E8   /kcal   :  -0.000000000 
 E6(ABC)      :   0.091792868 
 % E8         :   0.000000000 
 % E6(ABC)    :  -1.112855870 

-------------------------   ----------------
Dispersion correction           -0.013144670
-------------------------   ----------------

 ** NOTE ** -> element pd will be treated as ni
------------------   -----------------
gCP correction             0.049007197
------------------   -----------------

-------------------------   --------------------
FINAL SINGLE POINT ENERGY      -737.136352638899
-------------------------   --------------------

------------------------------------------------------------------------------
                         ORCA SCF GRADIENT CALCULATION
------------------------------------------------------------------------------

 ... reading COSX grid (gridx3)
Gradient of the Kohn-Sham DFT energy:
Kohn-Sham wavefunction type      ... RKS
Hartree-Fock exchange scaling    ...    0.420
Number of operators              ...    1
Number of atoms                  ...   21
Basis set dimensions             ...  227
Integral neglect threshold       ... 2.5e-11
Integral primitive cutoff        ... 2.5e-12
SHARK Integral package           ... ON

Nuc. rep. gradient       (SHARK) ... done (  0.0 sec)
HCore & Overlap gradient (SHARK) ... done (  0.4 sec)
ECP gradient             (SHARK) ... done (  1.0 sec)
RI-J gradient            (SHARK) ... done (  2.7 sec)
COSX-gradient                    ... done ( 21.7 sec)
Exchange-correlation gradient    ... done
Dispersion correction            ... done
gCP correction                   ... done

------------------
CARTESIAN GRADIENT
------------------

   1   C   :    0.001635654    0.004309774    0.010595197
   2   C   :    0.005475229   -0.008867061    0.006533654
   3   C   :   -0.000964348   -0.003710274   -0.004056991
   4   C   :   -0.007244925    0.005943819   -0.007573845
   5   C   :    0.003022090   -0.016601481   -0.023963300
   6   C   :   -0.000975301    0.009142736    0.004914063
   7   H   :   -0.000152832    0.007268177   -0.005489668
   8   H   :    0.004408014    0.000885262    0.008717244
   9   H   :   -0.000966575    0.004052754    0.006424164
  10   H   :    0.006974665   -0.001944015    0.002816035
  11   H   :   -0.003233139    0.009513256    0.002327920
  12   Pd  :    0.003694233   -0.002630869   -0.007894326
  13   O   :    0.006216387    0.001816053    0.003513875
  14   O   :   -0.002687686   -0.001994775   -0.002589910
  15   O   :   -0.002124855   -0.005354289   -0.003324621
  16   C   :   -0.001754859   -0.007096548    0.007233235
  17   O   :   -0.003767509    0.004753488    0.003717466
  18   H   :   -0.003681353   -0.004864985   -0.000361079
  19   C   :   -0.001768712   -0.004721939   -0.004440867
  20   H   :    0.000847669    0.003088391    0.002255906
  21   H   :   -0.002425213    0.004282221   -0.000086179

Difference to translation invariance:
           :    0.0005266337   -0.0027303062   -0.0007320266

Difference to rotation invariance:
           :    0.0003897187   -0.0022292539   -0.0030073312

Norm of the cartesian gradient     ...    0.0480741078
RMS gradient                       ...    0.0060567683
MAX gradient                       ...    0.0239633001

-------
TIMINGS
-------

Total SCF gradient time            ...       31.263 sec

One electron gradient       ....       1.477 sec  (  4.7%)
RI-J Coulomb gradient       ....       2.724 sec  (  8.7%)
COSX gradient               ....      21.718 sec  ( 69.5%)
XC gradient                 ....       4.514 sec  ( 14.4%)

Maximum memory used throughout the entire SCFGRAD-calculation: 83.4 MB

                            ***************************************
                            *     ORCA property calculations      *
                            ***************************************

                                    ---------------------
                                    Active property flags
                                    ---------------------
   (+) Dipole Moment


------------------------------------------------------------------------------
                       ORCA ELECTRIC PROPERTIES CALCULATION
------------------------------------------------------------------------------

Dipole Moment Calculation                       ... on
Quadrupole Moment Calculation                   ... off
Polarizability Calculation                      ... off
GBWName                                         ... 1_11_orca.gbw
Electron density                                ... 1_11_orca.scfp
The origin for moment calculation is the CENTER OF MASS  = ( 1.451710,  1.227792  0.099754)

-------------
DIPOLE MOMENT
-------------
                                X             Y             Z
Electronic contribution:     58.81129      48.69295       3.48611
Nuclear contribution   :    -58.81108     -48.97593      -3.65467
                        -----------------------------------------
Total Dipole Moment    :      0.00021      -0.28299      -0.16856
                        -----------------------------------------
Magnitude (a.u.)       :      0.32938
Magnitude (Debye)      :      0.83722



--------------------
Rotational spectrum 
--------------------
 
Rotational constants in cm-1:     0.029279     0.018051     0.013846 
Rotational constants in MHz :   877.762555   541.164446   415.100586 

 Dipole components along the rotational axes: 
x,y,z [a.u.] :    -0.207665    -0.251558    -0.045678 
x,y,z [Debye]:    -0.527842    -0.639411    -0.116103 

 

Timings for individual modules:

Sum of individual times         ...      229.125 sec (=   3.819 min)
GTO integral calculation        ...        0.534 sec (=   0.009 min)   0.2 %
SCF iterations                  ...      197.307 sec (=   3.288 min)  86.1 %
SCF Gradient evaluation         ...       31.284 sec (=   0.521 min)  13.7 %
                             ****ORCA TERMINATED NORMALLY****
TOTAL RUN TIME: 0 days 0 hours 3 minutes 49 seconds 428 msec
