
                                 *****************
                                 * O   R   C   A *
                                 *****************

                                            #,                                       
                                            ###                                      
                                            ####                                     
                                            #####                                    
                                            ######                                   
                                           ########,                                 
                                     ,,################,,,,,                         
                               ,,#################################,,                 
                          ,,##########################################,,             
                       ,#########################################, ''#####,          
                    ,#############################################,,   '####,        
                  ,##################################################,,,,####,       
                ,###########''''           ''''###############################       
              ,#####''   ,,,,##########,,,,          '''####'''          '####       
            ,##' ,,,,###########################,,,                        '##       
           ' ,,###''''                  '''############,,,                           
         ,,##''                                '''############,,,,        ,,,,,,###''
      ,#''                                            '''#######################'''  
     '                                                          ''''####''''         
             ,#######,   #######,   ,#######,      ##                                
            ,#'     '#,  ##    ##  ,#'     '#,    #''#        ######   ,####,        
            ##       ##  ##   ,#'  ##            #'  '#       #        #'  '#        
            ##       ##  #######   ##           ,######,      #####,   #    #        
            '#,     ,#'  ##    ##  '#,     ,#' ,#      #,         ##   #,  ,#        
             '#######'   ##     ##  '#######'  #'      '#     #####' # '####'        



                  #######################################################
                  #                        -***-                        #
                  #          Department of theory and spectroscopy      #
                  #    Directorship and core code : Frank Neese         #
                  #        Max Planck Institute fuer Kohlenforschung    #
                  #                Kaiser Wilhelm Platz 1               #
                  #                 D-45470 Muelheim/Ruhr               #
                  #                      Germany                        #
                  #                                                     #
                  #                  All rights reserved                #
                  #                        -***-                        #
                  #######################################################


                         Program Version 5.0.3 -  RELEASE  -


 With contributions from (in alphabetic order):
   Daniel Aravena         : Magnetic Suceptibility
   Michael Atanasov       : Ab Initio Ligand Field Theory (pilot matlab implementation)
   Alexander A. Auer      : GIAO ZORA, VPT2 properties, NMR spectrum
   Ute Becker             : Parallelization
   Giovanni Bistoni       : ED, misc. LED, open-shell LED, HFLD
   Martin Brehm           : Molecular dynamics
   Dmytro Bykov           : SCF Hessian
   Vijay G. Chilkuri      : MRCI spin determinant printing, contributions to CSF-ICE
   Dipayan Datta          : RHF DLPNO-CCSD density
   Achintya Kumar Dutta   : EOM-CC, STEOM-CC
   Dmitry Ganyushin       : Spin-Orbit,Spin-Spin,Magnetic field MRCI
   Miquel Garcia          : C-PCM and meta-GGA Hessian, CC/C-PCM, Gaussian charge scheme
   Yang Guo               : DLPNO-NEVPT2, F12-NEVPT2, CIM, IAO-localization
   Andreas Hansen         : Spin unrestricted coupled pair/coupled cluster methods
   Benjamin Helmich-Paris : MC-RPA, TRAH-SCF, COSX integrals
   Lee Huntington         : MR-EOM, pCC
   Robert Izsak           : Overlap fitted RIJCOSX, COSX-SCS-MP3, EOM
   Marcus Kettner         : VPT2
   Christian Kollmar      : KDIIS, OOCD, Brueckner-CCSD(T), CCSD density, CASPT2, CASPT2-K
   Simone Kossmann        : Meta GGA functionals, TD-DFT gradient, OOMP2, MP2 Hessian
   Martin Krupicka        : Initial AUTO-CI
   Lucas Lang             : DCDCAS
   Marvin Lechner         : AUTO-CI (C++ implementation), FIC-MRCC
   Dagmar Lenk            : GEPOL surface, SMD
   Dimitrios Liakos       : Extrapolation schemes; Compound Job, initial MDCI parallelization
   Dimitrios Manganas     : Further ROCIS development; embedding schemes
   Dimitrios Pantazis     : SARC Basis sets
   Anastasios Papadopoulos: AUTO-CI, single reference methods and gradients
   Taras Petrenko         : DFT Hessian,TD-DFT gradient, ASA, ECA, R-Raman, ABS, FL, XAS/XES, NRVS
   Peter Pinski           : DLPNO-MP2, DLPNO-MP2 Gradient
   Christoph Reimann      : Effective Core Potentials
   Marius Retegan         : Local ZFS, SOC
   Christoph Riplinger    : Optimizer, TS searches, QM/MM, DLPNO-CCSD(T), (RO)-DLPNO pert. Triples
   Tobias Risthaus        : Range-separated hybrids, TD-DFT gradient, RPA, STAB
   Michael Roemelt        : Original ROCIS implementation
   Masaaki Saitow         : Open-shell DLPNO-CCSD energy and density
   Barbara Sandhoefer     : DKH picture change effects
   Avijit Sen             : IP-ROCIS
   Kantharuban Sivalingam : CASSCF convergence, NEVPT2, FIC-MRCI
   Bernardo de Souza      : ESD, SOC TD-DFT
   Georgi Stoychev        : AutoAux, RI-MP2 NMR, DLPNO-MP2 response
   Willem Van den Heuvel  : Paramagnetic NMR
   Boris Wezisla          : Elementary symmetry handling
   Frank Wennmohs         : Technical directorship


 We gratefully acknowledge several colleagues who have allowed us to
 interface, adapt or use parts of their codes:
   Stefan Grimme, W. Hujo, H. Kruse, P. Pracht,  : VdW corrections, initial TS optimization,
                  C. Bannwarth, S. Ehlert          DFT functionals, gCP, sTDA/sTD-DF
   Ed Valeev, F. Pavosevic, A. Kumar             : LibInt (2-el integral package), F12 methods
   Garnet Chan, S. Sharma, J. Yang, R. Olivares  : DMRG
   Ulf Ekstrom                                   : XCFun DFT Library
   Mihaly Kallay                                 : mrcc  (arbitrary order and MRCC methods)
   Jiri Pittner, Ondrej Demel                    : Mk-CCSD
   Frank Weinhold                                : gennbo (NPA and NBO analysis)
   Christopher J. Cramer and Donald G. Truhlar   : smd solvation model
   Lars Goerigk                                  : TD-DFT with DH, B97 family of functionals
   V. Asgeirsson, H. Jonsson                     : NEB implementation
   FAccTs GmbH                                   : IRC, NEB, NEB-TS, DLPNO-Multilevel, CI-OPT
                                                   MM, QMMM, 2- and 3-layer-ONIOM, Crystal-QMMM,
                                                   LR-CPCM, SF, NACMEs, symmetry and pop. for TD-DFT,
                                                   nearIR, NL-DFT gradient (VV10), updates on ESD,
                                                   ML-optimized integration grids
   S Lehtola, MJT Oliveira, MAL Marques          : LibXC Library
   Liviu Ungur et al                             : ANISO software


 Your calculation uses the libint2 library for the computation of 2-el integrals
 For citations please refer to: http://libint.valeyev.net

 Your ORCA version has been built with support for libXC version: 5.1.0
 For citations please refer to: https://tddft.org/programs/libxc/

 This ORCA versions uses:
   CBLAS   interface :  Fast vector & matrix operations
   LAPACKE interface :  Fast linear algebra routines
   SCALAPACK package :  Parallel linear algebra routines
   Shared memory     :  Shared parallel matrices
   BLAS/LAPACK       :  OpenBLAS 0.3.15  USE64BITINT DYNAMIC_ARCH NO_AFFINITY Prescott SINGLE_THREADED
        Core in use  :  Prescott
   Copyright (c) 2011-2014, The OpenBLAS Project


Your calculation utilizes the geometrical counterpoise correction gCP
Please cite in your paper:
H.Kruse, S. Grimme J.Chem.Phys., 136, (2012), 154101 
   

Your calculation utilizes the atom-pairwise dispersion correction
with the Becke-Johnson damping scheme (D3BJ)
Cite in your paper:
S.Grimme, S.Ehrlich, L.Goerigk, J Comput Chem, (2011), 32, 1456–1465 
S.Grimme, J.Antony, S.Ehrlich and H.Krieg, J.Chem.Phys., 132, (2010), 154104 
   

Your calculation employs the composite approach PBEh-3c.
Please cite in your paper:
S. Grimme, J. G. Brandenburg, C. Bannwarth, A. Hansen J.Chem.Phys., 143, (2015), 054107 
   

================================================================================

cite the ECPs for Pd [Def2-ECP] as follows:
Ce-Yb(ecp-28): M. Dolg, H. Stoll, H.Preuss, J. Chem. Phys., 1989, 90, 1730-1734.
Y-Cd(ecp-28), Hf-Hg(ecp-46): D. Andrae,U. Haeussermann, M. Dolg, H. Stoll, H. Preuss, Theor. Chim. Acta, 1990, 77, 123-141.
In-Sb(ecp-28), Tl-Bi(ecp-46): B. Metz, H. Stoll, M. Dolg, J. Chem. Phys., 2000, 113, 2563-2569.
Te-Xe(ecp-28), Po-Rn(ecp-46): K. A. Peterson, D. Figgen, E. Goll, H. Stoll, M. Dolg, J. Chem. Phys., 2003, 119, 11113-11123.
Rb(ecp-28), Cs(ecp-46): T. Leininger, A. Nicklass, W. Kuechle, H. Stoll, M. Dolg, A. Bergner, Chem. Phys. Lett., 1996, 255, 274-280.
Sr(ecp-28), Ba(ecp-46): M. Kaupp, P. V. Schleyer, H. Stoll and H. Preuss, J. Chem. Phys., 1991, 94, 1360-1366.
La(ecp-46): M. Dolg, H. Stoll, A. Savin, H. Preuss, Theor. Chim. Acta, 1989, 75, 173-194.
Lu(ecp-28): X. Cao, M. Dolg, J. Chem. Phys., 2001, 115, 7348-7355.

ECP parameters for Pd [Def2-ECP] have been obtained from:
TURBOMOLE (7.0.2)

----- Orbital basis set information -----
Your calculation utilizes the basis: def2-mSVP

----- AuxJ basis set information -----
Your calculation utilizes the auxiliary basis: def2/J
   F. Weigend, Phys. Chem. Chem. Phys. 8, 1057 (2006).

================================================================================
                                        WARNINGS
                       Please study these warnings very carefully!
================================================================================


INFO   : the flag for use of the SHARK integral package has been found!

================================================================================
                                       INPUT FILE
================================================================================
NAME = 4_16_orca.inp
|  1> ! EnGrad PBEh-3c
|  2> %output 
|  3> xyzfile=True 
|  4> end 
|  5> %scf 
|  6> maxiter 250 
|  7> end
|  8> %output
|  9> Print[P_Hirshfeld] = 1
| 10> end
| 11> % maxcore
| 12> 4000
| 13> *xyz -1 1
| 14> C   -2.15444249  -0.13759749   0.69295151 
| 15> C   -1.85555239   1.03450724   1.38784692 
| 16> C   -3.53513356  -0.44735131   0.68001447 
| 17> C   -4.54329977   0.41461995   1.13986240 
| 18> C   -4.19252877   1.62796043   1.70134586 
| 19> C   -2.84932284   1.89221407   1.88340748 
| 20> H   -1.93790180  -1.97951717  -1.50339689 
| 21> H   -3.87527422  -1.40881573   0.29305606 
| 22> H   -2.56555563   2.81929616   2.38945388 
| 23> H   -5.59453490   0.15669962   1.03090818 
| 24> H   -4.94286134   2.33940299   2.02083935 
| 25> C   -0.44720215   1.50742124   1.64520307 
| 26> C    0.66103705   0.46576054   1.89650672 
| 27> H   -0.48710873   2.16235108   2.50631263 
| 28> H   -0.12938260   2.14982620   0.81664320 
| 29> C    1.73231365   0.57994552   0.85866835 
| 30> H    0.25078712  -0.54225842   1.92531670 
| 31> H    1.10360791   0.64936314   2.87694590 
| 32> C    1.60591039  -0.05472150  -0.37474625 
| 33> C    2.58636638   0.16433718  -1.34698567 
| 34> C    3.60279084   1.09717423  -1.12274616 
| 35> C    2.81287439   1.42478833   1.09083047 
| 36> C    3.72271135   1.72532109   0.09771052 
| 37> H    2.58632723  -0.36303003  -2.28830045 
| 38> H    4.32985038   1.30247418  -1.89746631 
| 39> H    2.92554162   1.86857587   2.06809115 
| 40> H    4.51506036   2.44256115   0.28315508 
| 41> Pd   0.06591106  -1.29779682  -0.57136618 
| 42> Br  -1.79599603  -3.28031638  -0.85922143 
| 43> P    1.44941597  -2.95769482   0.01806993 
| 44> H    1.01068918  -3.55991966   1.20810727 
| 45> C    0.28101926  -1.37422045  -3.84688064 
| 46> O    1.40961585  -1.71175827  -4.17009338 
| 47> O   -0.54602351  -1.94653538  -3.11319154 
| 48> O   -0.16034037  -0.14847948  -4.29173384 
| 49> H    2.77625266  -2.74631733   0.38526061 
| 50> H    1.59131609  -4.12123068  -0.74634800 
| 51> H    0.57633435   0.25495983  -4.75609256 
| 52> *
| 53> 
| 54>                          ****END OF INPUT****
================================================================================

                     *******************************
                     * Energy+Gradient Calculation *
                     *******************************

---------------------------------
CARTESIAN COORDINATES (ANGSTROEM)
---------------------------------
  C     -2.154442   -0.137597    0.692952
  C     -1.855552    1.034507    1.387847
  C     -3.535134   -0.447351    0.680014
  C     -4.543300    0.414620    1.139862
  C     -4.192529    1.627960    1.701346
  C     -2.849323    1.892214    1.883407
  H     -1.937902   -1.979517   -1.503397
  H     -3.875274   -1.408816    0.293056
  H     -2.565556    2.819296    2.389454
  H     -5.594535    0.156700    1.030908
  H     -4.942861    2.339403    2.020839
  C     -0.447202    1.507421    1.645203
  C      0.661037    0.465761    1.896507
  H     -0.487109    2.162351    2.506313
  H     -0.129383    2.149826    0.816643
  C      1.732314    0.579946    0.858668
  H      0.250787   -0.542258    1.925317
  H      1.103608    0.649363    2.876946
  C      1.605910   -0.054721   -0.374746
  C      2.586366    0.164337   -1.346986
  C      3.602791    1.097174   -1.122746
  C      2.812874    1.424788    1.090830
  C      3.722711    1.725321    0.097711
  H      2.586327   -0.363030   -2.288300
  H      4.329850    1.302474   -1.897466
  H      2.925542    1.868576    2.068091
  H      4.515060    2.442561    0.283155
  Pd     0.065911   -1.297797   -0.571366
  Br    -1.795996   -3.280316   -0.859221
  P      1.449416   -2.957695    0.018070
  H      1.010689   -3.559920    1.208107
  C      0.281019   -1.374220   -3.846881
  O      1.409616   -1.711758   -4.170093
  O     -0.546024   -1.946535   -3.113192
  O     -0.160340   -0.148479   -4.291734
  H      2.776253   -2.746317    0.385261
  H      1.591316   -4.121231   -0.746348
  H      0.576334    0.254960   -4.756093

----------------------------
CARTESIAN COORDINATES (A.U.)
----------------------------
  NO LB      ZA    FRAG     MASS         X           Y           Z
   0 C     6.0000    0    12.011   -4.071306   -0.260022    1.309489
   1 C     6.0000    0    12.011   -3.506486    1.954935    2.622651
   2 C     6.0000    0    12.011   -6.680434   -0.845371    1.285041
   3 C     6.0000    0    12.011   -8.585592    0.783518    2.154028
   4 C     6.0000    0    12.011   -7.922731    3.076399    3.215078
   5 C     6.0000    0    12.011   -5.384440    3.575766    3.559124
   6 H     1.0000    0     1.008   -3.662104   -3.740745   -2.841008
   7 H     1.0000    0     1.008   -7.323207   -2.662276    0.553796
   8 H     1.0000    0     1.008   -4.848198    5.327698    4.515413
   9 H     1.0000    0     1.008  -10.572139    0.296119    1.948134
  10 H     1.0000    0     1.008   -9.340654    4.420831    3.818833
  11 C     6.0000    0    12.011   -0.845090    2.848613    3.108983
  12 C     6.0000    0    12.011    1.249179    0.880160    3.583878
  13 H     1.0000    0     1.008   -0.920502    4.086251    4.736244
  14 H     1.0000    0     1.008   -0.244498    4.062583    1.543232
  15 C     6.0000    0    12.011    3.273598    1.095938    1.622648
  16 H     1.0000    0     1.008    0.473919   -1.024720    3.638321
  17 H     1.0000    0     1.008    2.085517    1.227118    5.436640
  18 C     6.0000    0    12.011    3.034731   -0.103409   -0.708168
  19 C     6.0000    0    12.011    4.887524    0.310552   -2.545434
  20 C     6.0000    0    12.011    6.808288    2.073359   -2.121683
  21 C     6.0000    0    12.011    5.315562    2.692460    2.061371
  22 C     6.0000    0    12.011    7.034905    3.260384    0.184646
  23 H     1.0000    0     1.008    4.887450   -0.686027   -4.324261
  24 H     1.0000    0     1.008    8.182231    2.461319   -3.585692
  25 H     1.0000    0     1.008    5.528472    3.531097    3.908126
  26 H     1.0000    0     1.008    8.532228    4.615772    0.535086
  27 Pd   18.0000*   0   106.400    0.124554   -2.452481   -1.079726
  28 Br   35.0000    0    79.900   -3.393941   -6.198900   -1.623693
  29 P    15.0000    0    30.974    2.738999   -5.589233    0.034147
  30 H     1.0000    0     1.008    1.909926   -6.727273    2.282992
  31 C     6.0000    0    12.011    0.531049   -2.596900   -7.269551
  32 O     8.0000    0    15.999    2.663788   -3.234754   -7.880334
  33 O     8.0000    0    15.999   -1.031835   -3.678419   -5.883079
  34 O     8.0000    0    15.999   -0.302999   -0.280586   -8.110202
  35 H     1.0000    0     1.008    5.246357   -5.189788    0.728037
  36 H     1.0000    0     1.008    3.007152   -7.787997   -1.410393
  37 H     1.0000    0     1.008    1.089114    0.481804   -8.987712
* core charge reduced due to ECP

--------------------------------
INTERNAL COORDINATES (ANGSTROEM)
--------------------------------
 C      0   0   0     0.000000000000     0.00000000     0.00000000
 C      1   0   0     1.395006960845     0.00000000     0.00000000
 C      1   2   0     1.415069831064   113.42359336     0.00000000
 C      3   1   2     1.403870962296   124.28363129     8.86475599
 C      4   3   1     1.382208048993   119.32736227   357.00236248
 C      5   4   3     1.381006368601   117.92750222   354.86093184
 H      1   2   3     2.874631154110   154.53149928   136.27546247
 H      3   1   2     1.090800765759   120.02884653   188.75235220
 H      6   5   4     1.093658077291   118.39636907   184.14430361
 H      4   3   1     1.087882906029   121.03532586   174.95359133
 H      5   4   3     1.082231755187   121.40247144   176.86126832
 C      2   1   3     1.507756690533   123.27736894   174.40667587
 C     12   2   1     1.541559166184   119.16942774   325.26910149
 H     12   2   1     1.082605793802   106.92274332   202.87952327
 H     12   2   1     1.095538615097   109.01442662    89.95205088
 C     13  12   2     1.495921203008   110.49681825   119.58219282
 H     13  12   2     1.088686017055   111.04239467   355.91682135
 H     13  12   2     1.091256095757   108.92538996   238.88190258
 C     16  13  12     1.392871704755   120.96971518   275.85194980
 C     19  16  13     1.398045114942   118.73603727   175.25184361
 C     20  19  16     1.397707767233   120.19866337   354.22386425
 C     16  13  12     1.391139869460   119.13213820    90.33496536
 C     21  20  19     1.377847565663   120.64138532     5.74187705
 H     20  19  16     1.078976223446   122.01164269   174.75359097
 H     21  20  19     1.082106720703   120.02428668   183.22326911
 H     22  16  13     1.079203281152   118.81261631     8.61963043
 H     23  21  20     1.084730354581   121.09422045   179.34192913
 Pd    19  16  13     1.988842272395   116.27040320   351.99923058
 Br     7   1   2     1.458484780710   103.96590671   134.14165912
 P     28  19  16     2.239817433223    87.64412685   265.72538144
 H     30  28  19     1.404045877018   110.35938907   118.05388249
 C     24  20  19     2.960763940389   128.77075092    31.20922221
 O     32  24  20     1.221527125441    60.94009411   190.53237993
 O     32  24  20     1.244927234006   111.34795297   315.43869636
 O     32  24  20     1.376638521210    96.64074527    73.05727116
 H     30  28  19     1.392840637219   123.04688191     3.30152811
 H     30  28  19     1.399387763726   122.34835171   232.21622093
 H     35  32  24     0.959730139560   106.53182473    56.94194637

---------------------------
INTERNAL COORDINATES (A.U.)
---------------------------
 C      0   0   0     0.000000000000     0.00000000     0.00000000
 C      1   0   0     2.636181110910     0.00000000     0.00000000
 C      1   2   0     2.674094441084   113.42359336     0.00000000
 C      3   1   2     2.652931646103   124.28363129     8.86475599
 C      4   3   1     2.611994672698   119.32736227   357.00236248
 C      5   4   3     2.609723825858   117.92750222   354.86093184
 H      1   2   3     5.432265617306   154.53149928   136.27546247
 H      3   1   2     2.061314713957   120.02884653   188.75235220
 H      6   5   4     2.066714250230   118.39636907   184.14430361
 H      4   3   1     2.055800758168   121.03532586   174.95359133
 H      5   4   3     2.045121630736   121.40247144   176.86126832
 C      2   1   3     2.849247221695   123.27736894   174.40667587
 C     12   2   1     2.913124643323   119.16942774   325.26910149
 H     12   2   1     2.045828461282   106.92274332   202.87952327
 H     12   2   1     2.070267951669   109.01442662    89.95205088
 C     13  12   2     2.826881391611   110.49681825   119.58219282
 H     13  12   2     2.057318418064   111.04239467   355.91682135
 H     13  12   2     2.062175162953   108.92538996   238.88190258
 C     16  13  12     2.632146061675   120.96971518   275.85194980
 C     19  16  13     2.641922390106   118.73603727   175.25184361
 C     20  19  16     2.641284895325   120.19866337   354.22386425
 C     16  13  12     2.628873367258   119.13213820    90.33496536
 C     21  20  19     2.603754553393   120.64138532     5.74187705
 H     20  19  16     2.038969567326   122.01164269   174.75359097
 H     21  20  19     2.044885349805   120.02428668   183.22326911
 H     22  16  13     2.039398644206   118.81261631     8.61963043
 H     23  21  20     2.049843299310   121.09422045   179.34192913
 Pd    19  16  13     3.758367218393   116.27040320   351.99923058
 Br     7   1   2     2.756136806034   103.96590671   134.14165912
 P     28  19  16     4.232641538774    87.64412685   265.72538144
 H     30  28  19     2.653262187025   110.35938907   118.05388249
 C     24  20  19     5.595032994524   128.77075092    31.20922221
 O     32  24  20     2.308351732240    60.94009411   190.53237993
 O     32  24  20     2.352571528931   111.34795297   315.43869636
 O     32  24  20     2.601469790494    96.64074527    73.05727116
 H     30  28  19     2.632087352540   123.04688191     3.30152811
 H     30  28  19     2.644459628604   122.34835171   232.21622093
 H     35  32  24     1.813627126239   106.53182473    56.94194637

---------------------
BASIS SET INFORMATION
---------------------
There are 6 groups of distinct atoms

 Group   1 Type C   : 8s4p1d contracted to 4s2p1d pattern {5111/31/1}
 Group   2 Type H   : 4s contracted to 2s pattern {31}
 Group   3 Type Pd  : 7s6p5d1f contracted to 5s3p2d1f pattern {31111/411/41/1}
 Group   4 Type Br  : 14s10p6d contracted to 5s4p3d pattern {63311/5311/411}
 Group   5 Type P   : 10s7p1d contracted to 4s3p1d pattern {5311/511/1}
 Group   6 Type O   : 8s4p1d contracted to 4s2p1d pattern {5111/31/1}

Atom   0C    basis set group =>   1
Atom   1C    basis set group =>   1
Atom   2C    basis set group =>   1
Atom   3C    basis set group =>   1
Atom   4C    basis set group =>   1
Atom   5C    basis set group =>   1
Atom   6H    basis set group =>   2
Atom   7H    basis set group =>   2
Atom   8H    basis set group =>   2
Atom   9H    basis set group =>   2
Atom  10H    basis set group =>   2
Atom  11C    basis set group =>   1
Atom  12C    basis set group =>   1
Atom  13H    basis set group =>   2
Atom  14H    basis set group =>   2
Atom  15C    basis set group =>   1
Atom  16H    basis set group =>   2
Atom  17H    basis set group =>   2
Atom  18C    basis set group =>   1
Atom  19C    basis set group =>   1
Atom  20C    basis set group =>   1
Atom  21C    basis set group =>   1
Atom  22C    basis set group =>   1
Atom  23H    basis set group =>   2
Atom  24H    basis set group =>   2
Atom  25H    basis set group =>   2
Atom  26H    basis set group =>   2
Atom  27Pd   basis set group =>   3
Atom  28Br   basis set group =>   4
Atom  29P    basis set group =>   5
Atom  30H    basis set group =>   2
Atom  31C    basis set group =>   1
Atom  32O    basis set group =>   6
Atom  33O    basis set group =>   6
Atom  34O    basis set group =>   6
Atom  35H    basis set group =>   2
Atom  36H    basis set group =>   2
Atom  37H    basis set group =>   2
---------------------------------
AUXILIARY/J BASIS SET INFORMATION
---------------------------------
There are 6 groups of distinct atoms

 Group   1 Type C   : 12s5p4d2f1g contracted to 6s4p3d1f1g pattern {711111/2111/211/2/1}
 Group   2 Type H   : 5s2p1d contracted to 3s1p1d pattern {311/2/1}
 Group   3 Type Pd  : 11s5p5d3f3g contracted to 8s5p5d2f3g pattern {41111111/11111/11111/21/111}
 Group   4 Type Br  : 19s5p5d3f1g contracted to 8s4p3d2f1g pattern {121111111/2111/311/21/1}
 Group   5 Type P   : 14s5p5d2f1g contracted to 8s4p3d1f1g pattern {71111111/2111/311/2/1}
 Group   6 Type O   : 12s5p4d2f1g contracted to 6s4p3d1f1g pattern {711111/2111/211/2/1}

Atom   0C    basis set group =>   1
Atom   1C    basis set group =>   1
Atom   2C    basis set group =>   1
Atom   3C    basis set group =>   1
Atom   4C    basis set group =>   1
Atom   5C    basis set group =>   1
Atom   6H    basis set group =>   2
Atom   7H    basis set group =>   2
Atom   8H    basis set group =>   2
Atom   9H    basis set group =>   2
Atom  10H    basis set group =>   2
Atom  11C    basis set group =>   1
Atom  12C    basis set group =>   1
Atom  13H    basis set group =>   2
Atom  14H    basis set group =>   2
Atom  15C    basis set group =>   1
Atom  16H    basis set group =>   2
Atom  17H    basis set group =>   2
Atom  18C    basis set group =>   1
Atom  19C    basis set group =>   1
Atom  20C    basis set group =>   1
Atom  21C    basis set group =>   1
Atom  22C    basis set group =>   1
Atom  23H    basis set group =>   2
Atom  24H    basis set group =>   2
Atom  25H    basis set group =>   2
Atom  26H    basis set group =>   2
Atom  27Pd   basis set group =>   3
Atom  28Br   basis set group =>   4
Atom  29P    basis set group =>   5
Atom  30H    basis set group =>   2
Atom  31C    basis set group =>   1
Atom  32O    basis set group =>   6
Atom  33O    basis set group =>   6
Atom  34O    basis set group =>   6
Atom  35H    basis set group =>   2
Atom  36H    basis set group =>   2
Atom  37H    basis set group =>   2
-------------------------
ECP PARAMETER INFORMATION
-------------------------

 Group 1, Type Pd ECP Def2-ECP (replacing 28 core electrons, lmax=3)

Atom  27Pd   ECP group =>   1

------------------------------------------------------------------------------
                           ORCA GTO INTEGRAL CALCULATION
                           -- RI-GTO INTEGRALS CHOSEN --
------------------------------------------------------------------------------
------------------------------------------------------------------------------
                   ___                                                        
                  /   \      - P O W E R E D   B Y -                         
                 /     \                                                     
                 |  |  |   _    _      __       _____    __    __             
                 |  |  |  | |  | |    /  \     |  _  \  |  |  /  |          
                  \  \/   | |  | |   /    \    | | | |  |  | /  /          
                 / \  \   | |__| |  /  /\  \   | |_| |  |  |/  /          
                |  |  |   |  __  | /  /__\  \  |    /   |      \           
                |  |  |   | |  | | |   __   |  |    \   |  |\   \          
                \     /   | |  | | |  |  |  |  | |\  \  |  | \   \       
                 \___/    |_|  |_| |__|  |__|  |_| \__\ |__|  \__/        
                                                                              
                      - O R C A' S   B I G   F R I E N D -                    
                                      &                                       
                       - I N T E G R A L  F E E D E R -                       
                                                                              
 v1 FN, 2020, v2 2021                                                         
------------------------------------------------------------------------------


Reading SHARK input file 4_16_orca.SHARKINP.tmp ... ok
----------------------
SHARK INTEGRAL PACKAGE
----------------------

Number of atoms                             ...     38
Number of basis functions                   ...    385
Number of shells                            ...    191
Maximum angular momentum                    ...      3
Integral batch strategy                     ... SHARK/LIBINT Hybrid
RI-J (if used) integral strategy            ... SPLIT-RIJ (Revised 2003 algorithm where possible)
Printlevel                                  ...      1
Contraction scheme used                     ... SEGMENTED contraction
Coulomb Range Separation                    ... NOT USED
Exchange Range Separation                   ... NOT USED
Finite Nucleus Model                        ... NOT USED
Auxiliary Coulomb fitting basis             ... AVAILABLE
   # of basis functions in Aux-J            ...   1267
   # of shells in Aux-J                     ...    413
   Maximum angular momentum in Aux-J        ...      4
Auxiliary J/K fitting basis                 ... NOT available
Auxiliary Correlation fitting basis         ... NOT available
Auxiliary 'external' fitting basis          ... NOT available
Integral threshold                          ...     2.500000e-11
Primitive cut-off                           ...     2.500000e-12
Primitive pair pre-selection threshold      ...     2.500000e-12

Calculating pre-screening integrals         ... done (  0.1 sec) Dimension = 191
Organizing shell pair data                  ... done (  0.1 sec)
Shell pair information
Total number of shell pairs                 ...     18336
Shell pairs after pre-screening             ...     12277
Total number of primitive shell pairs       ...     68628
Primitive shell pairs kept                  ...     28232
          la=0 lb=0:   4341 shell pairs
          la=1 lb=0:   4126 shell pairs
          la=1 lb=1:    936 shell pairs
          la=2 lb=0:   1717 shell pairs
          la=2 lb=1:    835 shell pairs
          la=2 lb=2:    181 shell pairs
          la=3 lb=0:     77 shell pairs
          la=3 lb=1:     43 shell pairs
          la=3 lb=2:     20 shell pairs
          la=3 lb=3:      1 shell pairs

Calculating one electron integrals          ... done (  0.1 sec)
Calculating ECP integrals                   ... done (  0.6 sec)
Calculating RI/J V-Matrix + Cholesky decomp.... done (  0.2 sec)
Calculating Nuclear repulsion               ... done (  0.0 sec) ENN=   2542.758763851212 Eh

SHARK setup successfully completed in   1.4 seconds

Maximum memory used throughout the entire GTOINT-calculation: 95.9 MB
-------------------------------------------------------------------------------
                                 ORCA SCF
-------------------------------------------------------------------------------

------------
SCF SETTINGS
------------
Hamiltonian:
 Density Functional     Method          .... DFT(GTOs)
 Exchange Functional    Exchange        .... PBE
   PBE kappa parameter   XKappa         ....  1.024500
   PBE mue parameter    XMuePBE         ....  0.123457
 Correlation Functional Correlation     .... PBE
   PBE beta parameter  CBetaPBE         ....  0.030000
 LDA part of GGA corr.  LDAOpt          .... PW91-LDA
 Gradients option       PostSCFGGA      .... off
 Hybrid DFT is turned on
   Fraction HF Exchange ScalHFX         ....  0.420000
   Scaling of DF-GGA-X  ScalDFX         ....  0.580000
   Scaling of DF-GGA-C  ScalDFC         ....  1.000000
   Scaling of DF-LDA-C  ScalLDAC        ....  1.000000
   Perturbative correction              ....  0.000000
   Density functional embedding theory  .... OFF
 RI-approximation to the Coulomb term is turned on
   Number of AuxJ basis functions       .... 1267
   RIJ-ON(X) (HFX calculated with O(N)) .... on
   Number of AuxJ basis functions       .... 1267
   RIJ-COSX (HFX calculated with COS-X)).... on


General Settings:
 Integral files         IntName         .... 4_16_orca
 Hartree-Fock type      HFTyp           .... RHF
 Total Charge           Charge          ....   -1
 Multiplicity           Mult            ....    1
 Number of Electrons    NEL             ....  200
 Basis Dimension        Dim             ....  385
 Nuclear Repulsion      ENuc            ....   2542.7587638512 Eh

Convergence Acceleration:
 DIIS                   CNVDIIS         .... on
   Start iteration      DIISMaxIt       ....    12
   Startup error        DIISStart       ....  0.200000
   # of expansion vecs  DIISMaxEq       ....     5
   Bias factor          DIISBfac        ....   1.050
   Max. coefficient     DIISMaxC        ....  10.000
 Trust-Rad. Augm. Hess. CNVTRAH         .... auto
   Auto Start mean grad. ratio tolernc. ....  1.125000
   Auto Start start iteration           ....    20
   Auto Start num. interpolation iter.  ....    10
   Max. Number of Micro iterations      ....    16
   Max. Number of Macro iterations      .... Maxiter - #DIIS iter
   Number of Davidson start vectors     ....     2
   Converg. threshold I  (grad. norm)   ....   1.000e-05
   Converg. threshold II (energy diff.) ....   1.000e-08
   Grad. Scal. Fac. for Micro threshold ....   0.100
   Minimum threshold for Micro iter.    ....   0.010
   NR start threshold (gradient norm)   ....   0.001
   Initial trust radius                 ....   0.400
   Minimum AH scaling param. (alpha)    ....   1.000
   Maximum AH scaling param. (alpha)    .... 1000.000
   Orbital update algorithm             .... Taylor
   White noise on init. David. guess    .... on
   Maximum white noise                  ....   0.010
   Quad. conv. algorithm                .... NR
   COSX micro iterations for RIJONX calc.... off
 SOSCF                  CNVSOSCF        .... off
 Level Shifting         CNVShift        .... on
   Level shift para.    LevelShift      ....    0.2500
   Turn off err/grad.   ShiftErr        ....    0.0010
 Zerner damping         CNVZerner       .... off
 Static damping         CNVDamp         .... on
   Fraction old density DampFac         ....    0.7000
   Max. Damping (<1)    DampMax         ....    0.9800
   Min. Damping (>=0)   DampMin         ....    0.0000
   Turn off err/grad.   DampErr         ....    0.1000
 Fernandez-Rico         CNVRico         .... off

SCF Procedure:
 Maximum # iterations   MaxIter         ....   250
 SCF integral mode      SCFMode         .... Direct
   Integral package                     .... SHARK and LIBINT hybrid scheme
 Reset frequency        DirectResetFreq ....    20
 Integral Threshold     Thresh          ....  2.500e-11 Eh
 Primitive CutOff       TCut            ....  2.500e-12 Eh

Convergence Tolerance:
 Convergence Check Mode ConvCheckMode   .... Total+1el-Energy
 Convergence forced     ConvForced      .... 0
 Energy Change          TolE            ....  1.000e-08 Eh
 1-El. energy change                    ....  1.000e-05 Eh
 DIIS Error             TolErr          ....  5.000e-07


Diagonalization of the overlap matrix:
Smallest eigenvalue                        ... 3.807e-04
Time for diagonalization                   ...    0.048 sec
Threshold for overlap eigenvalues          ... 1.000e-08
Number of eigenvalues below threshold      ... 0
Time for construction of square roots      ...    0.035 sec
Total time needed                          ...    0.084 sec

--------------------------------
INITIAL GUESS: MINIMAL BASIS EHT
--------------------------------
The minimal basis has 147 functions
EHT matrix was diagonalized
Basis set overlap was calculated now projecting the orbitals
Using GuessMode=FMatrix for the initial guess
C*T matrix was formed
Effective Fockian was calculated
Effective Fockian was diagonalized
Initial density was built
                      ------------------
                      INITIAL GUESS DONE
                      ------------------
-------------------
DFT GRID GENERATION
-------------------

General Integration Accuracy     IntAcc      ... 4.159
Radial Grid Type                 RadialGrid  ... OptM3 with GC (2021)
Angular Grid (max. ang.)         AngularGrid ... 3 (Lebedev-194)
Angular grid pruning method      GridPruning ... 4 (adaptive)
Weight generation scheme         WeightScheme... Becke
Basis function cutoff            BFCut       ... 1.0000e-11
Integration weight cutoff        WCut        ... 1.0000e-14
Angular grids for H and He will be reduced by one unit
Partially contracted basis set               ... off
Rotationally invariant grid construction     ... off

Total number of grid points                  ...    96702
Total number of batches                      ...     1531
Average number of points per batch           ...       63
Average number of grid points per atom       ...     2545
Time for grid setup =    1.734 sec

--------------------
COSX GRID GENERATION
--------------------

GRIDX 1
-------
General Integration Accuracy     IntAcc      ... 3.816
Radial Grid Type                 RadialGrid  ... OptM3 with GC (2021)
Angular Grid (max. ang.)         AngularGrid ... 1 (Lebedev-50)
Angular grid pruning method      GridPruning ... 4 (adaptive)
Weight generation scheme         WeightScheme... Becke
Basis function cutoff            BFCut       ... 1.0000e-11
Integration weight cutoff        WCut        ... 1.0000e-14
Angular grids for H and He will be reduced by one unit
Partially contracted basis set               ... on
Rotationally invariant grid construction     ... off

Total number of grid points                  ...    23645
Total number of batches                      ...      386
Average number of points per batch           ...       61
Average number of grid points per atom       ...      622
UseSFitting                                  ... on

GRIDX 2
-------
General Integration Accuracy     IntAcc      ... 4.020
Radial Grid Type                 RadialGrid  ... OptM3 with GC (2021)
Angular Grid (max. ang.)         AngularGrid ... 2 (Lebedev-110)
Angular grid pruning method      GridPruning ... 4 (adaptive)
Weight generation scheme         WeightScheme... Becke
Basis function cutoff            BFCut       ... 1.0000e-11
Integration weight cutoff        WCut        ... 1.0000e-14
Angular grids for H and He will be reduced by one unit
Partially contracted basis set               ... on
Rotationally invariant grid construction     ... off

Total number of grid points                  ...    51250
Total number of batches                      ...      822
Average number of points per batch           ...       62
Average number of grid points per atom       ...     1349
UseSFitting                                  ... on

GRIDX 3
-------
General Integration Accuracy     IntAcc      ... 4.338
Radial Grid Type                 RadialGrid  ... OptM3 with GC (2021)
Angular Grid (max. ang.)         AngularGrid ... 3 (Lebedev-194)
Angular grid pruning method      GridPruning ... 4 (adaptive)
Weight generation scheme         WeightScheme... Becke
Basis function cutoff            BFCut       ... 1.0000e-11
Integration weight cutoff        WCut        ... 1.0000e-14
Angular grids for H and He will be reduced by one unit
Partially contracted basis set               ... on
Rotationally invariant grid construction     ... off

Total number of grid points                  ...   111814
Total number of batches                      ...     1762
Average number of points per batch           ...       63
Average number of grid points per atom       ...     2942
UseSFitting                                  ... on

Time for X-Grid setup             =    4.300 sec

--------------
SCF ITERATIONS
--------------
ITER       Energy         Delta-E        Max-DP      RMS-DP      [F,P]     Damp
               ***  Starting incremental Fock matrix formation  ***
  0  -3825.7134879678   0.000000000000 5.59344424  0.05790403  5.1845325 0.7000
  1  -3811.4849776572  14.228510310516 6.45377025  0.05681258  3.9790317 0.7000
  2  -3811.0192416671   0.465735990135 2.66924759  0.03167961  2.6423360 0.7000
  3  -3816.5107749883  -5.491533321223 4.50923154  0.03446555  1.9365643 0.7000
  4  -3812.3423182576   4.168456730708 3.26658443  0.03196203  1.2518279 0.7000
  5  -3814.9991423844  -2.656824126747 3.63710798  0.04089047  0.9750287 0.7000
  6  -3805.3459368390   9.653205545328 2.64240222  0.03241322  0.5874759 0.7000
  7  -3813.5754966221  -8.229559783019 3.29661797  0.03012117  0.5062134 0.7000
  8  -3813.5854363353  -0.009939713244 2.78827934  0.03997786  0.3726053 0.7000
  9  -3812.3751225297   1.210313805574 3.29848311  0.03830489  0.2844567 0.7000
 10  -3798.5381947641  13.836927765636 2.53487743  0.03390440  0.2841780 0.7000
 11  -3811.2166705431 -12.678475779026 2.52538321  0.03377225  0.2478813 0.7000
                               ***Turning on DIIS***
 12  -3813.6994605875  -2.482790044373 2.96153201  0.03285825  0.2359482 0.7000
 13  -3813.9502827342  -0.250822146753 1.91947298  0.02323478  0.2265420 0.7000
 14  -3820.4965623331  -6.546279598834 1.37827491  0.01656354  0.3123749 0.7000
 15  -3825.7878174048  -5.291255071688 0.99510361  0.01170437  0.3881842 0.7000
 16  -3829.9792197999  -4.191402395163 0.72817549  0.00828435  0.4403194 0.7000
 17  -3833.5835919307  -3.604372130791 3.76187413  0.03865290  0.4681082 0.7000
 18  -3820.9207852452  12.662806685570 1.45274519  0.01487894  0.4130265 0.7000
 19  -3827.3971737210  -6.476388475802 1.02609820  0.01151835  0.2807387 0.7000
               *** Restarting incremental Fock matrix formation ***
                                   *** Resetting DIIS ***

 WARNING: the maximum gradient error descreased on average only by a factor   1.0
          during the last 20 iterations

                      *** Initiating the TRAH-SCF procedure ***


TRAH GRIDX
----------

General Integration Accuracy     IntAcc      ... 3.067
Radial Grid Type                 RadialGrid  ... OptM3 with GC (2021)
Angular Grid (max. ang.)         AngularGrid ... 1 (Lebedev-50)
Angular grid pruning method      GridPruning ... 4 (adaptive)
Weight generation scheme         WeightScheme... Becke
Basis function cutoff            BFCut       ... 1.0000e-11
Integration weight cutoff        WCut        ... 1.0000e-14
Angular grids for H and He will be reduced by one unit
Partially contracted basis set               ... on
Rotationally invariant grid construction     ... off

Total number of grid points                  ...    12926
Total number of batches                      ...      225
Average number of points per batch           ...       57
Average number of grid points per atom       ...      340


TRAH GRID
---------

General Integration Accuracy     IntAcc      ... 3.467
Radial Grid Type                 RadialGrid  ... OptM3 with GC (2021)
Angular Grid (max. ang.)         AngularGrid ... 1 (Lebedev-50)
Angular grid pruning method      GridPruning ... 4 (adaptive)
Weight generation scheme         WeightScheme... Becke
Basis function cutoff            BFCut       ... 1.0000e-11
Integration weight cutoff        WCut        ... 1.0000e-14
Angular grids for H and He will be reduced by one unit
Partially contracted basis set               ... off
Rotationally invariant grid construction     ... off

Total number of grid points                  ...    32824
Total number of batches                      ...      530
Average number of points per batch           ...       61
Average number of grid points per atom       ...      864

 --------------------------------------------------------------------------------------------
   Iter.        energy            ||Error||_2        Shift      TRadius  Mac/Mic        Rej.
 --------------------------------------------------------------------------------------------
WARNING: 576 diagonal Hessian elements are negative!
    0      -3844.976455159393     5.217238e+00                     0.400 (TRAH MAcro)   No
WARNING : negative HOMO - LUMO gap : -1.531251
    0     dE    -1.403593e+00     3.033142e+00    -4.5992e+00      0.398 (TRAH MIcro)
    0     dE    -1.454112e+00     1.621129e+00    -7.2446e+00      0.381 (TRAH MIcro)
    0     dE    -1.513099e+00     4.814820e-01    -7.3980e+00      0.391 (TRAH MIcro)
    0     dE    -1.511027e+00     1.295155e-01    -7.4279e+00      0.388 (TRAH MIcro)
    0     dE    -1.508648e+00     6.951717e-02    -7.4299e+00      0.387 (TRAH MIcro)
    0     dE    -1.507854e+00     3.673689e-02    -7.4303e+00      0.387 (TRAH MIcro)
    0     dE    -1.507557e+00     1.350014e-02    -7.4305e+00      0.387 (TRAH MIcro)
    0     dE    -1.507510e+00     6.080077e-03    -7.4305e+00      0.387 (TRAH MIcro)
WARNING: 223 diagonal Hessian elements are negative!
    1      -3846.449028183849     2.624180e+00                     0.480 (TRAH MAcro)   No
WARNING : negative HOMO - LUMO gap : -0.885260
    1     dE    -5.016112e-01     1.259921e+00    -8.9805e-01      0.342 (TRAH MIcro)
    1     dE    -7.392489e-01     6.198781e-01    -2.1841e+00      0.475 (TRAH MIcro)
    1     dE    -8.068471e-01     5.403676e-01    -3.3171e+00      0.480 (TRAH MIcro)
    1     dE    -4.910122e-01     2.980119e-01    -5.4001e+00      0.259 (TRAH MIcro)
    1     dE    -4.911233e-01     1.085354e-01    -5.4292e+00      0.257 (TRAH MIcro)
    1     dE    -4.909612e-01     2.695414e-02    -5.4348e+00      0.257 (TRAH MIcro)
    1     dE    -4.909800e-01     1.305233e-02    -5.4353e+00      0.257 (TRAH MIcro)
    1     dE    -4.909626e-01     3.187858e-03    -5.4353e+00      0.257 (TRAH MIcro)
WARNING: 72 diagonal Hessian elements are negative!
    2      -3846.930770365876     1.296361e+00                     0.576 (TRAH MAcro)   No
WARNING : negative HOMO - LUMO gap : -0.534848
    2     dE    -1.683454e-01     9.335380e-01    -3.1762e-01      0.245 (TRAH MIcro)
    2     dE    -4.223320e-01     1.281923e+00    -1.0152e+00      0.576 (TRAH MIcro)
    2     dE    -3.026195e-01     2.810463e-01    -2.6399e+00      0.338 (TRAH MIcro)
    2     dE    -3.420618e-01     9.005710e-02    -2.6874e+00      0.374 (TRAH MIcro)
    2     dE    -3.466522e-01     4.089233e-02    -2.6918e+00      0.378 (TRAH MIcro)
    2     dE    -3.498215e-01     2.186470e-02    -2.6931e+00      0.381 (TRAH MIcro)
    2     dE    -3.519257e-01     7.273258e-03    -2.6934e+00      0.383 (TRAH MIcro)
WARNING: 14 diagonal Hessian elements are negative!
    3      -3847.224209834782     6.321461e-01                     0.691 (TRAH MAcro)   No
WARNING : negative HOMO - LUMO gap : -0.181365
    3     dE    -1.049040e-01     3.002457e+00    -1.9207e-01      0.304 (TRAH MIcro)
    3     dE    -3.449182e-01     1.374947e+00    -6.8556e-01      0.691 (TRAH MIcro)
    3     dE    -4.104199e-01     6.301967e-01    -1.0301e+00      0.691 (TRAH MIcro)
    3     dE    -4.168958e-01     2.878565e-01    -1.1790e+00      0.672 (TRAH MIcro)
    3     dE    -4.380118e-01     1.133991e-01    -1.2093e+00      0.691 (TRAH MIcro)
    3     dE    -4.386681e-01     3.667197e-02    -1.2154e+00      0.691 (TRAH MIcro)
    3     dE    -4.387454e-01     9.992365e-03    -1.2168e+00      0.691 (TRAH MIcro)
    4      -3847.505409752452     4.974230e-01                     0.691 (TRAH MAcro)   No
    4     dE    -1.991514e-02     2.025900e+00    -3.9579e-02      0.080 (TRAH MIcro)
    4     dE    -9.830176e-02     2.801003e+00    -1.5486e-01      0.519 (TRAH MIcro)
    4     dE    -1.451417e-01     2.597493e-01    -1.9775e-01      0.684 (TRAH MIcro)
    4     dE    -1.503989e-01     2.738812e-01    -2.2114e-01      0.691 (TRAH MIcro)
    4     dE    -1.513180e-01     1.135974e-01    -2.3606e-01      0.691 (TRAH MIcro)
    4     dE    -1.514767e-01     1.915794e-02    -2.3994e-01      0.691 (TRAH MIcro)
    4     dE    -1.514963e-01     1.743554e-02    -2.4029e-01      0.691 (TRAH MIcro)
    4     dE    -1.515002e-01     3.449048e-03    -2.4027e-01      0.691 (TRAH MIcro)
    5      -3847.595558219352     5.456972e-01                     0.691 (TRAH MAcro)   No
    5     dE    -1.622924e-02     6.920820e-01    -3.2345e-02      0.059 (TRAH MIcro)
    5     dE    -2.314861e-02     7.728270e-02    -4.5795e-02      0.105 (TRAH MIcro)
    5     dE    -2.363290e-02     4.370488e-02    -4.6687e-02      0.111 (TRAH MIcro)
    5     dE    -2.377685e-02     2.365834e-02    -4.6932e-02      0.115 (TRAH MIcro)
    5     dE    -2.381142e-02     7.947494e-03    -4.6987e-02      0.116 (TRAH MIcro)
    6      -3847.619761036405     2.915540e-02                     0.829 (TRAH MAcro)   No
    6     dE    -1.150671e-05     1.986812e-01    -2.3013e-05      0.001 (TRAH MIcro)
    6     dE    -3.139657e-04     4.072327e-02    -6.2753e-04      0.025 (TRAH MIcro)
    6     dE    -3.847811e-04     1.750780e-02    -7.6875e-04      0.032 (TRAH MIcro)
    6     dE    -3.911529e-04     3.716061e-03    -7.8143e-04      0.034 (TRAH MIcro)
    6     dE    -3.924494e-04     2.156890e-03    -7.8400e-04      0.034 (TRAH MIcro)
    7      -3847.620160323756     3.361557e-03                     0.995 (TRAH MAcro)   No
    7     dE    -2.729372e-08     8.965642e-03    -5.4678e-08      0.000 (TRAH MIcro)
    7     dE    -8.997433e-07     1.533954e-03    -1.7995e-06      0.001 (TRAH MIcro)
    7     dE    -1.113682e-06     8.311542e-04    -2.2274e-06      0.001 (TRAH MIcro)
    7     dE    -1.190870e-06     3.478937e-04    -2.3817e-06      0.002 (TRAH MIcro)
    7     dE    -1.199435e-06     1.750497e-04    -2.3989e-06      0.002 (TRAH MIcro)
    8      -3847.620161524499     1.739915e-04                           (NR   MAcro)
    8     dE    -2.009362e-09     8.138308e-05                           (NR   MIcro)
    8     dE    -3.113456e-09     5.329555e-05                           (NR   MIcro)
    8     dE    -3.322027e-09     2.855984e-05                           (NR   MIcro)
    8     dE    -3.372249e-09     1.206521e-05                           (NR   MIcro)
    8     dE    -3.385777e-09     4.217428e-06                           (NR   MIcro)
    8     dE    -3.387856e-09     1.651075e-06                           (NR   MIcro)
    8     dE    -3.388006e-09     5.781690e-07                           (NR   MIcro)
    9      -3847.620161528860     6.246393e-07                           (NR   MAcro)

               *****************************************************
               *                     SUCCESS                       *
               *           SCF CONVERGED AFTER  90 CYCLES          *
               *****************************************************

Old exchange energy                            =    -97.775780589 Eh
New exchange energy                            =    -97.775804047 Eh
Exchange energy change after final integration =     -0.000023457 Eh
Total energy after final integration           =  -3847.620184986 Eh
Final COS-X integration done in                =    48.671 sec

----------------
TOTAL SCF ENERGY
----------------

Total Energy       :        -3847.62018499 Eh         -104699.06803 eV

Components:
Nuclear Repulsion  :         2542.75876385 Eh           69191.98362 eV
Electronic Energy  :        -6390.37894884 Eh         -173891.05165 eV
One Electron Energy:       -10468.22947912 Eh         -284855.00588 eV
Two Electron Energy:         4077.85053028 Eh          110963.95423 eV
Max COSX asymmetry :            0.00002052 Eh               0.00056 eV

Virial components:
Potential Energy   :        -7607.14298999 Eh         -207000.88448 eV
Kinetic Energy     :         3759.52280500 Eh          102301.81645 eV
Virial Ratio       :            2.02343313


DFT components:
N(Alpha)           :       99.999713026623 electrons
N(Beta)            :       99.999713026623 electrons
N(Total)           :      199.999426053245 electrons
E(X)               :     -130.874619232991 Eh       
E(C)               :       -9.714425195416 Eh       
E(XC)              :     -140.589044428407 Eh       
DFET-embed. en.    :        0.000000000000 Eh       

---------------
SCF CONVERGENCE
---------------

  Last Energy change         ...   -4.3610e-09  Tolerance :   1.0000e-08
  Last Orbital Gradient      ...    6.2464e-07  Tolerance :   1.0000e-05
  Last Orbital Rotation      ...    9.1990e-05

             **** THE GBW FILE WAS UPDATED (4_16_orca.gbw) ****
             **** DENSITY 4_16_orca.scfp WAS UPDATED ****
             **** ENERGY FILE WAS UPDATED (4_16_orca.en.tmp) ****
             **** THE GBW FILE WAS UPDATED (4_16_orca.gbw) ****
             **** DENSITY 4_16_orca.scfp WAS UPDATED ****
----------------
ORBITAL ENERGIES
----------------

  NO   OCC          E(Eh)            E(eV) 
   0   2.0000    -484.430738    -13182.0305 
   1   2.0000     -77.686218     -2113.9495 
   2   2.0000     -63.093621     -1716.8647 
   3   2.0000     -56.797466     -1545.5376 
   4   2.0000     -56.796147     -1545.5017 
   5   2.0000     -56.795741     -1545.4907 
   6   2.0000     -19.347857      -526.4819 
   7   2.0000     -19.280201      -524.6409 
   8   2.0000     -19.275844      -524.5224 
   9   2.0000     -10.410868      -283.2941 
  10   2.0000     -10.359502      -281.8964 
  11   2.0000     -10.347382      -281.5666 
  12   2.0000     -10.345887      -281.5259 
  13   2.0000     -10.344685      -281.4932 
  14   2.0000     -10.343167      -281.4519 
  15   2.0000     -10.339490      -281.3518 
  16   2.0000     -10.327262      -281.0191 
  17   2.0000     -10.317431      -280.7516 
  18   2.0000     -10.315380      -280.6958 
  19   2.0000     -10.314752      -280.6787 
  20   2.0000     -10.313311      -280.6394 
  21   2.0000     -10.312606      -280.6203 
  22   2.0000     -10.308467      -280.5076 
  23   2.0000     -10.291678      -280.0508 
  24   2.0000      -8.922629      -242.7971 
  25   2.0000      -6.762507      -184.0172 
  26   2.0000      -6.695429      -182.1919 
  27   2.0000      -6.687256      -181.9695 
  28   2.0000      -6.683749      -181.8741 
  29   2.0000      -4.853454      -132.0692 
  30   2.0000      -4.853155      -132.0610 
  31   2.0000      -4.851735      -132.0224 
  32   2.0000      -3.535079       -96.1944 
  33   2.0000      -2.709789       -73.7371 
  34   2.0000      -2.707546       -73.6761 
  35   2.0000      -2.704557       -73.5947 
  36   2.0000      -2.697712       -73.4085 
  37   2.0000      -2.697449       -73.4013 
  38   2.0000      -2.186971       -59.5105 
  39   2.0000      -2.174675       -59.1759 
  40   2.0000      -2.150124       -58.5078 
  41   2.0000      -1.044609       -28.4252 
  42   2.0000      -0.930540       -25.3213 
  43   2.0000      -0.901864       -24.5410 
  44   2.0000      -0.857646       -23.3377 
  45   2.0000      -0.817647       -22.2493 
  46   2.0000      -0.777707       -21.1625 
  47   2.0000      -0.768396       -20.9091 
  48   2.0000      -0.730229       -19.8706 
  49   2.0000      -0.727967       -19.8090 
  50   2.0000      -0.687446       -18.7064 
  51   2.0000      -0.672565       -18.3014 
  52   2.0000      -0.664086       -18.0707 
  53   2.0000      -0.602847       -16.4043 
  54   2.0000      -0.575903       -15.6711 
  55   2.0000      -0.546950       -14.8833 
  56   2.0000      -0.535230       -14.5644 
  57   2.0000      -0.507273       -13.8036 
  58   2.0000      -0.496820       -13.5192 
  59   2.0000      -0.469552       -12.7772 
  60   2.0000      -0.441150       -12.0043 
  61   2.0000      -0.427433       -11.6311 
  62   2.0000      -0.411532       -11.1984 
  63   2.0000      -0.405043       -11.0218 
  64   2.0000      -0.390527       -10.6268 
  65   2.0000      -0.388822       -10.5804 
  66   2.0000      -0.383020       -10.4225 
  67   2.0000      -0.378896       -10.3103 
  68   2.0000      -0.369965       -10.0673 
  69   2.0000      -0.367748       -10.0069 
  70   2.0000      -0.360842        -9.8190 
  71   2.0000      -0.348282        -9.4772 
  72   2.0000      -0.344656        -9.3786 
  73   2.0000      -0.342290        -9.3142 
  74   2.0000      -0.339824        -9.2471 
  75   2.0000      -0.332058        -9.0357 
  76   2.0000      -0.324787        -8.8379 
  77   2.0000      -0.319901        -8.7050 
  78   2.0000      -0.298388        -8.1196 
  79   2.0000      -0.296047        -8.0558 
  80   2.0000      -0.291873        -7.9423 
  81   2.0000      -0.285459        -7.7677 
  82   2.0000      -0.280996        -7.6463 
  83   2.0000      -0.268591        -7.3087 
  84   2.0000      -0.262631        -7.1465 
  85   2.0000      -0.247495        -6.7347 
  86   2.0000      -0.242826        -6.6076 
  87   2.0000      -0.234638        -6.3848 
  88   2.0000      -0.226266        -6.1570 
  89   2.0000      -0.216719        -5.8972 
  90   2.0000      -0.206042        -5.6067 
  91   2.0000      -0.185838        -5.0569 
  92   2.0000      -0.181847        -4.9483 
  93   2.0000      -0.176227        -4.7954 
  94   2.0000      -0.170128        -4.6294 
  95   2.0000      -0.150023        -4.0823 
  96   2.0000      -0.145518        -3.9597 
  97   2.0000      -0.141298        -3.8449 
  98   2.0000      -0.133323        -3.6279 
  99   2.0000      -0.103099        -2.8055 
 100   0.0000       0.050618         1.3774 
 101   0.0000       0.114777         3.1232 
 102   0.0000       0.123886         3.3711 
 103   0.0000       0.137680         3.7465 
 104   0.0000       0.146167         3.9774 
 105   0.0000       0.152408         4.1472 
 106   0.0000       0.153585         4.1793 
 107   0.0000       0.161781         4.4023 
 108   0.0000       0.171548         4.6681 
 109   0.0000       0.204634         5.5684 
 110   0.0000       0.220586         6.0025 
 111   0.0000       0.226636         6.1671 
 112   0.0000       0.238366         6.4863 
 113   0.0000       0.258417         7.0319 
 114   0.0000       0.263170         7.1612 
 115   0.0000       0.280272         7.6266 
 116   0.0000       0.290743         7.9115 
 117   0.0000       0.299765         8.1570 
 118   0.0000       0.300631         8.1806 
 119   0.0000       0.305246         8.3062 
 120   0.0000       0.314040         8.5455 
 121   0.0000       0.318500         8.6668 
 122   0.0000       0.324045         8.8177 
 123   0.0000       0.331121         9.0103 
 124   0.0000       0.340723         9.2715 
 125   0.0000       0.344681         9.3792 
 126   0.0000       0.355534         9.6746 
 127   0.0000       0.361936         9.8488 
 128   0.0000       0.378035        10.2869 
 129   0.0000       0.380841        10.3632 
 130   0.0000       0.386072        10.5055 
 131   0.0000       0.399075        10.8594 
 132   0.0000       0.406581        11.0636 
 133   0.0000       0.415477        11.3057 
 134   0.0000       0.423914        11.5353 
 135   0.0000       0.436359        11.8739 
 136   0.0000       0.449980        12.2446 
 137   0.0000       0.456132        12.4120 
 138   0.0000       0.461100        12.5472 
 139   0.0000       0.468324        12.7437 
 140   0.0000       0.487645        13.2695 
 141   0.0000       0.492703        13.4071 
 142   0.0000       0.497554        13.5391 
 143   0.0000       0.508734        13.8434 
 144   0.0000       0.515255        14.0208 
 145   0.0000       0.545773        14.8512 
 146   0.0000       0.551244        15.0001 
 147   0.0000       0.567850        15.4520 
 148   0.0000       0.574425        15.6309 
 149   0.0000       0.576197        15.6791 
 150   0.0000       0.588729        16.0201 
 151   0.0000       0.599852        16.3228 
 152   0.0000       0.607563        16.5326 
 153   0.0000       0.622950        16.9513 
 154   0.0000       0.630253        17.1501 
 155   0.0000       0.634224        17.2581 
 156   0.0000       0.643254        17.5038 
 157   0.0000       0.647786        17.6272 
 158   0.0000       0.661469        17.9995 
 159   0.0000       0.665662        18.1136 
 160   0.0000       0.668605        18.1937 
 161   0.0000       0.675851        18.3908 
 162   0.0000       0.678128        18.4528 
 163   0.0000       0.683479        18.5984 
 164   0.0000       0.695829        18.9345 
 165   0.0000       0.703318        19.1382 
 166   0.0000       0.708237        19.2721 
 167   0.0000       0.709907        19.3175 
 168   0.0000       0.716768        19.5043 
 169   0.0000       0.726654        19.7733 
 170   0.0000       0.730195        19.8696 
 171   0.0000       0.736455        20.0400 
 172   0.0000       0.745139        20.2763 
 173   0.0000       0.746662        20.3177 
 174   0.0000       0.751419        20.4472 
 175   0.0000       0.754753        20.5379 
 176   0.0000       0.759711        20.6728 
 177   0.0000       0.765706        20.8359 
 178   0.0000       0.773297        21.0425 
 179   0.0000       0.773800        21.0562 
 180   0.0000       0.784955        21.3597 
 181   0.0000       0.790328        21.5059 
 182   0.0000       0.795388        21.6436 
 183   0.0000       0.803545        21.8656 
 184   0.0000       0.815534        22.1918 
 185   0.0000       0.822208        22.3734 
 186   0.0000       0.833335        22.6762 
 187   0.0000       0.838178        22.8080 
 188   0.0000       0.844370        22.9765 
 189   0.0000       0.849296        23.1105 
 190   0.0000       0.861746        23.4493 
 191   0.0000       0.864454        23.5230 
 192   0.0000       0.867831        23.6149 
 193   0.0000       0.874218        23.7887 
 194   0.0000       0.892411        24.2837 
 195   0.0000       0.903639        24.5893 
 196   0.0000       0.912503        24.8305 
 197   0.0000       0.915572        24.9140 
 198   0.0000       0.931526        25.3481 
 199   0.0000       0.945842        25.7377 
 200   0.0000       0.961722        26.1698 
 201   0.0000       0.970101        26.3978 
 202   0.0000       0.978463        26.6253 
 203   0.0000       0.986453        26.8428 
 204   0.0000       1.010167        27.4880 
 205   0.0000       1.016792        27.6683 
 206   0.0000       1.028527        27.9876 
 207   0.0000       1.045252        28.4428 
 208   0.0000       1.056600        28.7516 
 209   0.0000       1.057883        28.7865 
 210   0.0000       1.072493        29.1840 
 211   0.0000       1.074720        29.2446 
 212   0.0000       1.080604        29.4047 
 213   0.0000       1.095647        29.8141 
 214   0.0000       1.095839        29.8193 
 215   0.0000       1.102770        30.0079 
 216   0.0000       1.115549        30.3556 
 217   0.0000       1.122637        30.5485 
 218   0.0000       1.125651        30.6305 
 219   0.0000       1.133416        30.8418 
 220   0.0000       1.152661        31.3655 
 221   0.0000       1.157946        31.5093 
 222   0.0000       1.162434        31.6314 
 223   0.0000       1.166422        31.7400 
 224   0.0000       1.189402        32.3653 
 225   0.0000       1.196515        32.5588 
 226   0.0000       1.200143        32.6576 
 227   0.0000       1.203675        32.7537 
 228   0.0000       1.212698        32.9992 
 229   0.0000       1.219445        33.1828 
 230   0.0000       1.222889        33.2765 
 231   0.0000       1.234888        33.6030 
 232   0.0000       1.242892        33.8208 
 233   0.0000       1.249358        33.9968 
 234   0.0000       1.254479        34.1361 
 235   0.0000       1.258563        34.2473 
 236   0.0000       1.267981        34.5035 
 237   0.0000       1.286767        35.0147 
 238   0.0000       1.300406        35.3859 
 239   0.0000       1.318163        35.8690 
 240   0.0000       1.326901        36.1068 
 241   0.0000       1.332190        36.2507 
 242   0.0000       1.344277        36.5796 
 243   0.0000       1.351071        36.7645 
 244   0.0000       1.365915        37.1684 
 245   0.0000       1.377912        37.4949 
 246   0.0000       1.409355        38.3505 
 247   0.0000       1.417494        38.5720 
 248   0.0000       1.424029        38.7498 
 249   0.0000       1.432685        38.9853 
 250   0.0000       1.443702        39.2851 
 251   0.0000       1.467759        39.9398 
 252   0.0000       1.477397        40.2020 
 253   0.0000       1.495337        40.6902 
 254   0.0000       1.504276        40.9334 
 255   0.0000       1.525372        41.5075 
 256   0.0000       1.535550        41.7844 
 257   0.0000       1.556504        42.3546 
 258   0.0000       1.592220        43.3265 
 259   0.0000       1.603969        43.6462 
 260   0.0000       1.617420        44.0122 
 261   0.0000       1.630609        44.3711 
 262   0.0000       1.646166        44.7944 
 263   0.0000       1.649044        44.8728 
 264   0.0000       1.663573        45.2681 
 265   0.0000       1.683380        45.8071 
 266   0.0000       1.684165        45.8285 
 267   0.0000       1.694243        46.1027 
 268   0.0000       1.709845        46.5272 
 269   0.0000       1.738170        47.2980 
 270   0.0000       1.746173        47.5158 
 271   0.0000       1.777813        48.3768 
 272   0.0000       1.778957        48.4079 
 273   0.0000       1.802814        49.0571 
 274   0.0000       1.884887        51.2904 
 275   0.0000       1.934376        52.6370 
 276   0.0000       1.944766        52.9198 
 277   0.0000       1.958256        53.2868 
 278   0.0000       1.963860        53.4394 
 279   0.0000       1.971805        53.6555 
 280   0.0000       1.986668        54.0600 
 281   0.0000       2.001203        54.4555 
 282   0.0000       2.025291        55.1110 
 283   0.0000       2.037127        55.4330 
 284   0.0000       2.065807        56.2135 
 285   0.0000       2.074319        56.4451 
 286   0.0000       2.088151        56.8215 
 287   0.0000       2.098499        57.1031 
 288   0.0000       2.103866        57.2491 
 289   0.0000       2.115273        57.5595 
 290   0.0000       2.127457        57.8911 
 291   0.0000       2.135360        58.1061 
 292   0.0000       2.161912        58.8286 
 293   0.0000       2.167428        58.9787 
 294   0.0000       2.187064        59.5130 
 295   0.0000       2.190697        59.6119 
 296   0.0000       2.211270        60.1717 
 297   0.0000       2.231410        60.7198 
 298   0.0000       2.233131        60.7666 
 299   0.0000       2.255320        61.3704 
 300   0.0000       2.266351        61.6706 
 301   0.0000       2.289527        62.3012 
 302   0.0000       2.311494        62.8990 
 303   0.0000       2.315518        63.0084 
 304   0.0000       2.321729        63.1775 
 305   0.0000       2.325647        63.2841 
 306   0.0000       2.330041        63.4036 
 307   0.0000       2.345176        63.8155 
 308   0.0000       2.361186        64.2511 
 309   0.0000       2.371426        64.5298 
 310   0.0000       2.382523        64.8318 
 311   0.0000       2.408406        65.5360 
 312   0.0000       2.425162        65.9920 
 313   0.0000       2.434440        66.2445 
 314   0.0000       2.461780        66.9884 
 315   0.0000       2.464156        67.0531 
 316   0.0000       2.483809        67.5879 
 317   0.0000       2.501511        68.0696 
 318   0.0000       2.513777        68.4034 
 319   0.0000       2.518522        68.5325 
 320   0.0000       2.542429        69.1830 
 321   0.0000       2.564207        69.7756 
 322   0.0000       2.570922        69.9583 
 323   0.0000       2.580318        70.2140 
 324   0.0000       2.585149        70.3455 
 325   0.0000       2.592847        70.5550 
 326   0.0000       2.602841        70.8269 
 327   0.0000       2.625128        71.4334 
 328   0.0000       2.637241        71.7630 
 329   0.0000       2.662122        72.4400 
 330   0.0000       2.676778        72.8388 
 331   0.0000       2.687988        73.1439 
 332   0.0000       2.735119        74.4264 
 333   0.0000       2.770676        75.3939 
 334   0.0000       2.778722        75.6129 
 335   0.0000       2.788879        75.8893 
 336   0.0000       2.800770        76.2128 
 337   0.0000       2.810199        76.4694 
 338   0.0000       2.833444        77.1019 
 339   0.0000       2.855880        77.7125 
 340   0.0000       2.866161        77.9922 
 341   0.0000       2.891577        78.6838 
 342   0.0000       2.903773        79.0157 
 343   0.0000       2.922441        79.5237 
 344   0.0000       2.926354        79.6301 
 345   0.0000       2.929715        79.7216 
 346   0.0000       2.951715        80.3202 
 347   0.0000       2.956503        80.4505 
 348   0.0000       2.974854        80.9499 
 349   0.0000       3.013551        82.0029 
 350   0.0000       3.022291        82.2407 
 351   0.0000       3.050985        83.0215 
 352   0.0000       3.063920        83.3735 
 353   0.0000       3.118382        84.8555 
 354   0.0000       3.224977        87.7561 
 355   0.0000       3.247926        88.3806 
 356   0.0000       3.295313        89.6700 
 357   0.0000       3.329575        90.6023 
 358   0.0000       3.445224        93.7493 
 359   0.0000       3.569934        97.1428 
 360   0.0000       3.573924        97.2514 
 361   0.0000       3.659565        99.5818 
 362   0.0000       3.681589       100.1811 
 363   0.0000       3.715128       101.0938 
 364   0.0000       3.795071       103.2691 
 365   0.0000       3.923499       106.7638 
 366   0.0000      13.389361       364.3430 
 367   0.0000      13.418554       365.1374 
 368   0.0000      13.765339       374.5739 
 369   0.0000      13.797650       375.4531 
 370   0.0000      13.822822       376.1381 
 371   0.0000      13.838121       376.5544 
 372   0.0000      14.028675       381.7396 
 373   0.0000      14.205460       386.5502 
 374   0.0000      14.243724       387.5914 
 375   0.0000      14.246568       387.6688 
 376   0.0000      14.260971       388.0607 
 377   0.0000      14.278132       388.5277 
 378   0.0000      14.321952       389.7201 
 379   0.0000      14.643981       398.4830 
 380   0.0000      14.674078       399.3020 
 381   0.0000      25.713203       699.6918 
 382   0.0000      25.884755       704.3600 
 383   0.0000      25.971295       706.7149 
 384   0.0000      51.717801      1407.3129 

                    ********************************
                    * MULLIKEN POPULATION ANALYSIS *
                    ********************************

-----------------------
MULLIKEN ATOMIC CHARGES
-----------------------
   0 C :   -0.128623
   1 C :    0.038642
   2 C :   -0.334972
   3 C :   -0.213281
   4 C :   -0.233209
   5 C :   -0.259506
   6 H :    0.352953
   7 H :    0.175036
   8 H :    0.160980
   9 H :    0.169060
  10 H :    0.169565
  11 C :   -0.471889
  12 C :   -0.520037
  13 H :    0.197270
  14 H :    0.252693
  15 C :    0.135934
  16 H :    0.276709
  17 H :    0.201572
  18 C :   -0.097808
  19 C :   -0.278680
  20 C :   -0.241890
  21 C :   -0.282715
  22 C :   -0.212655
  23 H :    0.280141
  24 H :    0.196466
  25 H :    0.184836
  26 H :    0.186547
  27 Pd:    0.068458
  28 Br:   -0.199472
  29 P :   -0.162827
  30 H :    0.111651
  31 C :    0.632981
  32 O :   -0.570383
  33 O :   -0.585970
  34 O :   -0.632791
  35 H :    0.113238
  36 H :    0.126885
  37 H :    0.395093
Sum of atomic charges:   -1.0000000

--------------------------------
MULLIKEN REDUCED ORBITAL CHARGES
--------------------------------
  0 C s       :     3.302516  s :     3.302516
      pz      :     0.878633  p :     2.790670
      px      :     0.978223
      py      :     0.933814
      dz2     :     0.005514  d :     0.035437
      dxz     :     0.005109
      dyz     :     0.006514
      dx2y2   :     0.012916
      dxy     :     0.005385
  1 C s       :     3.178024  s :     3.178024
      pz      :     0.960983  p :     2.735684
      px      :     0.875364
      py      :     0.899337
      dz2     :     0.005611  d :     0.047649
      dxz     :     0.009155
      dyz     :     0.006334
      dx2y2   :     0.011634
      dxy     :     0.014915
  2 C s       :     3.276274  s :     3.276274
      pz      :     1.018559  p :     3.017456
      px      :     0.961805
      py      :     1.037093
      dz2     :     0.003412  d :     0.041241
      dxz     :     0.007834
      dyz     :     0.004303
      dx2y2   :     0.011958
      dxy     :     0.013734
  3 C s       :     3.225576  s :     3.225576
      pz      :     1.015340  p :     2.947529
      px      :     0.990646
      py      :     0.941543
      dz2     :     0.005836  d :     0.040175
      dxz     :     0.004049
      dyz     :     0.006468
      dx2y2   :     0.013862
      dxy     :     0.009960
  4 C s       :     3.227043  s :     3.227043
      pz      :     1.019167  p :     2.965421
      px      :     0.965609
      py      :     0.980645
      dz2     :     0.004528  d :     0.040744
      dxz     :     0.006996
      dyz     :     0.005294
      dx2y2   :     0.009975
      dxy     :     0.013951
  5 C s       :     3.244469  s :     3.244469
      pz      :     1.041383  p :     2.974787
      px      :     0.933700
      py      :     0.999705
      dz2     :     0.003329  d :     0.040249
      dxz     :     0.008474
      dyz     :     0.005677
      dx2y2   :     0.012236
      dxy     :     0.010533
  6 H s       :     0.647047  s :     0.647047
  7 H s       :     0.824964  s :     0.824964
  8 H s       :     0.839020  s :     0.839020
  9 H s       :     0.830940  s :     0.830940
 10 H s       :     0.830435  s :     0.830435
 11 C s       :     3.344302  s :     3.344302
      pz      :     1.117155  p :     3.083709
      px      :     0.935295
      py      :     1.031259
      dz2     :     0.005735  d :     0.043877
      dxz     :     0.006192
      dyz     :     0.013534
      dx2y2   :     0.008898
      dxy     :     0.009520
 12 C s       :     3.377507  s :     3.377507
      pz      :     1.019996  p :     3.099357
      px      :     0.967515
      py      :     1.111846
      dz2     :     0.010245  d :     0.043173
      dxz     :     0.011598
      dyz     :     0.003503
      dx2y2   :     0.008502
      dxy     :     0.009324
 13 H s       :     0.802730  s :     0.802730
 14 H s       :     0.747307  s :     0.747307
 15 C s       :     3.160663  s :     3.160663
      pz      :     0.847764  p :     2.656172
      px      :     0.914763
      py      :     0.893645
      dz2     :     0.011599  d :     0.047231
      dxz     :     0.012121
      dyz     :     0.007756
      dx2y2   :     0.007715
      dxy     :     0.008041
 16 H s       :     0.723291  s :     0.723291
 17 H s       :     0.798428  s :     0.798428
 18 C s       :     3.304472  s :     3.304472
      pz      :     0.891698  p :     2.749972
      px      :     0.915862
      py      :     0.942412
      dz2     :     0.009693  d :     0.043365
      dxz     :     0.011138
      dyz     :     0.009213
      dx2y2   :     0.008058
      dxy     :     0.005264
 19 C s       :     3.280211  s :     3.280211
      pz      :     1.076673  p :     2.958751
      px      :     0.912418
      py      :     0.969660
      dz2     :     0.009432  d :     0.039718
      dxz     :     0.007668
      dyz     :     0.008577
      dx2y2   :     0.007213
      dxy     :     0.006827
 20 C s       :     3.246104  s :     3.246104
      pz      :     0.976159  p :     2.955288
      px      :     1.008014
      py      :     0.971114
      dz2     :     0.008419  d :     0.040498
      dxz     :     0.012248
      dyz     :     0.007522
      dx2y2   :     0.006700
      dxy     :     0.005609
 21 C s       :     3.268774  s :     3.268774
      pz      :     1.022528  p :     2.973472
      px      :     0.951416
      py      :     0.999528
      dz2     :     0.010440  d :     0.040469
      dxz     :     0.008519
      dyz     :     0.008042
      dx2y2   :     0.007039
      dxy     :     0.006429
 22 C s       :     3.230525  s :     3.230525
      pz      :     0.927166  p :     2.941223
      px      :     1.003546
      py      :     1.010511
      dz2     :     0.011373  d :     0.040907
      dxz     :     0.009395
      dyz     :     0.008510
      dx2y2   :     0.003385
      dxy     :     0.008245
 23 H s       :     0.719859  s :     0.719859
 24 H s       :     0.803534  s :     0.803534
 25 H s       :     0.815164  s :     0.815164
 26 H s       :     0.813453  s :     0.813453
 27 Pds       :     2.559707  s :     2.559707
      pz      :     2.110266  p :     6.334790
      px      :     2.122394
      py      :     2.102130
      dz2     :     1.926543  d :     9.034513
      dxz     :     1.954382
      dyz     :     1.951130
      dx2y2   :     1.921350
      dxy     :     1.281107
      f0      :     0.000235  f :     0.002533
      f+1     :     0.000325
      f-1     :     0.000295
      f+2     :     0.000063
      f-2     :     0.000265
      f+3     :     0.000626
      f-3     :     0.000724
 28 Brs       :     7.943205  s :     7.943205
      pz      :     5.849228  p :    17.209574
      px      :     5.875419
      py      :     5.484926
      dz2     :     2.004262  d :    10.046693
      dxz     :     2.002741
      dyz     :     2.016005
      dx2y2   :     2.019279
      dxy     :     2.004407
 29 P s       :     5.601881  s :     5.601881
      pz      :     3.040501  p :     9.360991
      px      :     3.088829
      py      :     3.231660
      dz2     :     0.031909  d :     0.199956
      dxz     :     0.025266
      dyz     :     0.060397
      dx2y2   :     0.063853
      dxy     :     0.018530
 30 H s       :     0.888349  s :     0.888349
 31 C s       :     2.796860  s :     2.796860
      pz      :     0.785192  p :     2.383880
      px      :     0.851066
      py      :     0.747622
      dz2     :     0.026376  d :     0.186279
      dxz     :     0.037792
      dyz     :     0.023341
      dx2y2   :     0.052203
      dxy     :     0.046567
 32 O s       :     3.752574  s :     3.752574
      pz      :     1.642589  p :     4.790799
      px      :     1.410145
      py      :     1.738065
      dz2     :     0.003334  d :     0.027010
      dxz     :     0.007375
      dyz     :     0.001703
      dx2y2   :     0.008006
      dxy     :     0.006592
 33 O s       :     3.775511  s :     3.775511
      pz      :     1.502684  p :     4.787230
      px      :     1.601824
      py      :     1.682722
      dz2     :     0.005000  d :     0.023229
      dxz     :     0.005760
      dyz     :     0.003603
      dx2y2   :     0.003371
      dxy     :     0.005494
 34 O s       :     3.805487  s :     3.805487
      pz      :     1.717130  p :     4.798059
      px      :     1.635813
      py      :     1.445116
      dz2     :     0.002605  d :     0.029245
      dxz     :     0.007903
      dyz     :     0.003177
      dx2y2   :     0.006570
      dxy     :     0.008990
 35 H s       :     0.886762  s :     0.886762
 36 H s       :     0.873115  s :     0.873115
 37 H s       :     0.604907  s :     0.604907


                     *******************************
                     * LOEWDIN POPULATION ANALYSIS *
                     *******************************

----------------------
LOEWDIN ATOMIC CHARGES
----------------------
   0 C :   -0.175082
   1 C :   -0.070137
   2 C :   -0.161889
   3 C :   -0.171010
   4 C :   -0.173126
   5 C :   -0.161823
   6 H :    0.276084
   7 H :    0.110704
   8 H :    0.110776
   9 H :    0.112922
  10 H :    0.112782
  11 C :   -0.214354
  12 C :   -0.213634
  13 H :    0.118031
  14 H :    0.145167
[...]
      dyz     :     0.006721
      dx2y2   :     0.016775
      dxy     :     0.020033
 13 H s       :     0.881969  s :     0.881969
 14 H s       :     0.854833  s :     0.854833
 15 C s       :     2.836474  s :     2.836474
      pz      :     1.056163  p :     3.082065
      px      :     1.028264
      py      :     0.997638
      dz2     :     0.027753  d :     0.114413
      dxz     :     0.030589
      dyz     :     0.019944
      dx2y2   :     0.016793
      dxy     :     0.019334
 16 H s       :     0.835262  s :     0.835262
 17 H s       :     0.882245  s :     0.882245
 18 C s       :     2.869126  s :     2.869126
      pz      :     1.055381  p :     3.015750
      px      :     1.007576
      py      :     0.952793
      dz2     :     0.024770  d :     0.100128
      dxz     :     0.026941
      dyz     :     0.021234
      dx2y2   :     0.015677
      dxy     :     0.011506
 19 C s       :     2.884816  s :     2.884816
      pz      :     1.078886  p :     3.144984
      px      :     1.036315
      py      :     1.029784
      dz2     :     0.020275  d :     0.089396
      dxz     :     0.019268
      dyz     :     0.016850
      dx2y2   :     0.015933
      dxy     :     0.017070
 20 C s       :     2.887484  s :     2.887484
      pz      :     1.071718  p :     3.168522
      px      :     1.051413
      py      :     1.045391
      dz2     :     0.020618  d :     0.092506
      dxz     :     0.026213
      dyz     :     0.018639
      dx2y2   :     0.013864
      dxy     :     0.013173
 21 C s       :     2.882581  s :     2.882581
      pz      :     1.068550  p :     3.168766
      px      :     1.060953
      py      :     1.039263
      dz2     :     0.023095  d :     0.093256
      dxz     :     0.021709
      dyz     :     0.016797
      dx2y2   :     0.015948
      dxy     :     0.015706
 22 C s       :     2.884086  s :     2.884086
      pz      :     1.090418  p :     3.177776
      px      :     1.051221
      py      :     1.036138
      dz2     :     0.028322  d :     0.094019
      dxz     :     0.023772
      dyz     :     0.020333
      dx2y2   :     0.006660
      dxy     :     0.014932
 23 H s       :     0.830042  s :     0.830042
 24 H s       :     0.873576  s :     0.873576
 25 H s       :     0.876295  s :     0.876295
 26 H s       :     0.877685  s :     0.877685
 27 Pds       :     2.542911  s :     2.542911
      pz      :     2.209629  p :     6.878545
      px      :     2.354943
      py      :     2.313973
      dz2     :     1.981114  d :     9.354605
      dxz     :     1.995071
      dyz     :     1.990347
      dx2y2   :     1.966948
      dxy     :     1.421124
      f0      :     0.000286  f :     0.003270
      f+1     :     0.000419
      f-1     :     0.000385
      f+2     :     0.000080
      f-2     :     0.000342
      f+3     :     0.000835
      f-3     :     0.000924
 28 Brs       :     7.790054  s :     7.790054
      pz      :     5.820502  p :    17.092678
      px      :     5.838137
      py      :     5.434039
      dz2     :     2.004516  d :    10.049459
      dxz     :     2.003065
      dyz     :     2.016332
      dx2y2   :     2.019656
      dxy     :     2.005890
 29 P s       :     5.236599  s :     5.236599
      pz      :     2.988607  p :     9.126641
      px      :     3.023271
      py      :     3.114763
      dz2     :     0.039034  d :     0.240251
      dxz     :     0.028793
      dyz     :     0.072122
      dx2y2   :     0.075216
      dxy     :     0.025086
 30 H s       :     0.948197  s :     0.948197
 31 C s       :     2.776973  s :     2.776973
      pz      :     0.847096  p :     2.741173
      px      :     1.017683
      py      :     0.876394
      dz2     :     0.057785  d :     0.419421
      dxz     :     0.084915
      dyz     :     0.053125
      dx2y2   :     0.119562
      dxy     :     0.104035
 32 O s       :     3.517692  s :     3.517692
      pz      :     1.622056  p :     4.812866
      px      :     1.478338
      py      :     1.712471
      dz2     :     0.006687  d :     0.051046
      dxz     :     0.012813
      dyz     :     0.002437
      dx2y2   :     0.015882
      dxy     :     0.013226
 33 O s       :     3.506274  s :     3.506274
      pz      :     1.501782  p :     4.796304
      px      :     1.616117
      py      :     1.678405
      dz2     :     0.008014  d :     0.047091
      dxz     :     0.013168
      dyz     :     0.008474
      dx2y2   :     0.006788
      dxy     :     0.010648
 34 O s       :     3.516295  s :     3.516295
      pz      :     1.701082  p :     4.796502
      px      :     1.628979
      py      :     1.466441
      dz2     :     0.004674  d :     0.051200
      dxz     :     0.010746
      dyz     :     0.008184
      dx2y2   :     0.011450
      dxy     :     0.016147
 35 H s       :     0.948937  s :     0.948937
 36 H s       :     0.940481  s :     0.940481
 37 H s       :     0.698694  s :     0.698694


                      *****************************
                      * MAYER POPULATION ANALYSIS *
                      *****************************

  NA   - Mulliken gross atomic population
  ZA   - Total nuclear charge
  QA   - Mulliken gross atomic charge
  VA   - Mayer's total valence
  BVA  - Mayer's bonded valence
  FA   - Mayer's free valence

  ATOM       NA         ZA         QA         VA         BVA        FA
  0 C      6.1286     6.0000    -0.1286     3.5230     3.5230    -0.0000
  1 C      5.9614     6.0000     0.0386     3.8511     3.8511    -0.0000
  2 C      6.3350     6.0000    -0.3350     3.9038     3.9038     0.0000
  3 C      6.2133     6.0000    -0.2133     3.8214     3.8214    -0.0000
  4 C      6.2332     6.0000    -0.2332     3.8664     3.8664    -0.0000
  5 C      6.2595     6.0000    -0.2595     3.8227     3.8227    -0.0000
  6 H      0.6470     1.0000     0.3530     0.8704     0.8704    -0.0000
  7 H      0.8250     1.0000     0.1750     0.9234     0.9234     0.0000
  8 H      0.8390     1.0000     0.1610     0.9308     0.9308     0.0000
  9 H      0.8309     1.0000     0.1691     0.9248     0.9248    -0.0000
 10 H      0.8304     1.0000     0.1696     0.9236     0.9236     0.0000
 11 C      6.4719     6.0000    -0.4719     3.6663     3.6663     0.0000
 12 C      6.5200     6.0000    -0.5200     3.6711     3.6711     0.0000
 13 H      0.8027     1.0000     0.1973     0.9127     0.9127     0.0000
 14 H      0.7473     1.0000     0.2527     0.8880     0.8880     0.0000
 15 C      5.8641     6.0000     0.1359     3.6965     3.6965    -0.0000
 16 H      0.7233     1.0000     0.2767     0.8938     0.8938     0.0000
 17 H      0.7984     1.0000     0.2016     0.9107     0.9107    -0.0000
 18 C      6.0978     6.0000    -0.0978     3.8297     3.8297    -0.0000
 19 C      6.2787     6.0000    -0.2787     3.7463     3.7463     0.0000
 20 C      6.2419     6.0000    -0.2419     3.8203     3.8203     0.0000
 21 C      6.2827     6.0000    -0.2827     3.8305     3.8305    -0.0000
 22 C      6.2127     6.0000    -0.2127     3.8204     3.8204     0.0000
 23 H      0.7199     1.0000     0.2801     0.9138     0.9138    -0.0000
 24 H      0.8035     1.0000     0.1965     0.9193     0.9193    -0.0000
 25 H      0.8152     1.0000     0.1848     0.9251     0.9251    -0.0000
 26 H      0.8135     1.0000     0.1865     0.9209     0.9209     0.0000
 27 Pd    17.9315    18.0000     0.0685     2.8132     2.8132    -0.0000
 28 Br    35.1995    35.0000    -0.1995     1.1683     1.1683    -0.0000
 29 P     15.1628    15.0000    -0.1628     3.5999     3.5999    -0.0000
 30 H      0.8883     1.0000     0.1117     0.9565     0.9565     0.0000
 31 C      5.3670     6.0000     0.6330     4.3860     4.3860     0.0000
 32 O      8.5704     8.0000    -0.5704     2.0285     2.0285    -0.0000
 33 O      8.5860     8.0000    -0.5860     1.9954     1.9954    -0.0000
 34 O      8.6328     8.0000    -0.6328     1.9064     1.9064     0.0000
 35 H      0.8868     1.0000     0.1132     0.9595     0.9595    -0.0000
 36 H      0.8731     1.0000     0.1269     0.9555     0.9555     0.0000
 37 H      0.6049     1.0000     0.3951     0.8326     0.8326    -0.0000

  Mayer bond orders larger than 0.100000
B(  0-C ,  1-C ) :   1.4573 B(  0-C ,  2-C ) :   1.4185 B(  0-C , 27-Pd) :   0.5181 
B(  1-C ,  5-C ) :   1.3813 B(  1-C , 11-C ) :   0.9559 B(  2-C ,  3-C ) :   1.4279 
B(  2-C ,  7-H ) :   0.9200 B(  3-C ,  4-C ) :   1.4278 B(  3-C ,  9-H ) :   0.9285 
B(  4-C ,  5-C ) :   1.4527 B(  4-C , 10-H ) :   0.9290 B(  5-C ,  8-H ) :   0.9250 
B(  6-H , 28-Br) :   0.7774 B( 11-C , 12-C ) :   0.9218 B( 11-C , 13-H ) :   0.9345 
B( 11-C , 14-H ) :   0.9016 B( 12-C , 15-C ) :   0.9697 B( 12-C , 16-H ) :   0.8794 
B( 12-C , 17-H ) :   0.9295 B( 15-C , 18-C ) :   1.3416 B( 15-C , 21-C ) :   1.4060 
B( 18-C , 19-C ) :   1.4079 B( 18-C , 27-Pd) :   0.8516 B( 19-C , 20-C ) :   1.4025 
B( 19-C , 23-H ) :   0.8628 B( 20-C , 22-C ) :   1.4315 B( 20-C , 24-H ) :   0.9252 
B( 21-C , 22-C ) :   1.4237 B( 21-C , 25-H ) :   0.9248 B( 22-C , 26-H ) :   0.9280 
B( 27-Pd, 28-Br) :   0.2452 B( 27-Pd, 29-P ) :   0.6327 B( 27-Pd, 33-O ) :   0.2155 
B( 29-P , 30-H ) :   0.9300 B( 29-P , 35-H ) :   0.9306 B( 29-P , 36-H ) :   0.9257 
B( 31-C , 32-O ) :   1.7783 B( 31-C , 33-O ) :   1.5826 B( 31-C , 34-O ) :   1.0036 
B( 34-O , 37-H ) :   0.7938 


------------------
HIRSHFELD ANALYSIS
------------------

Total integrated alpha density =     99.999713027
Total integrated beta density  =     99.999713027

  ATOM     CHARGE      SPIN    
   0 C   -0.229509    0.000000
   1 C   -0.034417    0.000000
   2 C   -0.085282    0.000000
   3 C   -0.079439    0.000000
   4 C   -0.083140    0.000000
   5 C   -0.077243    0.000000
   6 H    0.116501    0.000000
   7 H    0.002288    0.000000
   8 H    0.017381    0.000000
   9 H    0.020917    0.000000
  10 H    0.021650    0.000000
  11 C   -0.053242    0.000000
  12 C   -0.061135    0.000000
  13 H    0.013363    0.000000
  14 H    0.019986    0.000000
  15 C   -0.019432    0.000000
  16 H    0.003091    0.000000
  17 H    0.015790    0.000000
  18 C   -0.093401    0.000000
  19 C   -0.057653    0.000000
  20 C   -0.060768    0.000000
  21 C   -0.062597    0.000000
  22 C   -0.067908    0.000000
  23 H    0.038822    0.000000
  24 H    0.033039    0.000000
  25 H    0.028285    0.000000
  26 H    0.030769    0.000000
  27 Pd   0.446828    0.000000
  28 Br  -0.090324    0.000000
  29 P    0.126973    0.000000
  30 H    0.001621    0.000000
  31 C    0.213559    0.000000
  32 O   -0.452128    0.000000
  33 O   -0.440577    0.000000
  34 O   -0.280984    0.000000
  35 H    0.007480    0.000000
  36 H    0.015969    0.000000
  37 H    0.155439    0.000000

  TOTAL  -0.999426    0.000000

-------
TIMINGS
-------

Total SCF time: 0 days 0 hours 20 min 16 sec 

Total time                  ....    1216.944 sec
Sum of individual times     ....    1215.374 sec  ( 99.9%)

Fock matrix formation       ....    1204.083 sec  ( 98.9%)
  Split-RI-J                ....     191.947 sec  ( 15.9% of F)
  Chain of spheres X        ....     932.321 sec  ( 77.4% of F)
  XC integration            ....      79.683 sec  (  6.6% of F)
    Basis function eval.    ....      21.263 sec  ( 26.7% of XC)
    Density eval.           ....      27.723 sec  ( 34.8% of XC)
    XC-Functional eval.     ....       2.331 sec  (  2.9% of XC)
    XC-Potential eval.      ....      23.252 sec  ( 29.2% of XC)
Diagonalization             ....       1.257 sec  (  0.1%)
Density matrix formation    ....       0.266 sec  (  0.0%)
Population analysis         ....       1.017 sec  (  0.1%)
Initial guess               ....       0.161 sec  (  0.0%)
Orbital Transformation      ....       2.043 sec  (  0.2%)
Orbital Orthonormalization  ....       0.000 sec  (  0.0%)
DIIS solution               ....       0.512 sec  (  0.0%)
Grid generation             ....       6.034 sec  (  0.5%)

Maximum memory used throughout the entire SCF-calculation: 180.7 MB


-------------------------------------------------------------------------------
                          DFT DISPERSION CORRECTION                            
                                                                               
                              DFTD3 V3.1  Rev 1                                
                          USING Becke-Johnson damping                          
-------------------------------------------------------------------------------
The PBEh-3c composite method is recognized
Using three-body term ABC
Active option DFTDOPT                   ...         4   

molecular C6(AA) [au] = 24302.820066 


            DFT-D V3
 parameters
 s6 scaling factor         :     1.0000 
 a1 scaling factor         :     0.4860 
 s8 scaling factor         :     0.0000 
 a2 scaling factor         :     4.5000 
 Damping factor alpha9(ATM):    16.0000 
 ad hoc parameters k1-k3   :    16.0000     1.3333    -4.0000 

 Edisp/kcal,au: -19.895936231660  -0.031706189200 
 E6   /kcal   : -20.111568679 
 E8   /kcal   :  -0.000000000 
 E6(ABC)      :   0.215632447 
 % E8         :   0.000000000 
 % E6(ABC)    :  -1.083801459 

-------------------------   ----------------
Dispersion correction           -0.031706189
-------------------------   ----------------

 ** NOTE ** -> element pd will be treated as ni
------------------   -----------------
gCP correction             0.074069230
------------------   -----------------

-------------------------   --------------------
FINAL SINGLE POINT ENERGY     -3847.577821945435
-------------------------   --------------------

------------------------------------------------------------------------------
                         ORCA SCF GRADIENT CALCULATION
------------------------------------------------------------------------------

 ... reading COSX grid (gridx3)
Gradient of the Kohn-Sham DFT energy:
Kohn-Sham wavefunction type      ... RKS
Hartree-Fock exchange scaling    ...    0.420
Number of operators              ...    1
Number of atoms                  ...   38
Basis set dimensions             ...  385
Integral neglect threshold       ... 2.5e-11
Integral primitive cutoff        ... 2.5e-12
SHARK Integral package           ... ON

Nuc. rep. gradient       (SHARK) ... done (  0.0 sec)
HCore & Overlap gradient (SHARK) ... done (  1.3 sec)
ECP gradient             (SHARK) ... done (  1.6 sec)
RI-J gradient            (SHARK) ... done (  6.5 sec)
COSX-gradient                    ... done ( 61.9 sec)
Exchange-correlation gradient    ... done
Dispersion correction            ... done
gCP correction                   ... done

------------------
CARTESIAN GRADIENT
------------------

   1   C   :   -0.004368491    0.001381988    0.005506425
   2   C   :   -0.000852548   -0.007053611   -0.005719505
   3   C   :   -0.001694264    0.002723568    0.005339798
   4   C   :   -0.006606118    0.006586764    0.005285007
   5   C   :   -0.000853248    0.001379485   -0.002617084
   6   C   :   -0.001996686   -0.003971641    0.001439056
   7   H   :    0.003968110    0.012803007    0.002816369
   8   H   :   -0.002400774   -0.002863403    0.003386453
   9   H   :   -0.000586471    0.004459816    0.002027470
  10   H   :   -0.003014668    0.002536449   -0.000087906
  11   H   :    0.001060061    0.000094145   -0.001457540
  12   C   :   -0.003503189   -0.001210818    0.004688971
  13   C   :    0.000208330   -0.000937148   -0.003644596
  14   H   :   -0.001562154   -0.005566191   -0.005191352
  15   H   :    0.000963555    0.000669664    0.000665344
  16   C   :    0.000436673    0.000400535   -0.003513373
  17   H   :    0.002368617   -0.000436769   -0.001994117
  18   H   :   -0.000286669   -0.000074095   -0.002117034
  19   C   :   -0.000858557    0.003684289   -0.002649651
  20   C   :    0.003256261   -0.002058013   -0.001267600
  21   C   :    0.001713475    0.005792486    0.004562418
  22   C   :    0.003156697   -0.001360029   -0.000874324
  23   C   :   -0.002671330   -0.001891457   -0.002156622
  24   H   :    0.004874981    0.002874101    0.003723038
  25   H   :    0.000819736    0.001614170    0.002378798
  26   H   :    0.001485141   -0.003301790   -0.003353172
  27   H   :   -0.000423309    0.002184575    0.000321479
  28   Pd  :    0.009630680   -0.008808088   -0.002435363
  29   Br  :    0.009475997   -0.003059522   -0.001333517
  30   P   :    0.000625899   -0.002901685    0.001933553
  31   H   :   -0.000685498    0.001507504   -0.001361152
  32   C   :    0.008264259   -0.010364472   -0.011311518
  33   O   :   -0.017093683    0.006963486    0.006610810
  34   O   :    0.003502790    0.002709784   -0.004717630
  35   O   :    0.003907519   -0.006995304    0.003874023
  36   H   :   -0.006365110    0.000439194   -0.000705527
  37   H   :   -0.001348523    0.001812490    0.002263022
  38   H   :   -0.001220735    0.000973412    0.001619319

Difference to translation invariance:
           :    0.0013267523    0.0007368746   -0.0000672302

Difference to rotation invariance:
           :    0.0023693658   -0.0044527964    0.0068394599

Norm of the cartesian gradient     ...    0.0456302888
RMS gradient                       ...    0.0042736681
MAX gradient                       ...    0.0170936829

-------
TIMINGS
-------

Total SCF gradient time            ...       85.174 sec

One electron gradient       ....       2.851 sec  (  3.3%)
RI-J Coulomb gradient       ....       6.490 sec  (  7.6%)
COSX gradient               ....      61.858 sec  ( 72.6%)
XC gradient                 ....      11.026 sec  ( 12.9%)

Maximum memory used throughout the entire SCFGRAD-calculation: 146.1 MB

                            ***************************************
                            *     ORCA property calculations      *
                            ***************************************

                                    ---------------------
                                    Active property flags
                                    ---------------------
   (+) Dipole Moment


------------------------------------------------------------------------------
                       ORCA ELECTRIC PROPERTIES CALCULATION
------------------------------------------------------------------------------

Dipole Moment Calculation                       ... on
Quadrupole Moment Calculation                   ... off
Polarizability Calculation                      ... off
GBWName                                         ... 4_16_orca.gbw
Electron density                                ... 4_16_orca.scfp
The origin for moment calculation is the CENTER OF MASS  = (-0.445658, -1.765290 -0.942644)

-------------
DIPOLE MOMENT
-------------
                                X             Y             Z
Electronic contribution:      2.79880     -64.83247     -19.16258
Nuclear contribution   :     -1.27987      63.96809      21.71343
                        -----------------------------------------
Total Dipole Moment    :      1.51892      -0.86439       2.55086
                        -----------------------------------------
Magnitude (a.u.)       :      3.09211
Magnitude (Debye)      :      7.85953



--------------------
Rotational spectrum 
--------------------
 
Rotational constants in cm-1:     0.007086     0.006435     0.004440 
Rotational constants in MHz :   212.420228   192.901863   133.095197 

 Dipole components along the rotational axes: 
x,y,z [a.u.] :     0.288374     1.204739     2.833127 
x,y,z [Debye]:     0.732989     3.062203     7.201236 

 

Timings for individual modules:

Sum of individual times         ...     1303.657 sec (=  21.728 min)
GTO integral calculation        ...        1.471 sec (=   0.025 min)   0.1 %
SCF iterations                  ...     1216.969 sec (=  20.283 min)  93.4 %
SCF Gradient evaluation         ...       85.216 sec (=   1.420 min)   6.5 %
                             ****ORCA TERMINATED NORMALLY****
TOTAL RUN TIME: 0 days 0 hours 21 minutes 44 seconds 292 msec
