
                                 *****************
                                 * O   R   C   A *
                                 *****************

                                            #,                                       
                                            ###                                      
                                            ####                                     
                                            #####                                    
                                            ######                                   
                                           ########,                                 
                                     ,,################,,,,,                         
                               ,,#################################,,                 
                          ,,##########################################,,             
                       ,#########################################, ''#####,          
                    ,#############################################,,   '####,        
                  ,##################################################,,,,####,       
                ,###########''''           ''''###############################       
              ,#####''   ,,,,##########,,,,          '''####'''          '####       
            ,##' ,,,,###########################,,,                        '##       
           ' ,,###''''                  '''############,,,                           
         ,,##''                                '''############,,,,        ,,,,,,###''
      ,#''                                            '''#######################'''  
     '                                                          ''''####''''         
             ,#######,   #######,   ,#######,      ##                                
            ,#'     '#,  ##    ##  ,#'     '#,    #''#        ######   ,####,        
            ##       ##  ##   ,#'  ##            #'  '#       #        #'  '#        
            ##       ##  #######   ##           ,######,      #####,   #    #        
            '#,     ,#'  ##    ##  '#,     ,#' ,#      #,         ##   #,  ,#        
             '#######'   ##     ##  '#######'  #'      '#     #####' # '####'        



                  #######################################################
                  #                        -***-                        #
                  #          Department of theory and spectroscopy      #
                  #    Directorship and core code : Frank Neese         #
                  #        Max Planck Institute fuer Kohlenforschung    #
                  #                Kaiser Wilhelm Platz 1               #
                  #                 D-45470 Muelheim/Ruhr               #
                  #                      Germany                        #
                  #                                                     #
                  #                  All rights reserved                #
                  #                        -***-                        #
                  #######################################################


                         Program Version 5.0.4 -  RELEASE  -


 With contributions from (in alphabetic order):
   Daniel Aravena         : Magnetic Suceptibility
   Michael Atanasov       : Ab Initio Ligand Field Theory (pilot matlab implementation)
   Alexander A. Auer      : GIAO ZORA, VPT2 properties, NMR spectrum
   Ute Becker             : Parallelization
   Giovanni Bistoni       : ED, misc. LED, open-shell LED, HFLD
   Martin Brehm           : Molecular dynamics
   Dmytro Bykov           : SCF Hessian
   Vijay G. Chilkuri      : MRCI spin determinant printing, contributions to CSF-ICE
   Dipayan Datta          : RHF DLPNO-CCSD density
   Achintya Kumar Dutta   : EOM-CC, STEOM-CC
   Dmitry Ganyushin       : Spin-Orbit,Spin-Spin,Magnetic field MRCI
   Miquel Garcia          : C-PCM and meta-GGA Hessian, CC/C-PCM, Gaussian charge scheme
   Yang Guo               : DLPNO-NEVPT2, F12-NEVPT2, CIM, IAO-localization
   Andreas Hansen         : Spin unrestricted coupled pair/coupled cluster methods
   Benjamin Helmich-Paris : MC-RPA, TRAH-SCF, COSX integrals
   Lee Huntington         : MR-EOM, pCC
   Robert Izsak           : Overlap fitted RIJCOSX, COSX-SCS-MP3, EOM
   Marcus Kettner         : VPT2
   Christian Kollmar      : KDIIS, OOCD, Brueckner-CCSD(T), CCSD density, CASPT2, CASPT2-K
   Simone Kossmann        : Meta GGA functionals, TD-DFT gradient, OOMP2, MP2 Hessian
   Martin Krupicka        : Initial AUTO-CI
   Lucas Lang             : DCDCAS
   Marvin Lechner         : AUTO-CI (C++ implementation), FIC-MRCC
   Dagmar Lenk            : GEPOL surface, SMD
   Dimitrios Liakos       : Extrapolation schemes; Compound Job, initial MDCI parallelization
   Dimitrios Manganas     : Further ROCIS development; embedding schemes
   Dimitrios Pantazis     : SARC Basis sets
   Anastasios Papadopoulos: AUTO-CI, single reference methods and gradients
   Taras Petrenko         : DFT Hessian,TD-DFT gradient, ASA, ECA, R-Raman, ABS, FL, XAS/XES, NRVS
   Peter Pinski           : DLPNO-MP2, DLPNO-MP2 Gradient
   Christoph Reimann      : Effective Core Potentials
   Marius Retegan         : Local ZFS, SOC
   Christoph Riplinger    : Optimizer, TS searches, QM/MM, DLPNO-CCSD(T), (RO)-DLPNO pert. Triples
   Tobias Risthaus        : Range-separated hybrids, TD-DFT gradient, RPA, STAB
   Michael Roemelt        : Original ROCIS implementation
   Masaaki Saitow         : Open-shell DLPNO-CCSD energy and density
   Barbara Sandhoefer     : DKH picture change effects
   Avijit Sen             : IP-ROCIS
   Kantharuban Sivalingam : CASSCF convergence, NEVPT2, FIC-MRCI
   Bernardo de Souza      : ESD, SOC TD-DFT
   Georgi Stoychev        : AutoAux, RI-MP2 NMR, DLPNO-MP2 response
   Willem Van den Heuvel  : Paramagnetic NMR
   Boris Wezisla          : Elementary symmetry handling
   Frank Wennmohs         : Technical directorship


 We gratefully acknowledge several colleagues who have allowed us to
 interface, adapt or use parts of their codes:
   Stefan Grimme, W. Hujo, H. Kruse, P. Pracht,  : VdW corrections, initial TS optimization,
                  C. Bannwarth, S. Ehlert          DFT functionals, gCP, sTDA/sTD-DF
   Ed Valeev, F. Pavosevic, A. Kumar             : LibInt (2-el integral package), F12 methods
   Garnet Chan, S. Sharma, J. Yang, R. Olivares  : DMRG
   Ulf Ekstrom                                   : XCFun DFT Library
   Mihaly Kallay                                 : mrcc  (arbitrary order and MRCC methods)
   Jiri Pittner, Ondrej Demel                    : Mk-CCSD
   Frank Weinhold                                : gennbo (NPA and NBO analysis)
   Christopher J. Cramer and Donald G. Truhlar   : smd solvation model
   Lars Goerigk                                  : TD-DFT with DH, B97 family of functionals
   V. Asgeirsson, H. Jonsson                     : NEB implementation
   FAccTs GmbH                                   : IRC, NEB, NEB-TS, DLPNO-Multilevel, CI-OPT
                                                   MM, QMMM, 2- and 3-layer-ONIOM, Crystal-QMMM,
                                                   LR-CPCM, SF, NACMEs, symmetry and pop. for TD-DFT,
                                                   nearIR, NL-DFT gradient (VV10), updates on ESD,
                                                   ML-optimized integration grids
   S Lehtola, MJT Oliveira, MAL Marques          : LibXC Library
   Liviu Ungur et al                             : ANISO software


 Your calculation uses the libint2 library for the computation of 2-el integrals
 For citations please refer to: http://libint.valeyev.net

 Your ORCA version has been built with support for libXC version: 5.1.0
 For citations please refer to: https://tddft.org/programs/libxc/

 This ORCA versions uses:
   CBLAS   interface :  Fast vector & matrix operations
   LAPACKE interface :  Fast linear algebra routines
   SCALAPACK package :  Parallel linear algebra routines
   Shared memory     :  Shared parallel matrices
   BLAS/LAPACK       :  OpenBLAS 0.3.15  USE64BITINT DYNAMIC_ARCH NO_AFFINITY SkylakeX SINGLE_THREADED
        Core in use  :  SkylakeX
   Copyright (c) 2011-2014, The OpenBLAS Project




***************************************
The coordinates will be read from file: cineb-10-peak.xyz
***************************************




################################################################################


                                COMPOUND JOB MainJOB 
Basename: reaction-6-cineb10_optts_Compound_0

################################################################################

================================================================================
                                       INPUT FILE
================================================================================
NAME = reaction-6-cineb10_optts_Compound_0.inp
|  1> %pal nprocs 8 end 
|  2>   
|  3>  *xyzfile -1 1 cineb-10-peak.xyz 
|  4>   
|  5> 
|  6>                          ****END OF INPUT****
================================================================================


***************************************
The coordinates will be read from file: cineb-10-peak.xyz
***************************************


================================================================================

cite the ECPs for Pt [Def2-ECP] as follows:
Ce-Yb(ecp-28): M. Dolg, H. Stoll, H.Preuss, J. Chem. Phys., 1989, 90, 1730-1734.
Y-Cd(ecp-28), Hf-Hg(ecp-46): D. Andrae,U. Haeussermann, M. Dolg, H. Stoll, H. Preuss, Theor. Chim. Acta, 1990, 77, 123-141.
In-Sb(ecp-28), Tl-Bi(ecp-46): B. Metz, H. Stoll, M. Dolg, J. Chem. Phys., 2000, 113, 2563-2569.
Te-Xe(ecp-28), Po-Rn(ecp-46): K. A. Peterson, D. Figgen, E. Goll, H. Stoll, M. Dolg, J. Chem. Phys., 2003, 119, 11113-11123.
Rb(ecp-28), Cs(ecp-46): T. Leininger, A. Nicklass, W. Kuechle, H. Stoll, M. Dolg, A. Bergner, Chem. Phys. Lett., 1996, 255, 274-280.
Sr(ecp-28), Ba(ecp-46): M. Kaupp, P. V. Schleyer, H. Stoll and H. Preuss, J. Chem. Phys., 1991, 94, 1360-1366.
La(ecp-46): M. Dolg, H. Stoll, A. Savin, H. Preuss, Theor. Chim. Acta, 1989, 75, 173-194.
Lu(ecp-28): X. Cao, M. Dolg, J. Chem. Phys., 2001, 115, 7348-7355.

ECP parameters for Pt [Def2-ECP] have been obtained from:
TURBOMOLE (7.0.2)

----- Orbital basis set information -----
Your calculation utilizes the basis: def2-SVP
   F. Weigend and R. Ahlrichs, Phys. Chem. Chem. Phys. 7, 3297 (2005).



################################################################################


                                COMPOUND JOB  1 
Basename: reaction-6-cineb10_optts_Compound_1
NOTE: please remember that MaxCore and PAL settings will be ignored.

################################################################################

================================================================================
                                       INPUT FILE
================================================================================
NAME = reaction-6-cineb10_optts_Compound_1.inp
|  1>   
|  2>    
|  3>   ! PBEh-3c OptTS Freq pal8 
|  4>    
|  5>   %geom 
|  6>    calc_hess true 
|  7>    recalc_hess 20 
|  8>    maxiter 600 
|  9>   end  
| 10>    
| 11> 
| 12>                          ****END OF INPUT****
================================================================================
Your calculation utilizes the geometrical counterpoise correction gCP
Please cite in your paper:
H.Kruse, S. Grimme J.Chem.Phys., 136, (2012), 154101 
   

Your calculation utilizes the atom-pairwise dispersion correction
with the Becke-Johnson damping scheme (D3BJ)
Cite in your paper:
S.Grimme, S.Ehrlich, L.Goerigk, J Comput Chem, (2011), 32, 1456–1465 
S.Grimme, J.Antony, S.Ehrlich and H.Krieg, J.Chem.Phys., 132, (2010), 154104 
   

Your calculation employs the composite approach PBEh-3c.
Please cite in your paper:
S. Grimme, J. G. Brandenburg, C. Bannwarth, A. Hansen J.Chem.Phys., 143, (2015), 054107 
   

================================================================================

cite the ECPs for Pt [Def2-ECP] as follows:
Ce-Yb(ecp-28): M. Dolg, H. Stoll, H.Preuss, J. Chem. Phys., 1989, 90, 1730-1734.
Y-Cd(ecp-28), Hf-Hg(ecp-46): D. Andrae,U. Haeussermann, M. Dolg, H. Stoll, H. Preuss, Theor. Chim. Acta, 1990, 77, 123-141.
In-Sb(ecp-28), Tl-Bi(ecp-46): B. Metz, H. Stoll, M. Dolg, J. Chem. Phys., 2000, 113, 2563-2569.
Te-Xe(ecp-28), Po-Rn(ecp-46): K. A. Peterson, D. Figgen, E. Goll, H. Stoll, M. Dolg, J. Chem. Phys., 2003, 119, 11113-11123.
Rb(ecp-28), Cs(ecp-46): T. Leininger, A. Nicklass, W. Kuechle, H. Stoll, M. Dolg, A. Bergner, Chem. Phys. Lett., 1996, 255, 274-280.
Sr(ecp-28), Ba(ecp-46): M. Kaupp, P. V. Schleyer, H. Stoll and H. Preuss, J. Chem. Phys., 1991, 94, 1360-1366.
La(ecp-46): M. Dolg, H. Stoll, A. Savin, H. Preuss, Theor. Chim. Acta, 1989, 75, 173-194.
Lu(ecp-28): X. Cao, M. Dolg, J. Chem. Phys., 2001, 115, 7348-7355.

ECP parameters for Pt [Def2-ECP] have been obtained from:
TURBOMOLE (7.0.2)

----- Orbital basis set information -----
Your calculation utilizes the basis: def2-mSVP

----- AuxJ basis set information -----
Your calculation utilizes the auxiliary basis: def2/J
   F. Weigend, Phys. Chem. Chem. Phys. 8, 1057 (2006).

================================================================================
                                        WARNINGS
                       Please study these warnings very carefully!
================================================================================


WARNING: Geometry Optimization
  ===> : Switching off AutoStart
         For restart on a previous wavefunction, please use MOREAD

WARNING: No Hueckel Guess possible with ECP basis!
  ===> : Switching to HCORE guess!

INFO   : the flag for use of the SHARK integral package has been found!


                       *****************************
                       * Geometry Optimization Run *
                       *****************************

Geometry optimization settings:
Update method            Update   .... Bofill
Choice of coordinates    CoordSys .... Z-matrix Internals
Initial Hessian          InHess   .... Almoef's Model

Convergence Tolerances:
Energy Change            TolE     ....  5.0000e-06 Eh
Max. Gradient            TolMAXG  ....  3.0000e-04 Eh/bohr
RMS Gradient             TolRMSG  ....  1.0000e-04 Eh/bohr
Max. Displacement        TolMAXD  ....  4.0000e-03 bohr
RMS Displacement         TolRMSD  ....  2.0000e-03 bohr
Strict Convergence                ....  False
------------------------------------------------------------------------------
                        ORCA OPTIMIZATION COORDINATE SETUP
------------------------------------------------------------------------------

The optimization will be done in new redundant internal coordinates
Making redundant internal coordinates   ...  (new redundants) done
Following TS mode number                ...     0
Evaluating the initial hessian          ...  (Is done on the fly) done
Evaluating the coordinates              ...  done
Calculating the B-matrix                .... done
Calculating the G-matrix                .... done
Diagonalizing the G-matrix              .... done
The first mode is                       ....   32
The number of degrees of freedom        ....   21

    -----------------------------------------------------------------
                    Redundant Internal Coordinates


    -----------------------------------------------------------------
         Definition                    Initial Value    d2E/dq (diagonal element)
    -----------------------------------------------------------------
      1. B(Cl  1,Pt  0)                  2.3197         0.000000   
      2. B(Cl  2,Pt  0)                  2.3413         0.000000   
      3. B(Cl  3,Pt  0)                  2.3247         0.000000   
      4. B(H   5,C   4)                  1.0920         0.000000   
      5. B(H   6,Pt  0)                  1.5674         0.000000   
      6. B(H   6,C   4)                  1.6443         0.000000   
      7. B(H   6,H   5)                  2.1012         0.000000   
      8. B(H   7,H   6)                  1.9986         0.000000   
      9. B(H   7,C   4)                  1.0924         0.000000   
     10. B(H   8,C   4)                  1.0915         0.000000   
     11. A(Cl  1,Pt  0,Cl  2)           88.9747         0.000000   
     12. A(Cl  3,Pt  0,H   6)           97.5986         0.000000   
     13. A(Cl  1,Pt  0,H   6)           85.9560         0.000000   
     14. A(Cl  2,Pt  0,Cl  3)           87.3362         0.000000   
     15. A(Cl  2,Pt  0,H   6)          150.0449         0.000000   
     16. A(H   5,C   4,H   7)          108.1028         0.000000   
     17. A(H   7,C   4,H   8)          106.6785         0.000000   
     18. A(H   5,C   4,H   6)           98.3069         0.000000   
     19. A(H   6,C   4,H   7)           91.5496         0.000000   
     20. A(H   6,C   4,H   8)          140.8252         0.000000   
     21. A(H   5,C   4,H   8)          107.9613         0.000000   
     22. A(C   4,H   5,H   6)           50.7464         0.000000   
     23. A(C   4,H   6,H   5)           30.9467         0.000000   
     24. A(Pt  0,H   6,H   5)          102.2773         0.000000   
     25. A(Pt  0,H   6,C   4)           86.4687         0.000000   
     26. A(H   5,H   6,H   7)           51.0279         0.000000   
     27. A(C   4,H   6,H   7)           33.1187         0.000000   
     28. A(Pt  0,H   6,H   7)          107.5286         0.000000   
     29. A(C   4,H   7,H   6)           55.3317         0.000000   
     30. D(H   6,H   5,C   4,H   8)    150.5646         0.000000   
     31. D(H   6,H   5,C   4,H   7)    -94.3865         0.000000   
     32. D(C   4,H   6,Pt  0,Cl  1)   -100.8792         0.000000   
     33. D(Pt  0,H   6,C   4,H   5)    121.1459         0.000000   
     34. D(H   5,H   6,Pt  0,Cl  1)    -74.1089         0.000000   
     35. D(H   5,H   6,Pt  0,Cl  2)   -154.9832         0.000000   
     36. D(H   7,H   6,Pt  0,Cl  1)   -126.7885         0.000000   
     37. D(H   5,H   6,C   4,H   8)   -132.2630         0.000000   
     38. D(C   4,H   6,Pt  0,Cl  3)     80.3387         0.000000   
     39. D(H   7,H   6,Pt  0,Cl  3)     54.4294         0.000000   
     40. D(H   5,H   6,Pt  0,Cl  3)    107.1090         0.000000   
     41. D(Pt  0,H   6,C   4,H   7)   -130.3070         0.000000   
     42. D(Pt  0,H   6,C   4,H   8)    -11.1171         0.000000   
     43. D(H   5,H   6,C   4,H   7)    108.5470         0.000000   
     44. D(C   4,H   6,Pt  0,Cl  2)    178.2465         0.000000   
     45. D(H   7,H   6,C   4,H   5)   -108.5470         0.000000   
     46. D(H   7,H   6,C   4,H   8)    119.1899         0.000000   
     47. D(Pt  0,H   6,H   5,C   4)    -60.9529         0.000000   
     48. D(H   7,H   6,H   5,C   4)     41.7803         0.000000   
     49. D(H   7,H   6,Pt  0,Cl  2)    152.3372         0.000000   
     50. D(C   4,H   7,H   6,H   5)    -38.8357         0.000000   
     51. D(C   4,H   7,H   6,Pt  0)     52.9590         0.000000   
     52. D(H   6,H   7,C   4,H   8)   -144.8522         0.000000   
     53. D(H   6,H   7,C   4,H   5)     99.2591         0.000000   
    -----------------------------------------------------------------

Number of atoms                         .... 9
Number of degrees of freedom            .... 53

         *************************************************************
         *                GEOMETRY OPTIMIZATION CYCLE   1            *
         *************************************************************
---------------------------------
CARTESIAN COORDINATES (ANGSTROEM)
---------------------------------
  Pt    -0.561360   -0.686070    0.369370
  Cl    -0.077660   -0.215150    2.588650
  Cl    -2.449900   -1.875290    1.077120
  Cl    -1.181880   -1.209750   -1.808930
  C      0.719510    0.899090   -0.461060
  H      1.354240    1.454960    0.232160
  H      0.986090   -0.611310    0.131770
  H      1.304550    0.682550   -1.357770
  H     -0.096380    1.554960   -0.770140

----------------------------
CARTESIAN COORDINATES (A.U.)
----------------------------
  NO LB      ZA    FRAG     MASS         X           Y           Z
   0 Pt   18.0000*   0   195.090   -1.060817   -1.296484    0.698008
   1 Cl   17.0000    0    35.453   -0.146756   -0.406575    4.891840
   2 Cl   17.0000    0    35.453   -4.629640   -3.543785    2.035462
   3 Cl   17.0000    0    35.453   -2.233430   -2.286096   -3.418382
   4 C     6.0000    0    12.011    1.359677    1.699034   -0.871277
   5 H     1.0000    0     1.008    2.559143    2.749476    0.438719
   6 H     1.0000    0     1.008    1.863440   -1.155208    0.249009
   7 H     1.0000    0     1.008    2.465242    1.289833   -2.565813
   8 H     1.0000    0     1.008   -0.182132    2.938449   -1.455354
* core charge reduced due to ECP

--------------------------------
INTERNAL COORDINATES (ANGSTROEM)
--------------------------------
 Pt     0   0   0     0.000000000000     0.00000000     0.00000000
 Cl     1   0   0     2.319684257566     0.00000000     0.00000000
 Cl     1   2   0     2.341311086229    88.97472634     0.00000000
 Cl     1   2   3     2.324710025530   176.24468183    10.77947779
 C      1   2   3     2.200675843326    95.36060311   162.18628852
 H      5   1   2     1.091983332382   117.73814504     6.59722033
 H      1   2   3     1.567368597395    85.95598747   209.54321249
 H      5   1   2     1.092359921134   118.60061792   139.95677242
 H      5   1   2     1.091500066606    96.00474524   252.66538613

---------------------------
INTERNAL COORDINATES (A.U.)
---------------------------
 Pt     0   0   0     0.000000000000     0.00000000     0.00000000
 Cl     1   0   0     4.383567963968     0.00000000     0.00000000
 Cl     1   2   0     4.424436747287    88.97472634     0.00000000
 Cl     1   2   3     4.393065289033   176.24468183    10.77947779
 C      1   2   3     4.158674653423    95.36060311   162.18628852
 H      5   1   2     2.063549441009   117.73814504     6.59722033
 H      1   2   3     2.961897399985    85.95598747   209.54321249
 H      5   1   2     2.064261090615   118.60061792   139.95677242
 H      5   1   2     2.062636201041    96.00474524   252.66538613

---------------------
BASIS SET INFORMATION
---------------------
There are 4 groups of distinct atoms

 Group   1 Type Pt  : 7s6p5d1f contracted to 6s3p2d1f pattern {211111/411/41/1}
 Group   2 Type Cl  : 10s7p1d contracted to 4s3p1d pattern {5311/511/1}
 Group   3 Type C   : 8s4p1d contracted to 4s2p1d pattern {5111/31/1}
 Group   4 Type H   : 4s contracted to 2s pattern {31}

Atom   0Pt   basis set group =>   1
Atom   1Cl   basis set group =>   2
Atom   2Cl   basis set group =>   2
Atom   3Cl   basis set group =>   2
Atom   4C    basis set group =>   3
Atom   5H    basis set group =>   4
Atom   6H    basis set group =>   4
Atom   7H    basis set group =>   4
Atom   8H    basis set group =>   4
---------------------------------
AUXILIARY/J BASIS SET INFORMATION
---------------------------------
There are 4 groups of distinct atoms

 Group   1 Type Pt  : 11s5p5d3f3g contracted to 8s5p5d2f3g pattern {41111111/11111/11111/21/111}
 Group   2 Type Cl  : 14s5p5d2f1g contracted to 8s4p3d1f1g pattern {71111111/2111/311/2/1}
 Group   3 Type C   : 12s5p4d2f1g contracted to 6s4p3d1f1g pattern {711111/2111/211/2/1}
 Group   4 Type H   : 5s2p1d contracted to 3s1p1d pattern {311/2/1}

Atom   0Pt   basis set group =>   1
Atom   1Cl   basis set group =>   2
Atom   2Cl   basis set group =>   2
Atom   3Cl   basis set group =>   2
Atom   4C    basis set group =>   3
Atom   5H    basis set group =>   4
Atom   6H    basis set group =>   4
Atom   7H    basis set group =>   4
Atom   8H    basis set group =>   4
-------------------------
ECP PARAMETER INFORMATION
-------------------------

 Group 1, Type Pt ECP Def2-ECP (replacing 60 core electrons, lmax=3)

Atom   0Pt   ECP group =>   1



           ************************************************************
           *        Program running with 8 parallel MPI-processes     *
           *              working on a common directory               *
           ************************************************************
------------------------------------------------------------------------------
                           ORCA GTO INTEGRAL CALCULATION
                           -- RI-GTO INTEGRALS CHOSEN --
------------------------------------------------------------------------------
------------------------------------------------------------------------------
                   ___                                                        
                  /   \      - P O W E R E D   B Y -                         
                 /     \                                                     
                 |  |  |   _    _      __       _____    __    __             
                 |  |  |  | |  | |    /  \     |  _  \  |  |  /  |          
                  \  \/   | |  | |   /    \    | | | |  |  | /  /          
                 / \  \   | |__| |  /  /\  \   | |_| |  |  |/  /          
                |  |  |   |  __  | /  /__\  \  |    /   |      \           
                |  |  |   | |  | | |   __   |  |    \   |  |\   \          
                \     /   | |  | | |  |  |  |  | |\  \  |  | \   \       
                 \___/    |_|  |_| |__|  |__|  |_| \__\ |__|  \__/        
                                                                              
                      - O R C A' S   B I G   F R I E N D -                    
                                      &                                       
                       - I N T E G R A L  F E E D E R -                       
                                                                              
 v1 FN, 2020, v2 2021                                                         
------------------------------------------------------------------------------


Reading SHARK input file reaction-6-cineb10_optts_Compound_1.SHARKINP.tmp ... ok
----------------------
SHARK INTEGRAL PACKAGE
----------------------

Number of atoms                             ...      9
Number of basis functions                   ...    109
Number of shells                            ...     51
Maximum angular momentum                    ...      3
Integral batch strategy                     ... SHARK/LIBINT Hybrid
RI-J (if used) integral strategy            ... SPLIT-RIJ (Revised 2003 algorithm where possible)
Printlevel                                  ...      1
Contraction scheme used                     ... SEGMENTED contraction
Coulomb Range Separation                    ... NOT USED
Exchange Range Separation                   ... NOT USED
Finite Nucleus Model                        ... NOT USED
Auxiliary Coulomb fitting basis             ... AVAILABLE
   # of basis functions in Aux-J            ...    335
   # of shells in Aux-J                     ...    109
   Maximum angular momentum in Aux-J        ...      4
Auxiliary J/K fitting basis                 ... NOT available
Auxiliary Correlation fitting basis         ... NOT available
Auxiliary 'external' fitting basis          ... NOT available
Integral threshold                          ...     2.500000e-11
Primitive cut-off                           ...     2.500000e-12
Primitive pair pre-selection threshold      ...     2.500000e-12

Calculating pre-screening integrals         ... done (  0.1 sec) Dimension = 51
Organizing shell pair data                  ... done (  0.0 sec)
Shell pair information
Total number of shell pairs                 ...      1326
Shell pairs after pre-screening             ...      1197
Total number of primitive shell pairs       ...      5360
Primitive shell pairs kept                  ...      3524
          la=0 lb=0:    404 shell pairs
          la=1 lb=0:    372 shell pairs
          la=1 lb=1:     99 shell pairs
          la=2 lb=0:    169 shell pairs
          la=2 lb=1:     81 shell pairs
          la=2 lb=2:     21 shell pairs
          la=3 lb=0:     30 shell pairs
          la=3 lb=1:     14 shell pairs
          la=3 lb=2:      6 shell pairs
          la=3 lb=3:      1 shell pairs

Calculating one electron integrals          ... done (  0.0 sec)
Calculating ECP integrals                   ... done (  0.3 sec)
Calculating RI/J V-Matrix + Cholesky decomp.... done (  0.1 sec)
Calculating Nuclear repulsion               ... done (  0.0 sec) ENN=    465.190518854413 Eh

SHARK setup successfully completed in   1.0 seconds

Maximum memory used throughout the entire GTOINT-calculation: 14.2 MB


           ************************************************************
           *        Program running with 8 parallel MPI-processes     *
           *              working on a common directory               *
           ************************************************************
-------------------------------------------------------------------------------
                                 ORCA SCF
-------------------------------------------------------------------------------

------------
SCF SETTINGS
------------
Hamiltonian:
 Density Functional     Method          .... DFT(GTOs)
 Exchange Functional    Exchange        .... PBE
   PBE kappa parameter   XKappa         ....  1.024500
   PBE mue parameter    XMuePBE         ....  0.123457
 Correlation Functional Correlation     .... PBE
   PBE beta parameter  CBetaPBE         ....  0.030000
 LDA part of GGA corr.  LDAOpt          .... PW91-LDA
 Gradients option       PostSCFGGA      .... off
 Hybrid DFT is turned on
   Fraction HF Exchange ScalHFX         ....  0.420000
   Scaling of DF-GGA-X  ScalDFX         ....  0.580000
   Scaling of DF-GGA-C  ScalDFC         ....  1.000000
   Scaling of DF-LDA-C  ScalLDAC        ....  1.000000
   Perturbative correction              ....  0.000000
   Density functional embedding theory  .... OFF
 RI-approximation to the Coulomb term is turned on
   Number of AuxJ basis functions       .... 335
   RIJ-ON(X) (HFX calculated with O(N)) .... on
   Number of AuxJ basis functions       .... 335
   RIJ-COSX (HFX calculated with COS-X)).... on


General Settings:
 Integral files         IntName         .... reaction-6-cineb10_optts_Compound_1
 Hartree-Fock type      HFTyp           .... RHF
 Total Charge           Charge          ....   -1
 Multiplicity           Mult            ....    1
 Number of Electrons    NEL             ....   80
 Basis Dimension        Dim             ....  109
 Nuclear Repulsion      ENuc            ....    465.1905188544 Eh

Convergence Acceleration:
 DIIS                   CNVDIIS         .... on
   Start iteration      DIISMaxIt       ....    12
   Startup error        DIISStart       ....  0.200000
   # of expansion vecs  DIISMaxEq       ....     5
   Bias factor          DIISBfac        ....   1.050
   Max. coefficient     DIISMaxC        ....  10.000
 Trust-Rad. Augm. Hess. CNVTRAH         .... auto
   Auto Start mean grad. ratio tolernc. ....  1.125000
   Auto Start start iteration           ....    20
   Auto Start num. interpolation iter.  ....    10
   Max. Number of Micro iterations      ....    16
   Max. Number of Macro iterations      .... Maxiter - #DIIS iter
   Number of Davidson start vectors     ....     2
   Converg. threshold I  (grad. norm)   ....   1.000e-05
   Converg. threshold II (energy diff.) ....   1.000e-08
   Grad. Scal. Fac. for Micro threshold ....   0.100
   Minimum threshold for Micro iter.    ....   0.010
   NR start threshold (gradient norm)   ....   0.001
   Initial trust radius                 ....   0.400
   Minimum AH scaling param. (alpha)    ....   1.000
   Maximum AH scaling param. (alpha)    .... 1000.000
   Orbital update algorithm             .... Taylor
   White noise on init. David. guess    .... on
   Maximum white noise                  ....   0.010
   Quad. conv. algorithm                .... NR
   COSX micro iterations for RIJONX calc.... off
 SOSCF                  CNVSOSCF        .... off
 Level Shifting         CNVShift        .... on
   Level shift para.    LevelShift      ....    0.2500
   Turn off err/grad.   ShiftErr        ....    0.0010
 Zerner damping         CNVZerner       .... off
 Static damping         CNVDamp         .... on
   Fraction old density DampFac         ....    0.7000
   Max. Damping (<1)    DampMax         ....    0.9800
   Min. Damping (>=0)   DampMin         ....    0.0000
   Turn off err/grad.   DampErr         ....    0.1000
 Fernandez-Rico         CNVRico         .... off

SCF Procedure:
 Maximum # iterations   MaxIter         ....   125
 SCF integral mode      SCFMode         .... Direct
   Integral package                     .... SHARK and LIBINT hybrid scheme
 Reset frequency        DirectResetFreq ....    20
 Integral Threshold     Thresh          ....  2.500e-11 Eh
 Primitive CutOff       TCut            ....  2.500e-12 Eh

Convergence Tolerance:
 Convergence Check Mode ConvCheckMode   .... Total+1el-Energy
 Convergence forced     ConvForced      .... 0
 Energy Change          TolE            ....  1.000e-08 Eh
 1-El. energy change                    ....  1.000e-05 Eh
 DIIS Error             TolErr          ....  5.000e-07


Diagonalization of the overlap matrix:
Smallest eigenvalue                        ... 9.351e-03
Time for diagonalization                   ...    0.004 sec
Threshold for overlap eigenvalues          ... 1.000e-08
Number of eigenvalues below threshold      ... 0
Time for construction of square roots      ...    0.002 sec
Total time needed                          ...    0.007 sec

--------------------
INITIAL GUESS: HCORE
--------------------
                      -----------------
                      INTIAL GUESS DONE 
                      -----------------
-------------------
DFT GRID GENERATION
-------------------

General Integration Accuracy     IntAcc      ... 4.159
Radial Grid Type                 RadialGrid  ... OptM3 with GC (2021)
Angular Grid (max. ang.)         AngularGrid ... 3 (Lebedev-194)
Angular grid pruning method      GridPruning ... 4 (adaptive)
Weight generation scheme         WeightScheme... Becke
Basis function cutoff            BFCut       ... 1.0000e-11
Integration weight cutoff        WCut        ... 1.0000e-14
Angular grids for H and He will be reduced by one unit
Partially contracted basis set               ... off
Rotationally invariant grid construction     ... off

Total number of grid points                  ...    27557
Total number of batches                      ...      435
Average number of points per batch           ...       63
Average number of grid points per atom       ...     3062
Time for grid setup =    0.107 sec

--------------------
COSX GRID GENERATION
--------------------

GRIDX 1
-------
General Integration Accuracy     IntAcc      ... 3.816
Radial Grid Type                 RadialGrid  ... OptM3 with GC (2021)
Angular Grid (max. ang.)         AngularGrid ... 1 (Lebedev-50)
Angular grid pruning method      GridPruning ... 4 (adaptive)
Weight generation scheme         WeightScheme... Becke
Basis function cutoff            BFCut       ... 1.0000e-11
Integration weight cutoff        WCut        ... 1.0000e-14
Angular grids for H and He will be reduced by one unit
Partially contracted basis set               ... on
Rotationally invariant grid construction     ... off

Total number of grid points                  ...     6230
Total number of batches                      ...      101
Average number of points per batch           ...       61
Average number of grid points per atom       ...      692
UseSFitting                                  ... on

GRIDX 2
-------
General Integration Accuracy     IntAcc      ... 4.020
Radial Grid Type                 RadialGrid  ... OptM3 with GC (2021)
Angular Grid (max. ang.)         AngularGrid ... 2 (Lebedev-110)
Angular grid pruning method      GridPruning ... 4 (adaptive)
Weight generation scheme         WeightScheme... Becke
Basis function cutoff            BFCut       ... 1.0000e-11
Integration weight cutoff        WCut        ... 1.0000e-14
Angular grids for H and He will be reduced by one unit
Partially contracted basis set               ... on
Rotationally invariant grid construction     ... off

Total number of grid points                  ...    14664
Total number of batches                      ...      235
Average number of points per batch           ...       62
Average number of grid points per atom       ...     1629
UseSFitting                                  ... on

GRIDX 3
-------
General Integration Accuracy     IntAcc      ... 4.338
Radial Grid Type                 RadialGrid  ... OptM3 with GC (2021)
Angular Grid (max. ang.)         AngularGrid ... 3 (Lebedev-194)
Angular grid pruning method      GridPruning ... 4 (adaptive)
Weight generation scheme         WeightScheme... Becke
Basis function cutoff            BFCut       ... 1.0000e-11
Integration weight cutoff        WCut        ... 1.0000e-14
Angular grids for H and He will be reduced by one unit
Partially contracted basis set               ... on
Rotationally invariant grid construction     ... off

Total number of grid points                  ...    32673
Total number of batches                      ...      516
Average number of points per batch           ...       63
Average number of grid points per atom       ...     3630
UseSFitting                                  ... on

Time for X-Grid setup             =    0.180 sec

--------------
SCF ITERATIONS
--------------
ITER       Energy         Delta-E        Max-DP      RMS-DP      [F,P]     Damp
               ***  Starting incremental Fock matrix formation  ***
  0  -1489.1643991932   0.00000000000017.98964613  0.30193012  1.5419282 0.7000
  1  -1503.3146881894 -14.150288996131 5.40212105  0.11169346  1.2571726 0.7000
  2  -1513.9352464358 -10.620558246428 3.69207106  0.07980410  0.8105423 0.7000
  3  -1521.1875010647  -7.252254628885 2.55589378  0.05662406  0.5450471 0.7000
  4  -1526.4120297873  -5.224528722636 1.77284734  0.03974516  0.3742484 0.7000
  5  -1530.1329723714  -3.720942584062 1.23549900  0.02784787  0.2589374 0.7000
                               ***Turning on DIIS***
  6  -1532.7691403293  -2.636167957907 0.86437072  0.01951246  0.1786786 0.7000
  7  -1534.6311515487  -1.862011219415 0.60670307  0.01369096  0.1225422 0.7000
  8  -1535.9433661535  -1.312214604837 1.41803423  0.03203720  0.0843140 0.0000
  9  -1539.0355053319  -3.092139178339 0.00774163  0.00039008  0.0031776 0.0000
 10  -1539.0357763579  -0.000271026001 0.00394091  0.00017928  0.0015947 0.0000
 11  -1539.0358432943  -0.000066936400 0.00505000  0.00018284  0.0008114 0.0000
               *** Restarting incremental Fock matrix formation ***
                                   *** Resetting DIIS ***
 12  -1539.0360745463  -0.000231251998 0.00209384  0.00012707  0.0011224 0.0000
 13  -1539.0360976459  -0.000023099615 0.00371104  0.00007191  0.0008719 0.0000
 14  -1539.0360997040  -0.000002058165 0.00118670  0.00003689  0.0008837 0.0000
 15  -1539.0361031268  -0.000003422718 0.00071126  0.00001248  0.0002523 0.0000
 16  -1539.0361035247  -0.000000397966 0.00035319  0.00000697  0.0000696 0.0000
 17  -1539.0361036106  -0.000000085906 0.00016929  0.00000336  0.0000312 0.0000
 18  -1539.0361036281  -0.000000017507 0.00011912  0.00000229  0.0000152 0.0000
 19  -1539.0361036344  -0.000000006257 0.00003333  0.00000075  0.0000045 0.0000
                 **** Energy Check signals convergence ****

               *****************************************************
               *                     SUCCESS                       *
               *           SCF CONVERGED AFTER  20 CYCLES          *
               *****************************************************

Old exchange energy                            =    -42.069462192 Eh
New exchange energy                            =    -42.069528589 Eh
Exchange energy change after final integration =     -0.000066398 Eh
Total energy after final integration           =  -1539.036170033 Eh
Final COS-X integration done in                =     0.452 sec

----------------
TOTAL SCF ENERGY
----------------

Total Energy       :        -1539.03617003 Eh          -41879.30329 eV

Components:
Nuclear Repulsion  :          465.19051885 Eh           12658.47756 eV
Electronic Energy  :        -2004.22668889 Eh          -54537.78085 eV
One Electron Energy:        -3111.62896205 Eh          -84671.72868 eV
Two Electron Energy:         1107.40227316 Eh           30133.94783 eV
Max COSX asymmetry :            0.00001404 Eh               0.00038 eV

Virial components:
Potential Energy   :        -2996.84141371 Eh          -81548.20070 eV
Kinetic Energy     :         1457.80524368 Eh           39668.89741 eV
Virial Ratio       :            2.05572138


DFT components:
N(Alpha)           :       40.000035460195 electrons
N(Beta)            :       40.000035460195 electrons
N(Total)           :       80.000070920390 electrons
E(X)               :      -56.344192777476 Eh       
E(C)               :       -4.039699231219 Eh       
E(XC)              :      -60.383892008696 Eh       
DFET-embed. en.    :        0.000000000000 Eh       

---------------
SCF CONVERGENCE
---------------

  Last Energy change         ...   -9.0427e-10  Tolerance :   1.0000e-08
  Last MAX-Density change    ...    0.0000e+00  Tolerance :   1.0000e-07
  Last RMS-Density change    ...    0.0000e+00  Tolerance :   5.0000e-09
  Last DIIS Error            ...    2.1639e-06  Tolerance :   5.0000e-07

             **** THE GBW FILE WAS UPDATED (reaction-6-cineb10_optts_Compound_1.gbw) ****
             **** DENSITY reaction-6-cineb10_optts_Compound_1.scfp WAS UPDATED ****
             **** ENERGY FILE WAS UPDATED (reaction-6-cineb10_optts_Compound_1.en.tmp) ****
             **** THE GBW FILE WAS UPDATED (reaction-6-cineb10_optts_Compound_1.gbw) ****
             **** DENSITY reaction-6-cineb10_optts_Compound_1.scfp WAS UPDATED ****
----------------
ORBITAL ENERGIES
----------------

  NO   OCC          E(Eh)            E(eV) 
   0   2.0000    -102.093351     -2778.1013 
   1   2.0000    -102.091780     -2778.0586 
   2   2.0000    -102.082788     -2777.8139 
   3   2.0000     -10.342883      -281.4442 
   4   2.0000      -9.557596      -260.0754 
   5   2.0000      -9.555992      -260.0318 
   6   2.0000      -9.547305      -259.7954 
   7   2.0000      -7.243849      -197.1152 
   8   2.0000      -7.242238      -197.0713 
   9   2.0000      -7.238446      -196.9681 
  10   2.0000      -7.238124      -196.9594 
  11   2.0000      -7.236895      -196.9259 
  12   2.0000      -7.236487      -196.9148 
  13   2.0000      -7.233305      -196.8282 
  14   2.0000      -7.228538      -196.6985 
  15   2.0000      -7.227612      -196.6733 
  16   2.0000      -3.982147      -108.3597 
  17   2.0000      -2.197480       -59.7965 
  18   2.0000      -2.186709       -59.5034 
  19   2.0000      -2.163142       -58.8621 
  20   2.0000      -0.699635       -19.0380 
  21   2.0000      -0.680546       -18.5186 
  22   2.0000      -0.674658       -18.3584 
  23   2.0000      -0.656941       -17.8763 
  24   2.0000      -0.391968       -10.6660 
  25   2.0000      -0.352172        -9.5831 
  26   2.0000      -0.339780        -9.2459 
  27   2.0000      -0.298995        -8.1361 
  28   2.0000      -0.275144        -7.4870 
  29   2.0000      -0.253576        -6.9001 
  30   2.0000      -0.245156        -6.6710 
  31   2.0000      -0.224476        -6.1083 
  32   2.0000      -0.199522        -5.4293 
  33   2.0000      -0.189214        -5.1488 
  34   2.0000      -0.180014        -4.8984 
  35   2.0000      -0.162655        -4.4261 
  36   2.0000      -0.150679        -4.1002 
  37   2.0000      -0.145329        -3.9546 
  38   2.0000      -0.140005        -3.8097 
  39   2.0000      -0.131230        -3.5710 
  40   0.0000       0.110813         3.0154 
  41   0.0000       0.135724         3.6932 
  42   0.0000       0.214357         5.8330 
  43   0.0000       0.256587         6.9821 
  44   0.0000       0.266831         7.2608 
  45   0.0000       0.271443         7.3863 
  46   0.0000       0.306777         8.3478 
  47   0.0000       0.331852         9.0302 
  48   0.0000       0.385322        10.4852 
  49   0.0000       0.410259        11.1637 
  50   0.0000       0.544249        14.8098 
  51   0.0000       0.565027        15.3752 
  52   0.0000       0.584680        15.9099 
  53   0.0000       0.587708        15.9923 
  54   0.0000       0.652106        17.7447 
  55   0.0000       0.680618        18.5205 
  56   0.0000       0.706506        19.2250 
  57   0.0000       0.786963        21.4143 
  58   0.0000       0.809091        22.0165 
  59   0.0000       0.854803        23.2604 
  60   0.0000       0.865361        23.5477 
  61   0.0000       0.925570        25.1860 
  62   0.0000       0.940599        25.5950 
  63   0.0000       0.961814        26.1723 
  64   0.0000       0.976424        26.5698 
  65   0.0000       1.003514        27.3070 
  66   0.0000       1.027540        27.9608 
  67   0.0000       1.031674        28.0733 
  68   0.0000       1.032475        28.0951 
  69   0.0000       1.038498        28.2590 
  70   0.0000       1.042878        28.3781 
  71   0.0000       1.053392        28.6643 
  72   0.0000       1.068383        29.0722 
  73   0.0000       1.072793        29.1922 
  74   0.0000       1.080045        29.3895 
  75   0.0000       1.091100        29.6903 
  76   0.0000       1.110881        30.2286 
  77   0.0000       1.120281        30.4844 
  78   0.0000       1.131902        30.8006 
  79   0.0000       1.143548        31.1175 
  80   0.0000       1.151874        31.3441 
  81   0.0000       1.198125        32.6026 
  82   0.0000       1.247500        33.9462 
  83   0.0000       1.263365        34.3779 
  84   0.0000       1.278248        34.7829 
  85   0.0000       1.288978        35.0749 
  86   0.0000       1.302629        35.4463 
  87   0.0000       1.342848        36.5407 
  88   0.0000       1.408103        38.3164 
  89   0.0000       1.444723        39.3129 
  90   0.0000       1.524978        41.4968 
  91   0.0000       1.543487        42.0004 
  92   0.0000       1.609652        43.8009 
  93   0.0000       1.622460        44.1494 
  94   0.0000       1.653699        44.9994 
  95   0.0000       1.655302        45.0431 
  96   0.0000       1.699450        46.2444 
  97   0.0000       1.856957        50.5304 
  98   0.0000       1.878465        51.1156 
  99   0.0000       1.921229        52.2793 
 100   0.0000       1.983822        53.9825 
 101   0.0000       2.009237        54.6741 
 102   0.0000       2.296938        62.5029 
 103   0.0000       2.433462        66.2179 
 104   0.0000       2.454649        66.7944 
 105   0.0000       2.574121        70.0454 
 106   0.0000      13.819270       376.0415 
 107   0.0000      51.198956      1393.1944 
 108   0.0000     282.792997      7695.1887 

                    ********************************
                    * MULLIKEN POPULATION ANALYSIS *
                    ********************************

-----------------------
MULLIKEN ATOMIC CHARGES
-----------------------
   0 Pt:    0.103326
   1 Cl:   -0.398456
   2 Cl:   -0.378571
   3 Cl:   -0.412664
   4 C :   -0.866277
   5 H :    0.247687
   6 H :    0.188638
   7 H :    0.248130
   8 H :    0.268188
Sum of atomic charges:   -1.0000000

--------------------------------
MULLIKEN REDUCED ORBITAL CHARGES
--------------------------------
  0 Pts       :     2.727738  s :     2.727738
      pz      :     2.131721  p :     6.448365
      px      :     2.163942
      py      :     2.152702
      dz2     :     1.464212  d :     8.692147
      dxz     :     1.844128
      dyz     :     1.843199
      dx2y2   :     1.754403
      dxy     :     1.786205
      f0      :     0.006931  f :     0.028426
      f+1     :     0.005950
      f-1     :     0.003564
      f+2     :     0.001685
      f-2     :     0.003409
      f+3     :     0.004127
      f-3     :     0.002759
  1 Cls       :     5.941191  s :     5.941191
      pz      :     3.592463  p :    11.440062
      px      :     3.928878
      py      :     3.918720
      dz2     :     0.007277  d :     0.017204
      dxz     :     0.004279
      dyz     :     0.004531
      dx2y2   :     0.000509
      dxy     :     0.000608
  2 Cls       :     5.941872  s :     5.941872
      pz      :     3.917871  p :    11.422554
      px      :     3.682786
      py      :     3.821897
      dz2     :     0.002072  d :     0.014146
      dxz     :     0.003138
      dyz     :     0.001426
      dx2y2   :     0.002963
      dxy     :     0.004547
  3 Cls       :     5.940815  s :     5.940815
      pz      :     3.626610  p :    11.454939
      px      :     3.908585
      py      :     3.919744
      dz2     :     0.006407  d :     0.016910
      dxz     :     0.004535
      dyz     :     0.004447
      dx2y2   :     0.000716
      dxy     :     0.000804
  4 C s       :     3.468418  s :     3.468418
      pz      :     1.127657  p :     3.364474
      px      :     1.158882
      py      :     1.077934
      dz2     :     0.004343  d :     0.033385
      dxz     :     0.010648
      dyz     :     0.005946
      dx2y2   :     0.003219
      dxy     :     0.009229
  5 H s       :     0.752313  s :     0.752313
  6 H s       :     0.811362  s :     0.811362
  7 H s       :     0.751870  s :     0.751870
  8 H s       :     0.731812  s :     0.731812


                     *******************************
                     * LOEWDIN POPULATION ANALYSIS *
                     *******************************

----------------------
LOEWDIN ATOMIC CHARGES
----------------------
   0 Pt:   -0.876419
   1 Cl:   -0.114978
   2 Cl:   -0.135340
   3 Cl:   -0.122896
   4 C :   -0.404961
   5 H :    0.141572
   6 H :    0.200484
   7 H :    0.141287
   8 H :    0.171251

-------------------------------
LOEWDIN REDUCED ORBITAL CHARGES
-------------------------------
  0 Pts       :     2.715464  s :     2.715464
      pz      :     2.345095  p :     6.906881
      px      :     2.313182
      py      :     2.248604
      dz2     :     1.626794  d :     9.207517
      dxz     :     1.948217
      dyz     :     1.948699
      dx2y2   :     1.818078
      dxy     :     1.865728
      f0      :     0.012166  f :     0.046557
      f+1     :     0.009723
      f-1     :     0.006128
      f+2     :     0.002557
      f-2     :     0.005716
      f+3     :     0.005930
      f-3     :     0.004337
  1 Cls       :     5.751482  s :     5.751482
      pz      :     3.574968  p :    11.343856
      px      :     3.890692
      py      :     3.878196
      dz2     :     0.008218  d :     0.019640
      dxz     :     0.004992
      dyz     :     0.005197
      dx2y2   :     0.000564
      dxy     :     0.000668
  2 Cls       :     5.760954  s :     5.760954
      pz      :     3.884663  p :    11.358395
      px      :     3.677701
      py      :     3.796031
      dz2     :     0.002379  d :     0.015991
      dxz     :     0.003674
      dyz     :     0.001593
      dx2y2   :     0.002947
      dxy     :     0.005398
  3 Cls       :     5.752217  s :     5.752217
      pz      :     3.608001  p :    11.351441
      px      :     3.867820
      py      :     3.875620
      dz2     :     0.007481  d :     0.019238
      dxz     :     0.005101
      dyz     :     0.005028
      dx2y2   :     0.000762
      dxy     :     0.000867
  4 C s       :     2.999664  s :     2.999664
      pz      :     1.126173  p :     3.350292
      px      :     1.143272
      py      :     1.080847
      dz2     :     0.007151  d :     0.055006
      dxz     :     0.017557
      dyz     :     0.009794
      dx2y2   :     0.004974
      dxy     :     0.015530
  5 H s       :     0.858428  s :     0.858428
  6 H s       :     0.799516  s :     0.799516
  7 H s       :     0.858713  s :     0.858713
  8 H s       :     0.828749  s :     0.828749


                      *****************************
                      * MAYER POPULATION ANALYSIS *
                      *****************************

  NA   - Mulliken gross atomic population
  ZA   - Total nuclear charge
  QA   - Mulliken gross atomic charge
  VA   - Mayer's total valence
  BVA  - Mayer's bonded valence
  FA   - Mayer's free valence

  ATOM       NA         ZA         QA         VA         BVA        FA
  0 Pt    17.8967    18.0000     0.1033     3.6042     3.6042    -0.0000
  1 Cl    17.3985    17.0000    -0.3985     0.9872     0.9872    -0.0000
  2 Cl    17.3786    17.0000    -0.3786     1.0299     1.0299    -0.0000
  3 Cl    17.4127    17.0000    -0.4127     0.9666     0.9666    -0.0000
  4 C      6.8663     6.0000    -0.8663     3.7258     3.7258    -0.0000
  5 H      0.7523     1.0000     0.2477     0.8895     0.8895    -0.0000
  6 H      0.8114     1.0000     0.1886     0.9465     0.9465     0.0000
  7 H      0.7519     1.0000     0.2481     0.8881     0.8881     0.0000
  8 H      0.7318     1.0000     0.2682     0.8848     0.8848     0.0000

  Mayer bond orders larger than 0.100000
B(  0-Pt,  1-Cl) :   0.8015 B(  0-Pt,  2-Cl) :   0.7945 B(  0-Pt,  3-Cl) :   0.7733 
B(  0-Pt,  4-C ) :   0.6200 B(  0-Pt,  6-H ) :   0.5918 B(  1-Cl,  3-Cl) :   0.1328 
B(  2-Cl,  4-C ) :   0.1143 B(  4-C ,  5-H ) :   0.8896 B(  4-C ,  6-H ) :   0.2764 
B(  4-C ,  7-H ) :   0.8942 B(  4-C ,  8-H ) :   0.8898 

-------
TIMINGS
-------

Total SCF time: 0 days 0 hours 0 min 6 sec 

Total time                  ....       6.192 sec
Sum of individual times     ....       5.969 sec  ( 96.4%)

Fock matrix formation       ....       5.539 sec  ( 89.5%)
  Split-RI-J                ....       0.908 sec  ( 16.4% of F)
  Chain of spheres X        ....       3.920 sec  ( 70.8% of F)
  XC integration            ....       0.670 sec  ( 12.1% of F)
    Basis function eval.    ....       0.214 sec  ( 32.0% of XC)
    Density eval.           ....       0.097 sec  ( 14.5% of XC)
    XC-Functional eval.     ....       0.082 sec  ( 12.2% of XC)
    XC-Potential eval.      ....       0.112 sec  ( 16.7% of XC)
Diagonalization             ....       0.070 sec  (  1.1%)
Density matrix formation    ....       0.004 sec  (  0.1%)
Population analysis         ....       0.005 sec  (  0.1%)
Initial guess               ....       0.003 sec  (  0.0%)
Orbital Transformation      ....       0.000 sec  (  0.0%)
Orbital Orthonormalization  ....       0.000 sec  (  0.0%)
DIIS solution               ....       0.063 sec  (  1.0%)
Grid generation             ....       0.287 sec  (  4.6%)

Maximum memory used throughout the entire SCF-calculation: 61.9 MB


-------------------------------------------------------------------------------
                          DFT DISPERSION CORRECTION                            
                                                                               
                              DFTD3 V3.1  Rev 1                                
                          USING Becke-Johnson damping                          
-------------------------------------------------------------------------------
The PBEh-3c composite method is recognized
Using three-body term ABC
Active option DFTDOPT                   ...         4   

molecular C6(AA) [au] = 3372.318533 


            DFT-D V3
 parameters
 s6 scaling factor         :     1.0000 
 a1 scaling factor         :     0.4860 
 s8 scaling factor         :     0.0000 
 a2 scaling factor         :     4.5000 
 Damping factor alpha9(ATM):    16.0000 
 ad hoc parameters k1-k3   :    16.0000     1.3333    -4.0000 

 Edisp/kcal,au: -3.308064444481  -0.005271735692 
 E6   /kcal   :  -3.317462061 
 E8   /kcal   :  -0.000000000 
 E6(ABC)      :   0.009397616 
 % E8         :   0.000000000 
 % E6(ABC)    :  -0.284082022 

-------------------------   ----------------
Dispersion correction           -0.005271736
-------------------------   ----------------

 ** NOTE ** -> element pt will be treated as ni
NOTIFICATION: Different basis set in ORCA and otool_gcp:
ORCA: 109  gCP: 108 
If you are NOT using ECPs, check your basis set inputs!
------------------   -----------------
gCP correction             0.019652896
------------------   -----------------

-------------------------   --------------------
FINAL SINGLE POINT ENERGY     -1539.021788872804
-------------------------   --------------------



           ************************************************************
           *        Program running with 8 parallel MPI-processes     *
           *              working on a common directory               *
           ************************************************************
------------------------------------------------------------------------------
                         ORCA SCF GRADIENT CALCULATION
------------------------------------------------------------------------------

 ... reading COSX grid (gridx3)
Gradient of the Kohn-Sham DFT energy:
Kohn-Sham wavefunction type      ... RKS
Hartree-Fock exchange scaling    ...    0.420
Number of operators              ...    1
Number of atoms                  ...    9
Basis set dimensions             ...  109
Integral neglect threshold       ... 2.5e-11
Integral primitive cutoff        ... 2.5e-12
SHARK Integral package           ... ON

Nuc. rep. gradient       (SHARK) ... done (  0.0 sec)
HCore & Overlap gradient (SHARK) ... done (  0.0 sec)
ECP gradient             (SHARK) ... done (  0.3 sec)
RI-J gradient            (SHARK) ... done (  0.4 sec)
COSX-gradient                    ... done (  0.6 sec)
Exchange-correlation gradient    ... done
Dispersion correction            ... done
gCP correction                   ... done

------------------
CARTESIAN GRADIENT
------------------

   1   Pt  :   -0.008814624   -0.004188429    0.003101264
   2   Cl  :   -0.003563186   -0.003752016   -0.000434226
   3   Cl  :   -0.003449006   -0.002295091   -0.000193785
   4   Cl  :   -0.004866130   -0.000973046    0.003576113
   5   C   :    0.003658923    0.003147452   -0.002468330
   6   H   :    0.003120674    0.006571847   -0.004086236
   7   H   :    0.010310691   -0.004324894    0.003991664
   8   H   :    0.003188599    0.005355314   -0.002345988
   9   H   :    0.000697651    0.001215736   -0.001065696

Difference to translation invariance:
           :    0.0002835919    0.0007568728    0.0000747790

Difference to rotation invariance:
           :    0.0015390425   -0.0001368153   -0.0014605122

Norm of the cartesian gradient     ...    0.0217680300
RMS gradient                       ...    0.0041892593
MAX gradient                       ...    0.0103106913

-------
TIMINGS
-------

Total SCF gradient time            ...        1.764 sec

One electron gradient       ....       0.328 sec  ( 18.6%)
RI-J Coulomb gradient       ....       0.366 sec  ( 20.7%)
COSX gradient               ....       0.599 sec  ( 34.0%)
XC gradient                 ....       0.116 sec  (  6.5%)

Maximum memory used throughout the entire SCFGRAD-calculation: 36.8 MB


           ************************************************************
           *        Program running with 8 parallel MPI-processes     *
           *              working on a common directory               *
           ************************************************************

-------------------------------------------------------------------------------
                               ORCA SCF HESSIAN
-------------------------------------------------------------------------------

                   --------- SHARK INITIALIZATION DONE ---------

Hessian of the Kohn-Sham DFT energy:
Kohn-Sham wavefunction type                      ... RKS
Hartree-Fock exchange scaling                    ...    0.420
Number of operators                              ...    1
Number of atoms                                  ...    9
Basis set dimensions                             ...  109
Integral neglect threshold                       ... 2.5e-11
Integral primitive cutoff                        ... 2.5e-12

Setting up DFT Hessian calculations              ... 

HESS GRID
---------

General Integration Accuracy     IntAcc      ... 4.388
Radial Grid Type                 RadialGrid  ... OptM3 with GC (2021)
Angular Grid (max. ang.)         AngularGrid ... 4 (Lebedev-302)
Angular grid pruning method      GridPruning ... 4 (adaptive)
Weight generation scheme         WeightScheme... Becke
Basis function cutoff            BFCut       ... 1.0000e-11
Integration weight cutoff        WCut        ... 1.0000e-14
Angular grids for H and He will be reduced by one unit
Partially contracted basis set               ... off
Rotationally invariant grid construction     ... off

Total number of grid points                  ...    52490
Total number of batches                      ...      825
Average number of points per batch           ...       63
Average number of grid points per atom       ...     5832

Building densities                               ... done   (      0.0 sec)
Calculating rho(r) on the grid                   ... done   (      0.0 sec)
Building xc-kernel on the grid                   ... done   (      0.0 sec)
                                                     done   (      0.4 sec)

Nuclear repulsion Hessian  (SHARK)               ... done   (      0.0 sec)

----------------------------------------------
Forming right-hand sides of CP-SCF equations     ...
----------------------------------------------
One electron integral derivatives  (SHARK)       ... done   (      0.0 sec)
Transforming the overlap derivative matrices     ... done   (      0.0 sec)
Making the Q(x) pseudodensities                  ... done   (      0.0 sec)
Adding the E*S(x)*S(y) terms to the Hessian      ... done   (      0.0 sec)
Calculating energy weighted overlap derivatives  ... done   (      0.0 sec)
F(y): ECP integral derivatives                   ... done   (      0.9 sec)
Two electron integral derivatives (SHARK-RI)     ... done   (      2.1 sec)
Exchange-correlation integral derivatives        ... done   (      1.8 sec)
tr(F(y)Q(x)) contribution to the Hessian         ... done   (      0.0 sec)
Response fock operator R(S(x)) (SHARK-RI)        ... done   (      0.8 sec)
XC Response fock operator R(S(x))                ... done   (      0.5 sec)
tr(F(y)S(x)) contribution to the Hessian         ... done   (      0.0 sec)
Transforming and finalizing RHSs                 ... done   (      0.0 sec)

----------------------------------------------
Solving the CP-SCF equations (RI)                ...
----------------------------------------------
     CP-SCF ITERATION   0:   1.5005e-01 (   0.5 sec   0/ 27 done)
     CP-SCF ITERATION   1:   3.5134e-02 (   0.5 sec   0/ 27 done)
     CP-SCF ITERATION   2:   1.9231e-02 (   0.5 sec   0/ 27 done)
     CP-SCF ITERATION   3:   7.4390e-03 (   0.5 sec   0/ 27 done)
     CP-SCF ITERATION   4:   2.3923e-03 (   0.5 sec   0/ 27 done)
     CP-SCF ITERATION   5:   1.2730e-03 (   0.5 sec   0/ 27 done)
     CP-SCF ITERATION   6:   3.6804e-04 (   0.5 sec   9/ 27 done)
     CP-SCF ITERATION   7:   1.1945e-04 (   0.4 sec  25/ 27 done)
     CP-SCF ITERATION   8:   3.6838e-05 (   0.2 sec  27/ 27 done)
                    *** THE CP-SCF HAS CONVERGED ***

                                                 ... done   (      4.2 sec)
Forming perturbed density Hessian contributions  ... done   (      0.0 sec)
2nd integral derivative contribs (SHARK-RI)      ... done   (      4.5 sec)
Exchange-correlation Hessian                     ... done   (      1.5 sec)
ECP integral 2nd derivatives                     ... done   (      2.3 sec)
Dispersion correction in the Hessian             ... done   (      0.3 sec)
gCP correction in the Hessian                    ... done   (      0.0 sec)
Dipole derivatives                               ... (center of mass: -1.361873, -1.410291  0.777188)done   (      0.1 sec)

Total SCF Hessian time: 0 days 0 hours 0 min 20 sec 

Writing the Hessian file to the disk             ... done


Maximum memory used throughout the entire SCFHESS-calculation: 67.2 MB

-----------------------
VIBRATIONAL FREQUENCIES
-----------------------

Scaling factor for frequencies =  1.000000000  (already applied!)

   0:         0.00 cm**-1
   1:         0.00 cm**-1
   2:         0.00 cm**-1
   3:         0.00 cm**-1
   4:         0.00 cm**-1
   5:         0.00 cm**-1
   6:      -753.17 cm**-1 ***imaginary mode***
   7:        93.50 cm**-1
   8:       108.15 cm**-1
   9:       153.68 cm**-1
  10:       165.41 cm**-1
  11:       172.47 cm**-1
  12:       198.03 cm**-1
  13:       322.17 cm**-1
  14:       343.54 cm**-1
  15:       347.88 cm**-1
  16:       478.55 cm**-1
  17:       698.86 cm**-1
  18:       947.10 cm**-1
  19:       997.78 cm**-1
  20:      1359.33 cm**-1
  21:      1531.78 cm**-1
  22:      1535.60 cm**-1
  23:      2255.26 cm**-1
  24:      3112.21 cm**-1
  25:      3199.32 cm**-1
  26:      3208.54 cm**-1


------------
NORMAL MODES
------------

These modes are the Cartesian displacements weighted by the diagonal matrix
M(i,i)=1/sqrt(m[i]) where m[i] is the mass of the displaced atom
Thus, these vectors are normalized but *not* orthogonal

                  0          1          2          3          4          5    
      0       0.000000   0.000000   0.000000   0.000000   0.000000   0.000000
      1       0.000000   0.000000   0.000000   0.000000   0.000000   0.000000
      2       0.000000   0.000000   0.000000   0.000000   0.000000   0.000000
      3       0.000000   0.000000   0.000000   0.000000   0.000000   0.000000
      4       0.000000   0.000000   0.000000   0.000000   0.000000   0.000000
      5       0.000000   0.000000   0.000000   0.000000   0.000000   0.000000
      6       0.000000   0.000000   0.000000   0.000000   0.000000   0.000000
      7       0.000000   0.000000   0.000000   0.000000   0.000000   0.000000
      8       0.000000   0.000000   0.000000   0.000000   0.000000   0.000000
      9       0.000000   0.000000   0.000000   0.000000   0.000000   0.000000
     10       0.000000   0.000000   0.000000   0.000000   0.000000   0.000000
     11       0.000000   0.000000   0.000000   0.000000   0.000000   0.000000
     12       0.000000   0.000000   0.000000   0.000000   0.000000   0.000000
     13       0.000000   0.000000   0.000000   0.000000   0.000000   0.000000
     14       0.000000   0.000000   0.000000   0.000000   0.000000   0.000000
     15       0.000000   0.000000   0.000000   0.000000   0.000000   0.000000
     16       0.000000   0.000000   0.000000   0.000000   0.000000   0.000000
     17       0.000000   0.000000   0.000000   0.000000   0.000000   0.000000
     18       0.000000   0.000000   0.000000   0.000000   0.000000   0.000000
     19       0.000000   0.000000   0.000000   0.000000   0.000000   0.000000
     20       0.000000   0.000000   0.000000   0.000000   0.000000   0.000000
     21       0.000000   0.000000   0.000000   0.000000   0.000000   0.000000
     22       0.000000   0.000000   0.000000   0.000000   0.000000   0.000000
     23       0.000000   0.000000   0.000000   0.000000   0.000000   0.000000
     24       0.000000   0.000000   0.000000   0.000000   0.000000   0.000000
     25       0.000000   0.000000   0.000000   0.000000   0.000000   0.000000
     26       0.000000   0.000000   0.000000   0.000000   0.000000   0.000000
                  6          7          8          9         10         11    
      0      -0.008529  -0.002836   0.031863  -0.077131  -0.056213  -0.051136
      1      -0.003785  -0.000584  -0.049492  -0.070635  -0.052402   0.056131
      2       0.002749  -0.002962   0.000632   0.044495  -0.057503  -0.001139
      3       0.001543   0.020446  -0.144897   0.397133  -0.186648   0.056423
      4       0.000026  -0.006113   0.218756   0.295639  -0.105999  -0.035529
      5       0.000332  -0.005435  -0.023869  -0.138772  -0.051683  -0.003201
      6       0.010690  -0.016070   0.052932  -0.156689   0.112959   0.058246
      7       0.000681   0.021676  -0.087325  -0.074833   0.125386  -0.142893
      8      -0.002207  -0.000673   0.004781  -0.100771   0.700537   0.014407
      9      -0.000315   0.028667  -0.149152   0.225606   0.416435   0.051831
     10      -0.000564  -0.032816   0.197141   0.169056   0.288650  -0.032056
     11      -0.001534   0.000138  -0.008303  -0.088516  -0.294988   0.000880
     12       0.095113  -0.037011   0.148760  -0.092196  -0.073340   0.257830
     13      -0.019911   0.042130  -0.121707  -0.001138  -0.042163  -0.204152
     14      -0.004197   0.049397   0.049587   0.191192  -0.080861  -0.018232
     15       0.047678   0.377066   0.510397  -0.390661  -0.089186   0.480002
     16       0.098318  -0.231474  -0.384788   0.084925  -0.042164  -0.384044
     17      -0.057672  -0.107665  -0.068624   0.389459  -0.066521  -0.075626
     18       0.058599  -0.004270   0.038170  -0.090371  -0.067963  -0.054672
     19       0.897364   0.029030  -0.170092  -0.048308  -0.057104  -0.319663
     20      -0.314059  -0.037061   0.041039  -0.022197  -0.121163   0.099031
     21       0.051336  -0.492114  -0.213717   0.215729  -0.064671   0.109695
     22       0.141267   0.132871  -0.118605   0.079970  -0.034430  -0.378704
     23      -0.072476  -0.265528  -0.184018   0.368964  -0.075993  -0.070735
     24      -0.059457  -0.052954   0.206128  -0.099760  -0.079606   0.433570
     25      -0.172058   0.287416   0.146012  -0.144328  -0.056116   0.054226
     26       0.082101   0.604940   0.461868  -0.087639  -0.089522   0.059903
                 12         13         14         15         16         17    
      0      -0.003311   0.098069   0.090145   0.023715   0.022578  -0.001698
      1       0.001496   0.048920   0.071117  -0.002056   0.029870  -0.002810
      2      -0.028946  -0.046157   0.159652  -0.143597  -0.016656  -0.006161
      3      -0.002988  -0.077064  -0.021695   0.167901  -0.003821   0.008342
      4       0.011616  -0.067111  -0.036958   0.179008  -0.003303  -0.001546
      5      -0.044311  -0.260208  -0.160127   0.825992   0.000957  -0.006148
      6       0.023915  -0.580795  -0.254625  -0.274704  -0.006311   0.001408
      7       0.014437  -0.344878  -0.160893  -0.166441  -0.007712   0.003260
      8       0.059910   0.216209   0.074375   0.130066   0.004250   0.005884
      9      -0.051268   0.078659  -0.227758  -0.049112   0.001323  -0.005077
     10      -0.072010   0.071609  -0.200940  -0.036201   0.004575   0.001159
     11      -0.002858   0.332350  -0.791488  -0.167591   0.010456   0.000979
     12       0.108040   0.095777   0.021435   0.059277  -0.268244   0.003393
     13       0.086845   0.145349   0.010330   0.070518  -0.413786   0.018094
     14       0.330301  -0.073337  -0.000032  -0.003053   0.193515   0.039778
     15      -0.110488   0.048908   0.109513  -0.003361  -0.318221   0.095762
     16       0.001485   0.179197   0.093984   0.018087  -0.251736   0.193418
     17       0.592526  -0.060551  -0.143007   0.089302   0.119957  -0.175344
     18      -0.004165   0.079028   0.072739   0.030043   0.015377   0.110805
     19      -0.068922   0.359770   0.175992   0.146519   0.285605   0.309434
     20      -0.021365  -0.142972   0.107973  -0.023923  -0.068100   0.851666
     21       0.371773   0.097724  -0.110506   0.112564  -0.256873  -0.096217
     22       0.267075   0.174813  -0.081258   0.156747  -0.212561  -0.271631
     23       0.453626  -0.078164  -0.058716   0.010674   0.140925   0.051932
     24       0.163375   0.023983  -0.044825   0.048296  -0.303893   0.013448
     25       0.092396   0.057923  -0.049832   0.067529  -0.445283  -0.004058
     26       0.193561  -0.052994   0.048730   0.020668   0.174067  -0.034945
                 18         19         20         21         22         23    
      0      -0.002822   0.000892   0.000858   0.000040   0.000386  -0.004326
      1       0.002153  -0.001513   0.001018   0.000098  -0.000346   0.000527
      2      -0.001681  -0.001986  -0.000680  -0.000185   0.000137   0.000406
      3       0.000622  -0.001043  -0.000312   0.000028  -0.000165   0.000117
      4       0.000246   0.001605  -0.000289   0.000204  -0.000116   0.000010
      5       0.000229   0.001939   0.000105   0.000116   0.000142   0.000031
      6       0.000588  -0.000388   0.001362  -0.000025   0.000005  -0.000680
      7      -0.001466   0.000708   0.000218  -0.000137   0.000556  -0.001240
      8       0.000726   0.000237  -0.000258   0.000103  -0.000176   0.000505
      9       0.000412   0.000213  -0.000251   0.000097  -0.000179   0.000082
     10      -0.000134  -0.000883  -0.000212   0.000031  -0.000120  -0.000054
     11       0.000917   0.000809   0.000496  -0.000061  -0.000085  -0.000094
     12       0.089365  -0.015675   0.028745  -0.028783   0.060562  -0.010086
     13      -0.008349   0.045192   0.094893  -0.016717  -0.027684   0.004451
     14       0.029784   0.107823  -0.040060  -0.053649  -0.016716  -0.000250
     15      -0.064937   0.275924  -0.041621  -0.034445  -0.596686  -0.012433
     16       0.439992   0.310497  -0.419988   0.262011   0.344003  -0.026923
     17      -0.189677  -0.366501   0.392299  -0.231201   0.282570   0.023989
     18       0.057025  -0.084420  -0.037998  -0.018699  -0.034020   0.986170
     19      -0.354538  -0.042590   0.051576  -0.021474   0.016217  -0.068797
     20       0.039744  -0.446650  -0.028040  -0.081737  -0.053553  -0.115776
     21      -0.147289  -0.228233  -0.084494   0.478652  -0.380369  -0.010274
     22       0.200694  -0.553107  -0.588464  -0.264131  -0.275122  -0.065091
     23      -0.169521   0.110443   0.083255   0.359213  -0.217572   0.018598
     24      -0.420518   0.093735  -0.372536  -0.093783   0.226701   0.010907
     25      -0.555825  -0.010836  -0.360851   0.200494   0.300478   0.051031
     26       0.224131  -0.302736   0.149302   0.623162   0.165496  -0.017966
                 24         25         26    
      0       0.000012  -0.000044  -0.000037
      1       0.000073   0.000026   0.000023
      2      -0.000030  -0.000001  -0.000018
      3      -0.000007  -0.000003   0.000035
      4      -0.000031  -0.000024   0.000069
      5      -0.000011   0.000008   0.000059
      6       0.000036   0.000034   0.000019
      7       0.000018  -0.000020  -0.000002
      8      -0.000017  -0.000016   0.000018
      9      -0.000010   0.000008  -0.000015
     10      -0.000038  -0.000014  -0.000074
     11       0.000021  -0.000070   0.000043
     12       0.013073  -0.068164  -0.055203
     13       0.038851   0.047723  -0.015849
     14      -0.021028   0.040864  -0.074003
     15      -0.321117  -0.070504   0.472049
     16      -0.269609  -0.036383   0.407587
     17      -0.369759  -0.055252   0.533486
     18       0.009228   0.011611   0.008751
     19      -0.000645  -0.000066  -0.000026
     20      -0.000868   0.001439  -0.004320
     21      -0.306583   0.393591  -0.176120
     22       0.135770  -0.160821   0.067091
     23       0.469406  -0.623489   0.235964
     24       0.459802   0.484691   0.358963
     25      -0.340800  -0.374281  -0.289933
     26       0.157902   0.193377   0.115981


-----------
IR SPECTRUM
-----------

 Mode   freq       eps      Int      T**2         TX        TY        TZ
       cm**-1   L/(mol*cm) km/mol    a.u.
----------------------------------------------------------------------------
  7:     93.50   0.000143    0.72  0.000477  (-0.008861  0.019291  0.005136)
  8:    108.15   0.000550    2.78  0.001587  ( 0.019232 -0.032684  0.012217)
  9:    153.68   0.000058    0.29  0.000118  (-0.006831 -0.006032  0.005914)
 10:    165.41   0.000015    0.08  0.000029  (-0.003974 -0.002965  0.001995)
 11:    172.47   0.000200    1.01  0.000361  (-0.012567 -0.013130  0.005565)
 12:    198.03   0.000572    2.89  0.000902  ( 0.007405  0.006395  0.028397)
 13:    322.17   0.007271   36.74  0.007043  ( 0.060279  0.046740 -0.034992)
 14:    343.54   0.011493   58.08  0.010440  ( 0.045838  0.039480  0.082344)
 15:    347.88   0.006035   30.50  0.005414  ( 0.009021  0.005409 -0.072822)
 16:    478.55   0.002091   10.57  0.001363  ( 0.027954  0.019411 -0.014323)
 17:    698.86   0.003224   16.29  0.001440  ( 0.009674  0.002274  0.036616)
 18:    947.10   0.002480   12.53  0.000817  (-0.028314 -0.003938  0.000306)
 19:    997.78   0.002384   12.05  0.000746  ( 0.002071 -0.008186 -0.025968)
 20:   1359.33   0.005050   25.52  0.001159  ( 0.025046  0.020547 -0.010477)
 21:   1531.78   0.000777    3.93  0.000158  ( 0.005285  0.002417  0.011163)
 22:   1535.60   0.000806    4.07  0.000164  (-0.010076  0.007817  0.001112)
 23:   2255.26   0.000726    3.67  0.000100  ( 0.009919 -0.001431  0.000218)
 24:   3112.21   0.005100   25.77  0.000511  ( 0.014806  0.015091 -0.008025)
 25:   3199.32   0.001726    8.72  0.000168  (-0.008827  0.001386  0.009408)
 26:   3208.54   0.002411   12.18  0.000234  (-0.008462 -0.007442 -0.010367)

* The epsilon (eps) is given for a Dirac delta lineshape.
** The dipole moment derivative (T) already includes vibrational overlap.

The first frequency considered to be a vibration is 7
The total number of vibrations considered is 20


--------------------------
THERMOCHEMISTRY AT 298.15K
--------------------------

Temperature         ... 298.15 K
Pressure            ... 1.00 atm
Total Mass          ... 317.49 AMU

Throughout the following assumptions are being made:
  (1) The electronic state is orbitally nondegenerate
  (2) There are no thermally accessible electronically excited states
  (3) Hindered rotations indicated by low frequency modes are not
      treated as such but are treated as vibrations and this may
      cause some error
  (4) All equations used are the standard statistical mechanics
      equations for an ideal gas
  (5) All vibrations are strictly harmonic

freq.      93.50  E(vib)   ...       0.47 
freq.     108.15  E(vib)   ...       0.45 
freq.     153.68  E(vib)   ...       0.40 
freq.     165.41  E(vib)   ...       0.39 
freq.     172.47  E(vib)   ...       0.38 
freq.     198.03  E(vib)   ...       0.35 
freq.     322.17  E(vib)   ...       0.25 
freq.     343.54  E(vib)   ...       0.23 
freq.     347.88  E(vib)   ...       0.23 
freq.     478.55  E(vib)   ...       0.15 
freq.     698.86  E(vib)   ...       0.07 
freq.     947.10  E(vib)   ...       0.03 
freq.     997.78  E(vib)   ...       0.02 
freq.    1359.33  E(vib)   ...       0.01 
freq.    1531.78  E(vib)   ...       0.00 
freq.    1535.60  E(vib)   ...       0.00 
freq.    2255.26  E(vib)   ...       0.00 
freq.    3112.21  E(vib)   ...       0.00 
freq.    3199.32  E(vib)   ...       0.00 
freq.    3208.54  E(vib)   ...       0.00 

------------
INNER ENERGY
------------

The inner energy is: U= E(el) + E(ZPE) + E(vib) + E(rot) + E(trans)
    E(el)   - is the total energy from the electronic structure calculation
              = E(kin-el) + E(nuc-el) + E(el-el) + E(nuc-nuc)
    E(ZPE)  - the the zero temperature vibrational energy from the frequency calculation
    E(vib)  - the the finite temperature correction to E(ZPE) due to population
              of excited vibrational states
    E(rot)  - is the rotational thermal energy
    E(trans)- is the translational thermal energy

Summary of contributions to the inner energy U:
Electronic energy                ...  -1539.02178887 Eh
Zero point energy                ...      0.04836355 Eh      30.35 kcal/mol
Thermal vibrational correction   ...      0.00546812 Eh       3.43 kcal/mol
Thermal rotational correction    ...      0.00141627 Eh       0.89 kcal/mol
Thermal translational correction ...      0.00141627 Eh       0.89 kcal/mol
[...]
NOTIFICATION: Different basis set in ORCA and otool_gcp:
ORCA: 109  gCP: 108 
If you are NOT using ECPs, check your basis set inputs!
 ** NOTE ** -> element pt will be treated as ni
NOTIFICATION: Different basis set in ORCA and otool_gcp:
ORCA: 109  gCP: 108 
If you are NOT using ECPs, check your basis set inputs!
 ** NOTE ** -> element pt will be treated as ni
NOTIFICATION: Different basis set in ORCA and otool_gcp:
ORCA: 109  gCP: 108 
If you are NOT using ECPs, check your basis set inputs!
 ** NOTE ** -> element pt will be treated as ni
NOTIFICATION: Different basis set in ORCA and otool_gcp:
ORCA: 109  gCP: 108 
If you are NOT using ECPs, check your basis set inputs!
   28     -1539.045467   -11.502676    0.001271  0.000578
 ** NOTE ** -> element pt will be treated as ni
NOTIFICATION: Different basis set in ORCA and otool_gcp:
ORCA: 109  gCP: 108 
If you are NOT using ECPs, check your basis set inputs!
 ** NOTE ** -> element pt will be treated as ni
NOTIFICATION: Different basis set in ORCA and otool_gcp:
ORCA: 109  gCP: 108 
If you are NOT using ECPs, check your basis set inputs!
 ** NOTE ** -> element pt will be treated as ni
NOTIFICATION: Different basis set in ORCA and otool_gcp:
ORCA: 109  gCP: 108 
If you are NOT using ECPs, check your basis set inputs!
 ** NOTE ** -> element pt will be treated as ni
NOTIFICATION: Different basis set in ORCA and otool_gcp:
ORCA: 109  gCP: 108 
If you are NOT using ECPs, check your basis set inputs!
 ** NOTE ** -> element pt will be treated as ni
NOTIFICATION: Different basis set in ORCA and otool_gcp:
ORCA: 109  gCP: 108 
If you are NOT using ECPs, check your basis set inputs!
 ** NOTE ** -> element pt will be treated as ni
NOTIFICATION: Different basis set in ORCA and otool_gcp:
ORCA: 109  gCP: 108 
If you are NOT using ECPs, check your basis set inputs!
   29     -1539.045478   -11.509677    0.001266  0.000479

                      ***********************HURRAY********************
                      ***            THE IRC HAS CONVERGED          ***
                      *************************************************


         *************************************************************
         *                          BACKWARD IRC                     *
         *************************************************************

 ** NOTE ** -> element pt will be treated as ni
NOTIFICATION: Different basis set in ORCA and otool_gcp:
ORCA: 109  gCP: 108 
If you are NOT using ECPs, check your basis set inputs!
Iteration    E(Eh)      dE(kcal/mol)  max(|G|)   RMS(G) 
Convergence thresholds                0.002000  0.000500            
    0     -1539.028456   -0.828066    0.013138  0.003200
 ** NOTE ** -> element pt will be treated as ni
NOTIFICATION: Different basis set in ORCA and otool_gcp:
ORCA: 109  gCP: 108 
If you are NOT using ECPs, check your basis set inputs!
 ** NOTE ** -> element pt will be treated as ni
NOTIFICATION: Different basis set in ORCA and otool_gcp:
ORCA: 109  gCP: 108 
If you are NOT using ECPs, check your basis set inputs!
 ** NOTE ** -> element pt will be treated as ni
NOTIFICATION: Different basis set in ORCA and otool_gcp:
ORCA: 109  gCP: 108 
If you are NOT using ECPs, check your basis set inputs!
 ** NOTE ** -> element pt will be treated as ni
NOTIFICATION: Different basis set in ORCA and otool_gcp:
ORCA: 109  gCP: 108 
If you are NOT using ECPs, check your basis set inputs!
 ** NOTE ** -> element pt will be treated as ni
NOTIFICATION: Different basis set in ORCA and otool_gcp:
ORCA: 109  gCP: 108 
If you are NOT using ECPs, check your basis set inputs!
 ** NOTE ** -> element pt will be treated as ni
NOTIFICATION: Different basis set in ORCA and otool_gcp:
ORCA: 109  gCP: 108 
If you are NOT using ECPs, check your basis set inputs!
    1     -1539.028741   -1.007021    0.006980  0.001934
 ** NOTE ** -> element pt will be treated as ni
NOTIFICATION: Different basis set in ORCA and otool_gcp:
ORCA: 109  gCP: 108 
If you are NOT using ECPs, check your basis set inputs!
 ** NOTE ** -> element pt will be treated as ni
NOTIFICATION: Different basis set in ORCA and otool_gcp:
ORCA: 109  gCP: 108 
If you are NOT using ECPs, check your basis set inputs!
 ** NOTE ** -> element pt will be treated as ni
NOTIFICATION: Different basis set in ORCA and otool_gcp:
ORCA: 109  gCP: 108 
If you are NOT using ECPs, check your basis set inputs!
 ** NOTE ** -> element pt will be treated as ni
NOTIFICATION: Different basis set in ORCA and otool_gcp:
ORCA: 109  gCP: 108 
If you are NOT using ECPs, check your basis set inputs!
 ** NOTE ** -> element pt will be treated as ni
NOTIFICATION: Different basis set in ORCA and otool_gcp:
ORCA: 109  gCP: 108 
If you are NOT using ECPs, check your basis set inputs!
 ** NOTE ** -> element pt will be treated as ni
NOTIFICATION: Different basis set in ORCA and otool_gcp:
ORCA: 109  gCP: 108 
If you are NOT using ECPs, check your basis set inputs!
    2     -1539.028951   -1.139059    0.004912  0.001444
 ** NOTE ** -> element pt will be treated as ni
NOTIFICATION: Different basis set in ORCA and otool_gcp:
ORCA: 109  gCP: 108 
If you are NOT using ECPs, check your basis set inputs!
 ** NOTE ** -> element pt will be treated as ni
NOTIFICATION: Different basis set in ORCA and otool_gcp:
ORCA: 109  gCP: 108 
If you are NOT using ECPs, check your basis set inputs!
 ** NOTE ** -> element pt will be treated as ni
NOTIFICATION: Different basis set in ORCA and otool_gcp:
ORCA: 109  gCP: 108 
If you are NOT using ECPs, check your basis set inputs!
 ** NOTE ** -> element pt will be treated as ni
NOTIFICATION: Different basis set in ORCA and otool_gcp:
ORCA: 109  gCP: 108 
If you are NOT using ECPs, check your basis set inputs!
    3     -1539.029190   -1.288822    0.005260  0.001299
 ** NOTE ** -> element pt will be treated as ni
NOTIFICATION: Different basis set in ORCA and otool_gcp:
ORCA: 109  gCP: 108 
If you are NOT using ECPs, check your basis set inputs!
 ** NOTE ** -> element pt will be treated as ni
NOTIFICATION: Different basis set in ORCA and otool_gcp:
ORCA: 109  gCP: 108 
If you are NOT using ECPs, check your basis set inputs!
 ** NOTE ** -> element pt will be treated as ni
NOTIFICATION: Different basis set in ORCA and otool_gcp:
ORCA: 109  gCP: 108 
If you are NOT using ECPs, check your basis set inputs!
 ** NOTE ** -> element pt will be treated as ni
NOTIFICATION: Different basis set in ORCA and otool_gcp:
ORCA: 109  gCP: 108 
If you are NOT using ECPs, check your basis set inputs!
    4     -1539.029434   -1.441874    0.005113  0.001258
 ** NOTE ** -> element pt will be treated as ni
NOTIFICATION: Different basis set in ORCA and otool_gcp:
ORCA: 109  gCP: 108 
If you are NOT using ECPs, check your basis set inputs!
 ** NOTE ** -> element pt will be treated as ni
NOTIFICATION: Different basis set in ORCA and otool_gcp:
ORCA: 109  gCP: 108 
If you are NOT using ECPs, check your basis set inputs!
 ** NOTE ** -> element pt will be treated as ni
NOTIFICATION: Different basis set in ORCA and otool_gcp:
ORCA: 109  gCP: 108 
If you are NOT using ECPs, check your basis set inputs!
 ** NOTE ** -> element pt will be treated as ni
NOTIFICATION: Different basis set in ORCA and otool_gcp:
ORCA: 109  gCP: 108 
If you are NOT using ECPs, check your basis set inputs!
    5     -1539.029670   -1.590144    0.005155  0.001221
 ** NOTE ** -> element pt will be treated as ni
NOTIFICATION: Different basis set in ORCA and otool_gcp:
ORCA: 109  gCP: 108 
If you are NOT using ECPs, check your basis set inputs!
 ** NOTE ** -> element pt will be treated as ni
NOTIFICATION: Different basis set in ORCA and otool_gcp:
ORCA: 109  gCP: 108 
If you are NOT using ECPs, check your basis set inputs!
 ** NOTE ** -> element pt will be treated as ni
NOTIFICATION: Different basis set in ORCA and otool_gcp:
ORCA: 109  gCP: 108 
If you are NOT using ECPs, check your basis set inputs!
 ** NOTE ** -> element pt will be treated as ni
NOTIFICATION: Different basis set in ORCA and otool_gcp:
ORCA: 109  gCP: 108 
If you are NOT using ECPs, check your basis set inputs!
    6     -1539.029895   -1.731592    0.004835  0.001164
 ** NOTE ** -> element pt will be treated as ni
NOTIFICATION: Different basis set in ORCA and otool_gcp:
ORCA: 109  gCP: 108 
If you are NOT using ECPs, check your basis set inputs!
 ** NOTE ** -> element pt will be treated as ni
NOTIFICATION: Different basis set in ORCA and otool_gcp:
ORCA: 109  gCP: 108 
If you are NOT using ECPs, check your basis set inputs!
 ** NOTE ** -> element pt will be treated as ni
NOTIFICATION: Different basis set in ORCA and otool_gcp:
ORCA: 109  gCP: 108 
If you are NOT using ECPs, check your basis set inputs!
 ** NOTE ** -> element pt will be treated as ni
NOTIFICATION: Different basis set in ORCA and otool_gcp:
ORCA: 109  gCP: 108 
If you are NOT using ECPs, check your basis set inputs!
    7     -1539.030111   -1.866981    0.004789  0.001117
 ** NOTE ** -> element pt will be treated as ni
NOTIFICATION: Different basis set in ORCA and otool_gcp:
ORCA: 109  gCP: 108 
If you are NOT using ECPs, check your basis set inputs!
 ** NOTE ** -> element pt will be treated as ni
NOTIFICATION: Different basis set in ORCA and otool_gcp:
ORCA: 109  gCP: 108 
If you are NOT using ECPs, check your basis set inputs!
 ** NOTE ** -> element pt will be treated as ni
NOTIFICATION: Different basis set in ORCA and otool_gcp:
ORCA: 109  gCP: 108 
If you are NOT using ECPs, check your basis set inputs!
 ** NOTE ** -> element pt will be treated as ni
NOTIFICATION: Different basis set in ORCA and otool_gcp:
ORCA: 109  gCP: 108 
If you are NOT using ECPs, check your basis set inputs!
    8     -1539.030312   -1.992838    0.004334  0.001038
 ** NOTE ** -> element pt will be treated as ni
NOTIFICATION: Different basis set in ORCA and otool_gcp:
ORCA: 109  gCP: 108 
If you are NOT using ECPs, check your basis set inputs!
 ** NOTE ** -> element pt will be treated as ni
NOTIFICATION: Different basis set in ORCA and otool_gcp:
ORCA: 109  gCP: 108 
If you are NOT using ECPs, check your basis set inputs!
 ** NOTE ** -> element pt will be treated as ni
NOTIFICATION: Different basis set in ORCA and otool_gcp:
ORCA: 109  gCP: 108 
If you are NOT using ECPs, check your basis set inputs!
 ** NOTE ** -> element pt will be treated as ni
NOTIFICATION: Different basis set in ORCA and otool_gcp:
ORCA: 109  gCP: 108 
If you are NOT using ECPs, check your basis set inputs!
    9     -1539.030501   -2.111448    0.004197  0.000976
 ** NOTE ** -> element pt will be treated as ni
NOTIFICATION: Different basis set in ORCA and otool_gcp:
ORCA: 109  gCP: 108 
If you are NOT using ECPs, check your basis set inputs!
 ** NOTE ** -> element pt will be treated as ni
NOTIFICATION: Different basis set in ORCA and otool_gcp:
ORCA: 109  gCP: 108 
If you are NOT using ECPs, check your basis set inputs!
 ** NOTE ** -> element pt will be treated as ni
NOTIFICATION: Different basis set in ORCA and otool_gcp:
ORCA: 109  gCP: 108 
If you are NOT using ECPs, check your basis set inputs!
 ** NOTE ** -> element pt will be treated as ni
NOTIFICATION: Different basis set in ORCA and otool_gcp:
ORCA: 109  gCP: 108 
If you are NOT using ECPs, check your basis set inputs!
   10     -1539.030672   -2.218871    0.003661  0.000885
 ** NOTE ** -> element pt will be treated as ni
NOTIFICATION: Different basis set in ORCA and otool_gcp:
ORCA: 109  gCP: 108 
If you are NOT using ECPs, check your basis set inputs!
 ** NOTE ** -> element pt will be treated as ni
NOTIFICATION: Different basis set in ORCA and otool_gcp:
ORCA: 109  gCP: 108 
If you are NOT using ECPs, check your basis set inputs!
 ** NOTE ** -> element pt will be treated as ni
NOTIFICATION: Different basis set in ORCA and otool_gcp:
ORCA: 109  gCP: 108 
If you are NOT using ECPs, check your basis set inputs!
 ** NOTE ** -> element pt will be treated as ni
NOTIFICATION: Different basis set in ORCA and otool_gcp:
ORCA: 109  gCP: 108 
If you are NOT using ECPs, check your basis set inputs!
   11     -1539.030829   -2.317373    0.003452  0.000806
 ** NOTE ** -> element pt will be treated as ni
NOTIFICATION: Different basis set in ORCA and otool_gcp:
ORCA: 109  gCP: 108 
If you are NOT using ECPs, check your basis set inputs!
 ** NOTE ** -> element pt will be treated as ni
NOTIFICATION: Different basis set in ORCA and otool_gcp:
ORCA: 109  gCP: 108 
If you are NOT using ECPs, check your basis set inputs!
 ** NOTE ** -> element pt will be treated as ni
NOTIFICATION: Different basis set in ORCA and otool_gcp:
ORCA: 109  gCP: 108 
If you are NOT using ECPs, check your basis set inputs!
 ** NOTE ** -> element pt will be treated as ni
NOTIFICATION: Different basis set in ORCA and otool_gcp:
ORCA: 109  gCP: 108 
If you are NOT using ECPs, check your basis set inputs!
   12     -1539.030967   -2.404215    0.002891  0.000710
 ** NOTE ** -> element pt will be treated as ni
NOTIFICATION: Different basis set in ORCA and otool_gcp:
ORCA: 109  gCP: 108 
If you are NOT using ECPs, check your basis set inputs!
 ** NOTE ** -> element pt will be treated as ni
NOTIFICATION: Different basis set in ORCA and otool_gcp:
ORCA: 109  gCP: 108 
If you are NOT using ECPs, check your basis set inputs!
 ** NOTE ** -> element pt will be treated as ni
NOTIFICATION: Different basis set in ORCA and otool_gcp:
ORCA: 109  gCP: 108 
If you are NOT using ECPs, check your basis set inputs!
 ** NOTE ** -> element pt will be treated as ni
NOTIFICATION: Different basis set in ORCA and otool_gcp:
ORCA: 109  gCP: 108 
If you are NOT using ECPs, check your basis set inputs!
   13     -1539.031089   -2.480625    0.002617  0.000622
 ** NOTE ** -> element pt will be treated as ni
NOTIFICATION: Different basis set in ORCA and otool_gcp:
ORCA: 109  gCP: 108 
If you are NOT using ECPs, check your basis set inputs!
 ** NOTE ** -> element pt will be treated as ni
NOTIFICATION: Different basis set in ORCA and otool_gcp:
ORCA: 109  gCP: 108 
If you are NOT using ECPs, check your basis set inputs!
 ** NOTE ** -> element pt will be treated as ni
NOTIFICATION: Different basis set in ORCA and otool_gcp:
ORCA: 109  gCP: 108 
If you are NOT using ECPs, check your basis set inputs!
 ** NOTE ** -> element pt will be treated as ni
NOTIFICATION: Different basis set in ORCA and otool_gcp:
ORCA: 109  gCP: 108 
If you are NOT using ECPs, check your basis set inputs!
   14     -1539.031191   -2.544814    0.002052  0.000522
 ** NOTE ** -> element pt will be treated as ni
NOTIFICATION: Different basis set in ORCA and otool_gcp:
ORCA: 109  gCP: 108 
If you are NOT using ECPs, check your basis set inputs!
 ** NOTE ** -> element pt will be treated as ni
NOTIFICATION: Different basis set in ORCA and otool_gcp:
ORCA: 109  gCP: 108 
If you are NOT using ECPs, check your basis set inputs!
 ** NOTE ** -> element pt will be treated as ni
NOTIFICATION: Different basis set in ORCA and otool_gcp:
ORCA: 109  gCP: 108 
If you are NOT using ECPs, check your basis set inputs!
 ** NOTE ** -> element pt will be treated as ni
NOTIFICATION: Different basis set in ORCA and otool_gcp:
ORCA: 109  gCP: 108 
If you are NOT using ECPs, check your basis set inputs!
   15     -1539.031276   -2.597831    0.001728  0.000432

                      ***********************HURRAY********************
                      ***            THE IRC HAS CONVERGED          ***
                      *************************************************


---------------------------------------------------------------
                       IRC PATH SUMMARY              
---------------------------------------------------------------
All gradients are in Eh/Bohr.

Step        E(Eh)      dE(kcal/mol)  max(|G|)   RMS(G) 
   1     -1539.031276   -2.597831    0.001728  0.000432
   2     -1539.031191   -2.544814    0.002052  0.000522
   3     -1539.031089   -2.480625    0.002617  0.000622
   4     -1539.030967   -2.404215    0.002891  0.000710
   5     -1539.030829   -2.317373    0.003452  0.000806
   6     -1539.030672   -2.218871    0.003661  0.000885
   7     -1539.030501   -2.111448    0.004197  0.000976
   8     -1539.030312   -1.992838    0.004334  0.001038
   9     -1539.030111   -1.866981    0.004789  0.001117
  10     -1539.029895   -1.731592    0.004835  0.001164
  11     -1539.029670   -1.590144    0.005155  0.001221
  12     -1539.029434   -1.441874    0.005113  0.001258
  13     -1539.029190   -1.288822    0.005260  0.001299
  14     -1539.028951   -1.139059    0.004912  0.001444
  15     -1539.028741   -1.007021    0.006980  0.001934
  16     -1539.028456   -0.828066    0.013138  0.003200
  17     -1539.027136    0.000000    0.000456  0.000174 <= TS
  18     -1539.029172   -1.277632    0.016193  0.004926
  19     -1539.031333   -2.633744    0.011917  0.003847
  20     -1539.034073   -4.353120    0.011667  0.003857
  21     -1539.036827   -6.081249    0.009175  0.003464
  22     -1539.039111   -7.514254    0.006810  0.002840
  23     -1539.040855   -8.609036    0.004298  0.002269
  24     -1539.042114   -9.398778    0.005517  0.002121
  25     -1539.042449   -9.609067    0.004669  0.001986
  26     -1539.042640   -9.728849    0.002991  0.001624
  27     -1539.042901   -9.892745    0.002798  0.001445
  28     -1539.043157   -10.053347    0.002699  0.001338
  29     -1539.043389   -10.198802    0.002580  0.001244
  30     -1539.043603   -10.333210    0.002461  0.001156
  31     -1539.043802   -10.458127    0.002333  0.001077
  32     -1539.043988   -10.574610    0.002205  0.001011
  33     -1539.044159   -10.682068    0.002076  0.000939
  34     -1539.044319   -10.782651    0.001950  0.000889
  35     -1539.044466   -10.874431    0.001827  0.000820
  36     -1539.044603   -10.960754    0.001727  0.000779
  37     -1539.044728   -11.039177    0.001663  0.000720
  38     -1539.044845   -11.112801    0.001617  0.000675
  39     -1539.044953   -11.180615    0.001562  0.000633
  40     -1539.045053   -11.243376    0.001519  0.000598
  41     -1539.045145   -11.301077    0.001471  0.000561
  42     -1539.045231   -11.354550    0.001409  0.000536
  43     -1539.045309   -11.403558    0.001385  0.000513
  44     -1539.045380   -11.448171    0.001308  0.000505
  45     -1539.045443   -11.487613    0.001339  0.000547
  46     -1539.045467   -11.502676    0.001271  0.000578
  47     -1539.045478   -11.509677    0.001266  0.000479

Timings for individual modules:

Sum of individual times         ...     1023.897 sec (=  17.065 min)
GTO integral calculation        ...      113.953 sec (=   1.899 min)  11.1 %
SCF iterations                  ...      753.943 sec (=  12.566 min)  73.6 %
SCF Gradient evaluation         ...      156.000 sec (=   2.600 min)  15.2 %
================================================================================

cite the ECPs for Pt [Def2-ECP] as follows:
Ce-Yb(ecp-28): M. Dolg, H. Stoll, H.Preuss, J. Chem. Phys., 1989, 90, 1730-1734.
Y-Cd(ecp-28), Hf-Hg(ecp-46): D. Andrae,U. Haeussermann, M. Dolg, H. Stoll, H. Preuss, Theor. Chim. Acta, 1990, 77, 123-141.
In-Sb(ecp-28), Tl-Bi(ecp-46): B. Metz, H. Stoll, M. Dolg, J. Chem. Phys., 2000, 113, 2563-2569.
Te-Xe(ecp-28), Po-Rn(ecp-46): K. A. Peterson, D. Figgen, E. Goll, H. Stoll, M. Dolg, J. Chem. Phys., 2003, 119, 11113-11123.
Rb(ecp-28), Cs(ecp-46): T. Leininger, A. Nicklass, W. Kuechle, H. Stoll, M. Dolg, A. Bergner, Chem. Phys. Lett., 1996, 255, 274-280.
Sr(ecp-28), Ba(ecp-46): M. Kaupp, P. V. Schleyer, H. Stoll and H. Preuss, J. Chem. Phys., 1991, 94, 1360-1366.
La(ecp-46): M. Dolg, H. Stoll, A. Savin, H. Preuss, Theor. Chim. Acta, 1989, 75, 173-194.
Lu(ecp-28): X. Cao, M. Dolg, J. Chem. Phys., 2001, 115, 7348-7355.

ECP parameters for Pt [Def2-ECP] have been obtained from:
TURBOMOLE (7.0.2)

----- Orbital basis set information -----
Your calculation utilizes the basis: def2-SVP
   F. Weigend and R. Ahlrichs, Phys. Chem. Chem. Phys. 7, 3297 (2005).

                             ****ORCA TERMINATED NORMALLY****
TOTAL RUN TIME: 0 days 0 hours 19 minutes 6 seconds 328 msec
