21
	Energy:      39.2428897
Sc         2.34080        1.85274        4.93176
C          1.84008        2.36297        7.02773
N          0.89673        1.69196        7.82509
C          0.90245        2.32637        9.08606
C          1.82510        3.35984        9.05832
N          2.42122        3.39942        7.77840
C          3.43155        4.32031        7.32154
H          3.70364        5.03000        8.13150
H          3.04646        4.89609        6.45459
H          4.33819        3.75783        7.01544
C          0.07979        0.57113        7.43351
H          0.29058        0.28812        6.38024
H         -0.99281        0.84188        7.52603
H          0.29737       -0.29646        8.09085
H          0.28573        2.04583        9.92978
H          2.05531        4.02845        9.87743
C          1.60861        4.74790        3.69833
H          1.42528        4.95445        2.62391
H          1.51859        5.68966        4.27747
H          0.86172        4.01514        4.06708
H          2.62949        4.33270        3.82527
