
                                 *****************
                                 * O   R   C   A *
                                 *****************

                                            #,                                       
                                            ###                                      
                                            ####                                     
                                            #####                                    
                                            ######                                   
                                           ########,                                 
                                     ,,################,,,,,                         
                               ,,#################################,,                 
                          ,,##########################################,,             
                       ,#########################################, ''#####,          
                    ,#############################################,,   '####,        
                  ,##################################################,,,,####,       
                ,###########''''           ''''###############################       
              ,#####''   ,,,,##########,,,,          '''####'''          '####       
            ,##' ,,,,###########################,,,                        '##       
           ' ,,###''''                  '''############,,,                           
         ,,##''                                '''############,,,,        ,,,,,,###''
      ,#''                                            '''#######################'''  
     '                                                          ''''####''''         
             ,#######,   #######,   ,#######,      ##                                
            ,#'     '#,  ##    ##  ,#'     '#,    #''#        ######   ,####,        
            ##       ##  ##   ,#'  ##            #'  '#       #        #'  '#        
            ##       ##  #######   ##           ,######,      #####,   #    #        
            '#,     ,#'  ##    ##  '#,     ,#' ,#      #,         ##   #,  ,#        
             '#######'   ##     ##  '#######'  #'      '#     #####' # '####'        



                  #######################################################
                  #                        -***-                        #
                  #          Department of theory and spectroscopy      #
                  #    Directorship and core code : Frank Neese         #
                  #        Max Planck Institute fuer Kohlenforschung    #
                  #                Kaiser Wilhelm Platz 1               #
                  #                 D-45470 Muelheim/Ruhr               #
                  #                      Germany                        #
                  #                                                     #
                  #                  All rights reserved                #
                  #                        -***-                        #
                  #######################################################


                         Program Version 5.0.3 -  RELEASE  -


 With contributions from (in alphabetic order):
   Daniel Aravena         : Magnetic Suceptibility
   Michael Atanasov       : Ab Initio Ligand Field Theory (pilot matlab implementation)
   Alexander A. Auer      : GIAO ZORA, VPT2 properties, NMR spectrum
   Ute Becker             : Parallelization
   Giovanni Bistoni       : ED, misc. LED, open-shell LED, HFLD
   Martin Brehm           : Molecular dynamics
   Dmytro Bykov           : SCF Hessian
   Vijay G. Chilkuri      : MRCI spin determinant printing, contributions to CSF-ICE
   Dipayan Datta          : RHF DLPNO-CCSD density
   Achintya Kumar Dutta   : EOM-CC, STEOM-CC
   Dmitry Ganyushin       : Spin-Orbit,Spin-Spin,Magnetic field MRCI
   Miquel Garcia          : C-PCM and meta-GGA Hessian, CC/C-PCM, Gaussian charge scheme
   Yang Guo               : DLPNO-NEVPT2, F12-NEVPT2, CIM, IAO-localization
   Andreas Hansen         : Spin unrestricted coupled pair/coupled cluster methods
   Benjamin Helmich-Paris : MC-RPA, TRAH-SCF, COSX integrals
   Lee Huntington         : MR-EOM, pCC
   Robert Izsak           : Overlap fitted RIJCOSX, COSX-SCS-MP3, EOM
   Marcus Kettner         : VPT2
   Christian Kollmar      : KDIIS, OOCD, Brueckner-CCSD(T), CCSD density, CASPT2, CASPT2-K
   Simone Kossmann        : Meta GGA functionals, TD-DFT gradient, OOMP2, MP2 Hessian
   Martin Krupicka        : Initial AUTO-CI
   Lucas Lang             : DCDCAS
   Marvin Lechner         : AUTO-CI (C++ implementation), FIC-MRCC
   Dagmar Lenk            : GEPOL surface, SMD
   Dimitrios Liakos       : Extrapolation schemes; Compound Job, initial MDCI parallelization
   Dimitrios Manganas     : Further ROCIS development; embedding schemes
   Dimitrios Pantazis     : SARC Basis sets
   Anastasios Papadopoulos: AUTO-CI, single reference methods and gradients
   Taras Petrenko         : DFT Hessian,TD-DFT gradient, ASA, ECA, R-Raman, ABS, FL, XAS/XES, NRVS
   Peter Pinski           : DLPNO-MP2, DLPNO-MP2 Gradient
   Christoph Reimann      : Effective Core Potentials
   Marius Retegan         : Local ZFS, SOC
   Christoph Riplinger    : Optimizer, TS searches, QM/MM, DLPNO-CCSD(T), (RO)-DLPNO pert. Triples
   Tobias Risthaus        : Range-separated hybrids, TD-DFT gradient, RPA, STAB
   Michael Roemelt        : Original ROCIS implementation
   Masaaki Saitow         : Open-shell DLPNO-CCSD energy and density
   Barbara Sandhoefer     : DKH picture change effects
   Avijit Sen             : IP-ROCIS
   Kantharuban Sivalingam : CASSCF convergence, NEVPT2, FIC-MRCI
   Bernardo de Souza      : ESD, SOC TD-DFT
   Georgi Stoychev        : AutoAux, RI-MP2 NMR, DLPNO-MP2 response
   Willem Van den Heuvel  : Paramagnetic NMR
   Boris Wezisla          : Elementary symmetry handling
   Frank Wennmohs         : Technical directorship


 We gratefully acknowledge several colleagues who have allowed us to
 interface, adapt or use parts of their codes:
   Stefan Grimme, W. Hujo, H. Kruse, P. Pracht,  : VdW corrections, initial TS optimization,
                  C. Bannwarth, S. Ehlert          DFT functionals, gCP, sTDA/sTD-DF
   Ed Valeev, F. Pavosevic, A. Kumar             : LibInt (2-el integral package), F12 methods
   Garnet Chan, S. Sharma, J. Yang, R. Olivares  : DMRG
   Ulf Ekstrom                                   : XCFun DFT Library
   Mihaly Kallay                                 : mrcc  (arbitrary order and MRCC methods)
   Jiri Pittner, Ondrej Demel                    : Mk-CCSD
   Frank Weinhold                                : gennbo (NPA and NBO analysis)
   Christopher J. Cramer and Donald G. Truhlar   : smd solvation model
   Lars Goerigk                                  : TD-DFT with DH, B97 family of functionals
   V. Asgeirsson, H. Jonsson                     : NEB implementation
   FAccTs GmbH                                   : IRC, NEB, NEB-TS, DLPNO-Multilevel, CI-OPT
                                                   MM, QMMM, 2- and 3-layer-ONIOM, Crystal-QMMM,
                                                   LR-CPCM, SF, NACMEs, symmetry and pop. for TD-DFT,
                                                   nearIR, NL-DFT gradient (VV10), updates on ESD,
                                                   ML-optimized integration grids
   S Lehtola, MJT Oliveira, MAL Marques          : LibXC Library
   Liviu Ungur et al                             : ANISO software


 Your calculation uses the libint2 library for the computation of 2-el integrals
 For citations please refer to: http://libint.valeyev.net

 Your ORCA version has been built with support for libXC version: 5.1.0
 For citations please refer to: https://tddft.org/programs/libxc/

 This ORCA versions uses:
   CBLAS   interface :  Fast vector & matrix operations
   LAPACKE interface :  Fast linear algebra routines
   SCALAPACK package :  Parallel linear algebra routines
   Shared memory     :  Shared parallel matrices
   BLAS/LAPACK       :  OpenBLAS 0.3.15  USE64BITINT DYNAMIC_ARCH NO_AFFINITY SkylakeX SINGLE_THREADED
        Core in use  :  SkylakeX
   Copyright (c) 2011-2014, The OpenBLAS Project


Your calculation utilizes the geometrical counterpoise correction gCP
Please cite in your paper:
H.Kruse, S. Grimme J.Chem.Phys., 136, (2012), 154101 
   

Your calculation utilizes the atom-pairwise dispersion correction
with the Becke-Johnson damping scheme (D3BJ)
Cite in your paper:
S.Grimme, S.Ehrlich, L.Goerigk, J Comput Chem, (2011), 32, 1456–1465 
S.Grimme, J.Antony, S.Ehrlich and H.Krieg, J.Chem.Phys., 132, (2010), 154104 
   

Your calculation employs the composite approach PBEh-3c.
Please cite in your paper:
S. Grimme, J. G. Brandenburg, C. Bannwarth, A. Hansen J.Chem.Phys., 143, (2015), 054107 
   

================================================================================

cite the ECPs for Pd [Def2-ECP] as follows:
Ce-Yb(ecp-28): M. Dolg, H. Stoll, H.Preuss, J. Chem. Phys., 1989, 90, 1730-1734.
Y-Cd(ecp-28), Hf-Hg(ecp-46): D. Andrae,U. Haeussermann, M. Dolg, H. Stoll, H. Preuss, Theor. Chim. Acta, 1990, 77, 123-141.
In-Sb(ecp-28), Tl-Bi(ecp-46): B. Metz, H. Stoll, M. Dolg, J. Chem. Phys., 2000, 113, 2563-2569.
Te-Xe(ecp-28), Po-Rn(ecp-46): K. A. Peterson, D. Figgen, E. Goll, H. Stoll, M. Dolg, J. Chem. Phys., 2003, 119, 11113-11123.
Rb(ecp-28), Cs(ecp-46): T. Leininger, A. Nicklass, W. Kuechle, H. Stoll, M. Dolg, A. Bergner, Chem. Phys. Lett., 1996, 255, 274-280.
Sr(ecp-28), Ba(ecp-46): M. Kaupp, P. V. Schleyer, H. Stoll and H. Preuss, J. Chem. Phys., 1991, 94, 1360-1366.
La(ecp-46): M. Dolg, H. Stoll, A. Savin, H. Preuss, Theor. Chim. Acta, 1989, 75, 173-194.
Lu(ecp-28): X. Cao, M. Dolg, J. Chem. Phys., 2001, 115, 7348-7355.

ECP parameters for Pd [Def2-ECP] have been obtained from:
TURBOMOLE (7.0.2)

----- Orbital basis set information -----
Your calculation utilizes the basis: def2-mSVP

----- AuxJ basis set information -----
Your calculation utilizes the auxiliary basis: def2/J
   F. Weigend, Phys. Chem. Chem. Phys. 8, 1057 (2006).

================================================================================
                                        WARNINGS
                       Please study these warnings very carefully!
================================================================================


INFO   : the flag for use of the SHARK integral package has been found!

================================================================================
                                       INPUT FILE
================================================================================
NAME = 7_5_orca.inp
|  1> ! EnGrad PBEh-3c
|  2> %output 
|  3> xyzfile=True 
|  4> end 
|  5> %scf 
|  6> maxiter 250 
|  7> end
|  8> %output
|  9> Print[P_Hirshfeld] = 1
| 10> end
| 11> % maxcore
| 12> 4000
| 13> *xyz -1 1
| 14> C   -2.06313268  -0.10400486   0.63972978 
| 15> C   -1.78708180   1.07062077   1.41532696 
| 16> C   -3.42339152  -0.36511110   0.51997654 
| 17> C   -4.47363779   0.52798647   0.89199647 
| 18> C   -4.15408904   1.75041125   1.49430085 
| 19> C   -2.82179080   1.92980732   1.82803824 
| 20> H   -2.13310789  -2.09896636  -1.94381908 
| 21> H   -3.79391094  -1.32339843   0.10779376 
| 22> H   -2.53711155   2.88906942   2.30979679 
| 23> H   -5.52952557   0.34783787   0.63201997 
| 24> H   -4.91379431   2.43936196   1.86343800 
| 25> C   -0.42509989   1.41140934   1.95059061 
| 26> C    0.73131784   0.41344374   2.01688670 
| 27> H   -0.58017129   1.77868567   3.01737417 
| 28> H   -0.10083371   2.31581967   1.40307124 
| 29> C    1.74873002   0.60071844   0.90489286 
| 30> H    0.36499676  -0.64109023   2.00867927 
| 31> H    1.27539851   0.54538984   2.96761782 
| 32> C    1.55073450  -0.02033999  -0.32992791 
| 33> C    2.51544150   0.26157840  -1.33305333 
| 34> C    3.52912471   1.20429510  -1.14541866 
| 35> C    2.79526207   1.50212547   1.12135888 
| 36> C    3.69026702   1.81474244   0.10997443 
| 37> H    2.49120998  -0.28487777  -2.29957100 
| 38> H    4.24062621   1.41221763  -1.92482856 
| 39> H    3.02974784   1.80025787   2.13829924 
| 40> H    4.45029285   2.57230715   0.26179799 
| 41> Pd  -0.14368180  -1.24848365  -0.44769020 
| 42> Br  -1.68066145  -3.49726208  -0.67078681 
| 43> P    1.49119106  -2.96117352  -0.08880814 
| 44> H    1.20071685  -3.60270635   1.14865682 
| 45> C    0.23143833  -1.47446188  -3.87455972 
| 46> O    1.33953184  -1.72881138  -4.13834046 
| 47> O   -0.66715606  -2.26184025  -3.16169415 
| 48> O   -0.32115812  -0.30152446  -4.14969111 
| 49> H    2.90452939  -2.76748744   0.15973069 
| 50> H    1.58570556  -4.15535222  -0.86619137 
| 51> H    0.38484193   0.24922359  -4.53406394 
| 52> *
| 53> 
| 54>                          ****END OF INPUT****
================================================================================

                     *******************************
                     * Energy+Gradient Calculation *
                     *******************************

---------------------------------
CARTESIAN COORDINATES (ANGSTROEM)
---------------------------------
  C     -2.063133   -0.104005    0.639730
  C     -1.787082    1.070621    1.415327
  C     -3.423392   -0.365111    0.519977
  C     -4.473638    0.527986    0.891996
  C     -4.154089    1.750411    1.494301
  C     -2.821791    1.929807    1.828038
  H     -2.133108   -2.098966   -1.943819
  H     -3.793911   -1.323398    0.107794
  H     -2.537112    2.889069    2.309797
  H     -5.529526    0.347838    0.632020
  H     -4.913794    2.439362    1.863438
  C     -0.425100    1.411409    1.950591
  C      0.731318    0.413444    2.016887
  H     -0.580171    1.778686    3.017374
  H     -0.100834    2.315820    1.403071
  C      1.748730    0.600718    0.904893
  H      0.364997   -0.641090    2.008679
  H      1.275399    0.545390    2.967618
  C      1.550734   -0.020340   -0.329928
  C      2.515441    0.261578   -1.333053
  C      3.529125    1.204295   -1.145419
  C      2.795262    1.502125    1.121359
  C      3.690267    1.814742    0.109974
  H      2.491210   -0.284878   -2.299571
  H      4.240626    1.412218   -1.924829
  H      3.029748    1.800258    2.138299
  H      4.450293    2.572307    0.261798
  Pd    -0.143682   -1.248484   -0.447690
  Br    -1.680661   -3.497262   -0.670787
  P      1.491191   -2.961174   -0.088808
  H      1.200717   -3.602706    1.148657
  C      0.231438   -1.474462   -3.874560
  O      1.339532   -1.728811   -4.138340
  O     -0.667156   -2.261840   -3.161694
  O     -0.321158   -0.301524   -4.149691
  H      2.904529   -2.767487    0.159731
  H      1.585706   -4.155352   -0.866191
  H      0.384842    0.249224   -4.534064

----------------------------
CARTESIAN COORDINATES (A.U.)
----------------------------
  NO LB      ZA    FRAG     MASS         X           Y           Z
   0 C     6.0000    0    12.011   -3.898756   -0.196541    1.208914
   1 C     6.0000    0    12.011   -3.377095    2.023180    2.674580
   2 C     6.0000    0    12.011   -6.469272   -0.689960    0.982613
   3 C     6.0000    0    12.011   -8.453950    0.997750    1.685629
   4 C     6.0000    0    12.011   -7.850091    3.307798    2.823819
   5 C     6.0000    0    12.011   -5.332412    3.646807    3.454492
   6 H     1.0000    0     1.008   -4.030990   -3.966472   -3.673286
   7 H     1.0000    0     1.008   -7.169453   -2.500861    0.203701
   8 H     1.0000    0     1.008   -4.794446    5.459550    4.364883
   9 H     1.0000    0     1.008  -10.449289    0.657318    1.194345
  10 H     1.0000    0     1.008   -9.285726    4.609726    3.521387
  11 C     6.0000    0    12.011   -0.803322    2.667177    3.686082
  12 C     6.0000    0    12.011    1.381990    0.781295    3.811364
  13 H     1.0000    0     1.008   -1.096365    3.361229    5.702011
  14 H     1.0000    0     1.008   -0.190548    4.376265    2.651420
  15 C     6.0000    0    12.011    3.304621    1.135193    1.710000
  16 H     1.0000    0     1.008    0.689744   -1.211485    3.795854
  17 H     1.0000    0     1.008    2.410154    1.030637    5.607985
  18 C     6.0000    0    12.011    2.930464   -0.038437   -0.623473
  19 C     6.0000    0    12.011    4.753496    0.494312   -2.519106
  20 C     6.0000    0    12.011    6.669079    2.275788   -2.164528
  21 C     6.0000    0    12.011    5.282280    2.838606    2.119061
  22 C     6.0000    0    12.011    6.973594    3.429366    0.207822
  23 H     1.0000    0     1.008    4.707705   -0.538341   -4.345559
  24 H     1.0000    0     1.008    8.013622    2.668705   -3.637399
  25 H     1.0000    0     1.008    5.725394    3.401994    4.040800
  26 H     1.0000    0     1.008    8.409835    4.860956    0.494727
  27 Pd   18.0000*   0   106.400   -0.271519   -2.359292   -0.846012
  28 Br   35.0000    0    79.900   -3.175990   -6.608868   -1.267603
  29 P    15.0000    0    30.974    2.817943   -5.595807   -0.167823
  30 H     1.0000    0     1.008    2.269026   -6.808128    2.170647
  31 C     6.0000    0    12.011    0.437355   -2.786329   -7.321857
  32 O     8.0000    0    15.999    2.531348   -3.266980   -7.820330
  33 O     8.0000    0    15.999   -1.260742   -4.274259   -5.974736
  34 O     8.0000    0    15.999   -0.606901   -0.569799   -7.841780
  35 H     1.0000    0     1.008    5.488765   -5.229793    0.301847
  36 H     1.0000    0     1.008    2.996549   -7.852478   -1.636864
  37 H     1.0000    0     1.008    0.727246    0.470964   -8.568139
* core charge reduced due to ECP

--------------------------------
INTERNAL COORDINATES (ANGSTROEM)
--------------------------------
 C      0   0   0     0.000000000000     0.00000000     0.00000000
 C      1   0   0     1.434398983765     0.00000000     0.00000000
 C      1   2   0     1.390259478966   112.87184396     0.00000000
 C      3   1   2     1.427949342766   125.43053365    11.05853006
 C      4   3   1     1.399715797064   119.36802930   356.47290922
 C      5   4   3     1.385128945522   115.87301047   352.63918877
 H      1   2   3     3.264887843174   158.80774701   118.41492449
 H      3   1   2     1.107020276040   121.47504219   190.88320875
 H      6   5   4     1.110548221544   117.57814972   180.13856503
 H      4   3   1     1.102243304624   122.74437401   169.90192586
 H      5   4   3     1.089985052001   122.58994514   184.47179730
 C      2   1   3     1.502544091739   123.55942385   166.10100726
 C     12   2   1     1.528931809006   123.57338972   345.18140839
 H     12   2   1     1.138844241133   106.46413366   222.65646167
 H     12   2   1     1.105840884136   105.95688971   112.48998561
 C     13  12   2     1.518792170598   113.23100208   101.77442525
 H     13  12   2     1.116378246583   111.59584650   337.91223701
 H     13  12   2     1.103323711025   109.40762612   220.52468931
 C     16  13  12     1.396315914626   119.84428356   273.70946427
 C     19  16  13     1.419999360112   116.10925057   176.97995474
 C     20  19  16     1.396952109444   122.14554183   353.89711228
 C     16  13  12     1.398077788689   117.87737824    87.71489245
 C     22  16  13     1.386240143755   121.04607156   185.88530273
 H     20  19  16     1.110566485500   120.15132266   172.91676785
 H     21  20  19     1.075614222294   120.87188456   180.91195946
 H     22  16  13     1.085372839194   118.93962737    18.48535846
 H     23  22  16     1.083786854264   120.54349611   175.13386391
 Pd    19  16  13     2.096008445653   115.14650891   357.02269752
 Br     7   1   2     1.944363613654    85.20129318   138.09609655
 P     28  19  16     2.394767669766    81.87991877   260.44280010
 H     30  28  19     1.423818515777   108.25288699   116.83036427
 C     24  20  19     3.000377931701   131.94090443    30.30981573
 O     32  24  20     1.167109752272    59.33400918   192.72381643
 O     32  24  20     1.391263417249   116.22341857   312.25421738
 O     32  24  20     1.325459282495    94.13504586    66.66439206
 H     30  28  19     1.448036975581   126.61161226     3.89943408
 H     30  28  19     1.428047773896   124.17066035   228.15675886
 H     35  32  24     0.974423910637   106.25911072    52.49915238

---------------------------
INTERNAL COORDINATES (A.U.)
---------------------------
 C      0   0   0     0.000000000000     0.00000000     0.00000000
 C      1   0   0     2.710621246091     0.00000000     0.00000000
 C      1   2   0     2.627209670334   112.87184396     0.00000000
 C      3   1   2     2.698433190941   125.43053365    11.05853006
 C      4   3   1     2.645079521775   119.36802930   356.47290922
 C      5   4   3     2.617514367203   115.87301047   352.63918877
 H      1   2   3     6.169743881567   158.80774701   118.41492449
 H      3   1   2     2.091965146414   121.47504219   190.88320875
 H      6   5   4     2.098631997232   117.57814972   180.13856503
 H      4   3   1     2.082937978687   122.74437401   169.90192586
 H      5   4   3     2.059773238350   122.58994514   184.47179730
 C      2   1   3     2.839396837529   123.55942385   166.10100726
 C     12   2   1     2.889262396463   123.57338972   345.18140839
 H     12   2   1     2.152103724935   106.46413366   222.65646167
 H     12   2   1     2.089736418711   105.95688971   112.48998561
 C     13  12   2     2.870101256774   113.23100208   101.77442525
 H     13  12   2     2.109649147909   111.59584650   337.91223701
 H     13  12   2     2.084979650898   109.40762612   220.52468931
 C     16  13  12     2.638654675079   119.84428356   273.70946427
 C     19  16  13     2.683409900956   116.10925057   176.97995474
 C     20  19  16     2.639856909053   122.14554183   353.89711228
 C     16  13  12     2.641984134540   117.87737824    87.71489245
 C     22  16  13     2.619614227545   121.04607156   185.88530273
 H     20  19  16     2.098666511106   120.15132266   172.91676785
 H     21  20  19     2.032616305887   120.87188456   180.91195946
 H     22  16  13     2.051057419272   118.93962737    18.48535846
 H     23  22  16     2.048060342103   120.54349611   175.13386391
 Pd    19  16  13     3.960881936671   115.14650891   357.02269752
 Br     7   1   2     3.674314734567    85.20129318   138.09609655
 P     28  19  16     4.525455050226    81.87991877   260.44280010
 H     30  28  19     2.690627059226   108.25288699   116.83036427
 C     24  20  19     5.669892589175   131.94090443    30.30981573
 O     32  24  20     2.205517800023    59.33400918   192.72381643
 O     32  24  20     2.629106838744   116.22341857   312.25421738
 O     32  24  20     2.504755045579    94.13504586    66.66439206
 H     30  28  19     2.736393315640   126.61161226     3.89943408
 H     30  28  19     2.698619198819   124.17066035   228.15675886
 H     35  32  24     1.841394329448   106.25911072    52.49915238

---------------------
BASIS SET INFORMATION
---------------------
There are 6 groups of distinct atoms

 Group   1 Type C   : 8s4p1d contracted to 4s2p1d pattern {5111/31/1}
 Group   2 Type H   : 4s contracted to 2s pattern {31}
 Group   3 Type Pd  : 7s6p5d1f contracted to 5s3p2d1f pattern {31111/411/41/1}
 Group   4 Type Br  : 14s10p6d contracted to 5s4p3d pattern {63311/5311/411}
 Group   5 Type P   : 10s7p1d contracted to 4s3p1d pattern {5311/511/1}
 Group   6 Type O   : 8s4p1d contracted to 4s2p1d pattern {5111/31/1}

Atom   0C    basis set group =>   1
Atom   1C    basis set group =>   1
Atom   2C    basis set group =>   1
Atom   3C    basis set group =>   1
Atom   4C    basis set group =>   1
Atom   5C    basis set group =>   1
Atom   6H    basis set group =>   2
Atom   7H    basis set group =>   2
Atom   8H    basis set group =>   2
Atom   9H    basis set group =>   2
Atom  10H    basis set group =>   2
Atom  11C    basis set group =>   1
Atom  12C    basis set group =>   1
Atom  13H    basis set group =>   2
Atom  14H    basis set group =>   2
Atom  15C    basis set group =>   1
Atom  16H    basis set group =>   2
Atom  17H    basis set group =>   2
Atom  18C    basis set group =>   1
Atom  19C    basis set group =>   1
Atom  20C    basis set group =>   1
Atom  21C    basis set group =>   1
Atom  22C    basis set group =>   1
Atom  23H    basis set group =>   2
Atom  24H    basis set group =>   2
Atom  25H    basis set group =>   2
Atom  26H    basis set group =>   2
Atom  27Pd   basis set group =>   3
Atom  28Br   basis set group =>   4
Atom  29P    basis set group =>   5
Atom  30H    basis set group =>   2
Atom  31C    basis set group =>   1
Atom  32O    basis set group =>   6
Atom  33O    basis set group =>   6
Atom  34O    basis set group =>   6
Atom  35H    basis set group =>   2
Atom  36H    basis set group =>   2
Atom  37H    basis set group =>   2
---------------------------------
AUXILIARY/J BASIS SET INFORMATION
---------------------------------
There are 6 groups of distinct atoms

 Group   1 Type C   : 12s5p4d2f1g contracted to 6s4p3d1f1g pattern {711111/2111/211/2/1}
 Group   2 Type H   : 5s2p1d contracted to 3s1p1d pattern {311/2/1}
 Group   3 Type Pd  : 11s5p5d3f3g contracted to 8s5p5d2f3g pattern {41111111/11111/11111/21/111}
 Group   4 Type Br  : 19s5p5d3f1g contracted to 8s4p3d2f1g pattern {121111111/2111/311/21/1}
 Group   5 Type P   : 14s5p5d2f1g contracted to 8s4p3d1f1g pattern {71111111/2111/311/2/1}
 Group   6 Type O   : 12s5p4d2f1g contracted to 6s4p3d1f1g pattern {711111/2111/211/2/1}

Atom   0C    basis set group =>   1
Atom   1C    basis set group =>   1
Atom   2C    basis set group =>   1
Atom   3C    basis set group =>   1
Atom   4C    basis set group =>   1
Atom   5C    basis set group =>   1
Atom   6H    basis set group =>   2
Atom   7H    basis set group =>   2
Atom   8H    basis set group =>   2
Atom   9H    basis set group =>   2
Atom  10H    basis set group =>   2
Atom  11C    basis set group =>   1
Atom  12C    basis set group =>   1
Atom  13H    basis set group =>   2
Atom  14H    basis set group =>   2
Atom  15C    basis set group =>   1
Atom  16H    basis set group =>   2
Atom  17H    basis set group =>   2
Atom  18C    basis set group =>   1
Atom  19C    basis set group =>   1
Atom  20C    basis set group =>   1
Atom  21C    basis set group =>   1
Atom  22C    basis set group =>   1
Atom  23H    basis set group =>   2
Atom  24H    basis set group =>   2
Atom  25H    basis set group =>   2
Atom  26H    basis set group =>   2
Atom  27Pd   basis set group =>   3
Atom  28Br   basis set group =>   4
Atom  29P    basis set group =>   5
Atom  30H    basis set group =>   2
Atom  31C    basis set group =>   1
Atom  32O    basis set group =>   6
Atom  33O    basis set group =>   6
Atom  34O    basis set group =>   6
Atom  35H    basis set group =>   2
Atom  36H    basis set group =>   2
Atom  37H    basis set group =>   2
-------------------------
ECP PARAMETER INFORMATION
-------------------------

 Group 1, Type Pd ECP Def2-ECP (replacing 28 core electrons, lmax=3)

Atom  27Pd   ECP group =>   1

------------------------------------------------------------------------------
                           ORCA GTO INTEGRAL CALCULATION
                           -- RI-GTO INTEGRALS CHOSEN --
------------------------------------------------------------------------------
------------------------------------------------------------------------------
                   ___                                                        
                  /   \      - P O W E R E D   B Y -                         
                 /     \                                                     
                 |  |  |   _    _      __       _____    __    __             
                 |  |  |  | |  | |    /  \     |  _  \  |  |  /  |          
                  \  \/   | |  | |   /    \    | | | |  |  | /  /          
                 / \  \   | |__| |  /  /\  \   | |_| |  |  |/  /          
                |  |  |   |  __  | /  /__\  \  |    /   |      \           
                |  |  |   | |  | | |   __   |  |    \   |  |\   \          
                \     /   | |  | | |  |  |  |  | |\  \  |  | \   \       
                 \___/    |_|  |_| |__|  |__|  |_| \__\ |__|  \__/        
                                                                              
                      - O R C A' S   B I G   F R I E N D -                    
                                      &                                       
                       - I N T E G R A L  F E E D E R -                       
                                                                              
 v1 FN, 2020, v2 2021                                                         
------------------------------------------------------------------------------


Reading SHARK input file 7_5_orca.SHARKINP.tmp ... ok
----------------------
SHARK INTEGRAL PACKAGE
----------------------

Number of atoms                             ...     38
Number of basis functions                   ...    385
Number of shells                            ...    191
Maximum angular momentum                    ...      3
Integral batch strategy                     ... SHARK/LIBINT Hybrid
RI-J (if used) integral strategy            ... SPLIT-RIJ (Revised 2003 algorithm where possible)
Printlevel                                  ...      1
Contraction scheme used                     ... SEGMENTED contraction
Coulomb Range Separation                    ... NOT USED
Exchange Range Separation                   ... NOT USED
Finite Nucleus Model                        ... NOT USED
Auxiliary Coulomb fitting basis             ... AVAILABLE
   # of basis functions in Aux-J            ...   1267
   # of shells in Aux-J                     ...    413
   Maximum angular momentum in Aux-J        ...      4
Auxiliary J/K fitting basis                 ... NOT available
Auxiliary Correlation fitting basis         ... NOT available
Auxiliary 'external' fitting basis          ... NOT available
Integral threshold                          ...     2.500000e-11
Primitive cut-off                           ...     2.500000e-12
Primitive pair pre-selection threshold      ...     2.500000e-12

Calculating pre-screening integrals         ... done (  0.1 sec) Dimension = 191
Organizing shell pair data                  ... done (  0.1 sec)
Shell pair information
Total number of shell pairs                 ...     18336
Shell pairs after pre-screening             ...     12265
Total number of primitive shell pairs       ...     68628
Primitive shell pairs kept                  ...     28098
          la=0 lb=0:   4333 shell pairs
          la=1 lb=0:   4114 shell pairs
          la=1 lb=1:    937 shell pairs
          la=2 lb=0:   1715 shell pairs
          la=2 lb=1:    843 shell pairs
          la=2 lb=2:    182 shell pairs
          la=3 lb=0:     77 shell pairs
          la=3 lb=1:     44 shell pairs
          la=3 lb=2:     19 shell pairs
          la=3 lb=3:      1 shell pairs

Calculating one electron integrals          ... done (  0.1 sec)
Calculating ECP integrals                   ... done (  0.5 sec)
Calculating RI/J V-Matrix + Cholesky decomp.... done (  0.1 sec)
Calculating Nuclear repulsion               ... done (  0.0 sec) ENN=   2520.994565307075 Eh

SHARK setup successfully completed in   1.2 seconds

Maximum memory used throughout the entire GTOINT-calculation: 95.2 MB
-------------------------------------------------------------------------------
                                 ORCA SCF
-------------------------------------------------------------------------------

------------
SCF SETTINGS
------------
Hamiltonian:
 Density Functional     Method          .... DFT(GTOs)
 Exchange Functional    Exchange        .... PBE
   PBE kappa parameter   XKappa         ....  1.024500
   PBE mue parameter    XMuePBE         ....  0.123457
 Correlation Functional Correlation     .... PBE
   PBE beta parameter  CBetaPBE         ....  0.030000
 LDA part of GGA corr.  LDAOpt          .... PW91-LDA
 Gradients option       PostSCFGGA      .... off
 Hybrid DFT is turned on
   Fraction HF Exchange ScalHFX         ....  0.420000
   Scaling of DF-GGA-X  ScalDFX         ....  0.580000
   Scaling of DF-GGA-C  ScalDFC         ....  1.000000
   Scaling of DF-LDA-C  ScalLDAC        ....  1.000000
   Perturbative correction              ....  0.000000
   Density functional embedding theory  .... OFF
 RI-approximation to the Coulomb term is turned on
   Number of AuxJ basis functions       .... 1267
   RIJ-ON(X) (HFX calculated with O(N)) .... on
   Number of AuxJ basis functions       .... 1267
   RIJ-COSX (HFX calculated with COS-X)).... on


General Settings:
 Integral files         IntName         .... 7_5_orca
 Hartree-Fock type      HFTyp           .... RHF
 Total Charge           Charge          ....   -1
 Multiplicity           Mult            ....    1
 Number of Electrons    NEL             ....  200
 Basis Dimension        Dim             ....  385
 Nuclear Repulsion      ENuc            ....   2520.9945653071 Eh

Convergence Acceleration:
 DIIS                   CNVDIIS         .... on
   Start iteration      DIISMaxIt       ....    12
   Startup error        DIISStart       ....  0.200000
   # of expansion vecs  DIISMaxEq       ....     5
   Bias factor          DIISBfac        ....   1.050
   Max. coefficient     DIISMaxC        ....  10.000
 Trust-Rad. Augm. Hess. CNVTRAH         .... auto
   Auto Start mean grad. ratio tolernc. ....  1.125000
   Auto Start start iteration           ....    20
   Auto Start num. interpolation iter.  ....    10
   Max. Number of Micro iterations      ....    16
   Max. Number of Macro iterations      .... Maxiter - #DIIS iter
   Number of Davidson start vectors     ....     2
   Converg. threshold I  (grad. norm)   ....   1.000e-05
   Converg. threshold II (energy diff.) ....   1.000e-08
   Grad. Scal. Fac. for Micro threshold ....   0.100
   Minimum threshold for Micro iter.    ....   0.010
   NR start threshold (gradient norm)   ....   0.001
   Initial trust radius                 ....   0.400
   Minimum AH scaling param. (alpha)    ....   1.000
   Maximum AH scaling param. (alpha)    .... 1000.000
   Orbital update algorithm             .... Taylor
   White noise on init. David. guess    .... on
   Maximum white noise                  ....   0.010
   Quad. conv. algorithm                .... NR
   COSX micro iterations for RIJONX calc.... off
 SOSCF                  CNVSOSCF        .... off
 Level Shifting         CNVShift        .... on
   Level shift para.    LevelShift      ....    0.2500
   Turn off err/grad.   ShiftErr        ....    0.0010
 Zerner damping         CNVZerner       .... off
 Static damping         CNVDamp         .... on
   Fraction old density DampFac         ....    0.7000
   Max. Damping (<1)    DampMax         ....    0.9800
   Min. Damping (>=0)   DampMin         ....    0.0000
   Turn off err/grad.   DampErr         ....    0.1000
 Fernandez-Rico         CNVRico         .... off

SCF Procedure:
 Maximum # iterations   MaxIter         ....   250
 SCF integral mode      SCFMode         .... Direct
   Integral package                     .... SHARK and LIBINT hybrid scheme
 Reset frequency        DirectResetFreq ....    20
 Integral Threshold     Thresh          ....  2.500e-11 Eh
 Primitive CutOff       TCut            ....  2.500e-12 Eh

Convergence Tolerance:
 Convergence Check Mode ConvCheckMode   .... Total+1el-Energy
 Convergence forced     ConvForced      .... 0
 Energy Change          TolE            ....  1.000e-08 Eh
 1-El. energy change                    ....  1.000e-05 Eh
 DIIS Error             TolErr          ....  5.000e-07


Diagonalization of the overlap matrix:
Smallest eigenvalue                        ... 5.161e-04
Time for diagonalization                   ...    0.024 sec
Threshold for overlap eigenvalues          ... 1.000e-08
Number of eigenvalues below threshold      ... 0
Time for construction of square roots      ...    0.008 sec
Total time needed                          ...    0.033 sec

--------------------------------
INITIAL GUESS: MINIMAL BASIS EHT
--------------------------------
The minimal basis has 147 functions
EHT matrix was diagonalized
Basis set overlap was calculated now projecting the orbitals
Using GuessMode=FMatrix for the initial guess
C*T matrix was formed
Effective Fockian was calculated
Effective Fockian was diagonalized
Initial density was built
                      ------------------
                      INITIAL GUESS DONE
                      ------------------
-------------------
DFT GRID GENERATION
-------------------

General Integration Accuracy     IntAcc      ... 4.159
Radial Grid Type                 RadialGrid  ... OptM3 with GC (2021)
Angular Grid (max. ang.)         AngularGrid ... 3 (Lebedev-194)
Angular grid pruning method      GridPruning ... 4 (adaptive)
Weight generation scheme         WeightScheme... Becke
Basis function cutoff            BFCut       ... 1.0000e-11
Integration weight cutoff        WCut        ... 1.0000e-14
Angular grids for H and He will be reduced by one unit
Partially contracted basis set               ... off
Rotationally invariant grid construction     ... off

Total number of grid points                  ...    96788
Total number of batches                      ...     1533
Average number of points per batch           ...       63
Average number of grid points per atom       ...     2547
Time for grid setup =    2.022 sec

--------------------
COSX GRID GENERATION
--------------------

GRIDX 1
-------
General Integration Accuracy     IntAcc      ... 3.816
Radial Grid Type                 RadialGrid  ... OptM3 with GC (2021)
Angular Grid (max. ang.)         AngularGrid ... 1 (Lebedev-50)
Angular grid pruning method      GridPruning ... 4 (adaptive)
Weight generation scheme         WeightScheme... Becke
Basis function cutoff            BFCut       ... 1.0000e-11
Integration weight cutoff        WCut        ... 1.0000e-14
Angular grids for H and He will be reduced by one unit
Partially contracted basis set               ... on
Rotationally invariant grid construction     ... off

Total number of grid points                  ...    23645
Total number of batches                      ...      389
Average number of points per batch           ...       60
Average number of grid points per atom       ...      622
UseSFitting                                  ... on

GRIDX 2
-------
General Integration Accuracy     IntAcc      ... 4.020
Radial Grid Type                 RadialGrid  ... OptM3 with GC (2021)
Angular Grid (max. ang.)         AngularGrid ... 2 (Lebedev-110)
Angular grid pruning method      GridPruning ... 4 (adaptive)
Weight generation scheme         WeightScheme... Becke
Basis function cutoff            BFCut       ... 1.0000e-11
Integration weight cutoff        WCut        ... 1.0000e-14
Angular grids for H and He will be reduced by one unit
Partially contracted basis set               ... on
Rotationally invariant grid construction     ... off

Total number of grid points                  ...    51254
Total number of batches                      ...      820
Average number of points per batch           ...       62
Average number of grid points per atom       ...     1349
UseSFitting                                  ... on

GRIDX 3
-------
General Integration Accuracy     IntAcc      ... 4.338
Radial Grid Type                 RadialGrid  ... OptM3 with GC (2021)
Angular Grid (max. ang.)         AngularGrid ... 3 (Lebedev-194)
Angular grid pruning method      GridPruning ... 4 (adaptive)
Weight generation scheme         WeightScheme... Becke
Basis function cutoff            BFCut       ... 1.0000e-11
Integration weight cutoff        WCut        ... 1.0000e-14
Angular grids for H and He will be reduced by one unit
Partially contracted basis set               ... on
Rotationally invariant grid construction     ... off

Total number of grid points                  ...   111906
Total number of batches                      ...     1765
Average number of points per batch           ...       63
Average number of grid points per atom       ...     2945
UseSFitting                                  ... on

Time for X-Grid setup             =    5.256 sec

--------------
SCF ITERATIONS
--------------
ITER       Energy         Delta-E        Max-DP      RMS-DP      [F,P]     Damp
               ***  Starting incremental Fock matrix formation  ***
  0  -3824.6780604545   0.000000000000 6.15969114  0.05645116  5.0926126 0.7000
  1  -3813.2184508925  11.459609561955 6.89423790  0.06425107  3.9276605 0.7000
  2  -3815.5005324927  -2.282081600193 2.13336509  0.02923908  2.6133629 0.7000
  3  -3820.1329780149  -4.632445522198 3.93786669  0.03253734  1.9192879 0.7000
  4  -3816.6821865630   3.450791451887 2.94250250  0.02945601  1.2477781 0.7000
  5  -3817.8906584802  -1.208471917187 3.50061596  0.03741788  0.9695449 0.7000
  6  -3809.1726183367   8.718040143540 2.72451174  0.03224162  0.6117481 0.7000
  7  -3815.3017323244  -6.129113987688 3.18234309  0.02866414  0.5098733 0.7000
  8  -3814.6952975408   0.606434783549 2.88339261  0.03024262  0.3623173 0.7000
  9  -3814.4147117859   0.280585754875 3.33547505  0.04121432  0.2779744 0.7000
 10  -3803.2949409922  11.119770793737 2.97370865  0.03351361  0.3028073 0.7000
 11  -3812.9637143396  -9.668773347416 2.42788731  0.02841584  0.2546191 0.7000
                               ***Turning on DIIS***
 12  -3813.9495382274  -0.985823887730 2.59720040  0.02964625  0.2699764 0.7000
 13  -3813.2922865249   0.657251702489 1.80153091  0.02120565  0.2237756 0.7000
 14  -3823.2732901426  -9.981003617716 1.26090911  0.01493330  0.2879536 0.7000
 15  -3830.4952374604  -7.221947317775 0.87933412  0.01049909  0.3221596 0.7000
 16  -3835.7177112088  -5.222473748402 0.61354364  0.00741092  0.3310060 0.7000
 17  -3839.3861983372  -3.668487128407 0.42496303  0.00562606  0.3076489 0.7000
 18  -3841.8153691810  -2.429170843863 0.29628839  0.00387863  0.1176068 0.7000
 19  -3843.3740774558  -1.558708274799 0.71788474  0.00931944  0.0667637 0.0000
               *** Restarting incremental Fock matrix formation ***
                                   *** Resetting DIIS ***
 20  -3847.3757576026  -4.001680146755 0.14035534  0.00294934  0.0805477 0.0000
 21  -3847.4956605606  -0.119902958033 0.03409408  0.00102056  0.0728886 0.0000
 22  -3847.5500572624  -0.054396701805 0.01857230  0.00051848  0.0127600 0.0000
 23  -3847.5565936445  -0.006536382110 0.00872965  0.00021577  0.0088658 0.0000
 24  -3847.5583039616  -0.001710317094 0.00815443  0.00011682  0.0054052 0.0000
 25  -3847.5588871933  -0.000583231632 0.00323765  0.00007579  0.0017931 0.0000
 26  -3847.5591120969  -0.000224903638 0.00278925  0.00005374  0.0013174 0.0000
 27  -3847.5592159683  -0.000103871440 0.00412647  0.00007878  0.0009095 0.0000
               *** Restarting incremental Fock matrix formation ***
                                   *** Resetting DIIS ***
 28  -3847.5610367368  -0.001820768464 0.00595439  0.00008756  0.0010844 0.0000
 29  -3847.5610649593  -0.000028222534 0.00238936  0.00002999  0.0006323 0.0000
 30  -3847.5610698666  -0.000004907230 0.00129547  0.00001063  0.0006377 0.0000
 31  -3847.5610723070  -0.000002440454 0.00068203  0.00000476  0.0003445 0.0000
 32  -3847.5610727578  -0.000000450807 0.00032685  0.00000294  0.0001508 0.0000
 33  -3847.5610729708  -0.000000212983 0.00015793  0.00000107  0.0000497 0.0000
 34  -3847.5610730012  -0.000000030372 0.00013890  0.00000081  0.0000317 0.0000
 35  -3847.5610730226  -0.000000021410 0.00008550  0.00000045  0.0000187 0.0000
 36  -3847.5610730222   0.000000000389 0.00005704  0.00000031  0.0000097 0.0000
 37  -3847.5610730338  -0.000000011606 0.00002365  0.00000015  0.0000045 0.0000
 38  -3847.5610730453  -0.000000011485 0.00001460  0.00000009  0.0000063 0.0000
 39  -3847.5610730527  -0.000000007412 0.00000557  0.00000005  0.0000031 0.0000
                 **** Energy Check signals convergence ****

               *****************************************************
               *                     SUCCESS                       *
               *           SCF CONVERGED AFTER  40 CYCLES          *
               *****************************************************

Old exchange energy                            =    -97.607524846 Eh
New exchange energy                            =    -97.607729076 Eh
Exchange energy change after final integration =     -0.000204229 Eh
Total energy after final integration           =  -3847.561277276 Eh
Final COS-X integration done in                =    68.377 sec

----------------
TOTAL SCF ENERGY
----------------

Total Energy       :        -3847.56127728 Eh         -104697.46507 eV

Components:
Nuclear Repulsion  :         2520.99456531 Eh           68599.74967 eV
Electronic Energy  :        -6368.55584258 Eh         -173297.21474 eV
One Electron Energy:       -10425.85950989 Eh         -283702.06040 eV
Two Electron Energy:         4057.30366731 Eh          110404.84566 eV
Max COSX asymmetry :            0.00002339 Eh               0.00064 eV

Virial components:
Potential Energy   :        -7605.76063200 Eh         -206963.26861 eV
Kinetic Energy     :         3758.19935472 Eh          102265.80353 eV
Virial Ratio       :            2.02377786


DFT components:
N(Alpha)           :       99.999845448591 electrons
N(Beta)            :       99.999845448591 electrons
N(Total)           :      199.999690897181 electrons
E(X)               :     -130.681936223042 Eh       
E(C)               :       -9.693006056438 Eh       
E(XC)              :     -140.374942279480 Eh       
DFET-embed. en.    :        0.000000000000 Eh       

---------------
SCF CONVERGENCE
---------------

  Last Energy change         ...    6.1418e-09  Tolerance :   1.0000e-08
  Last MAX-Density change    ...    0.0000e+00  Tolerance :   1.0000e-07
  Last RMS-Density change    ...    0.0000e+00  Tolerance :   5.0000e-09
  Last DIIS Error            ...    7.7622e-07  Tolerance :   5.0000e-07

             **** THE GBW FILE WAS UPDATED (7_5_orca.gbw) ****
             **** DENSITY 7_5_orca.scfp WAS UPDATED ****
             **** ENERGY FILE WAS UPDATED (7_5_orca.en.tmp) ****
             **** THE GBW FILE WAS UPDATED (7_5_orca.gbw) ****
             **** DENSITY 7_5_orca.scfp WAS UPDATED ****
----------------
ORBITAL ENERGIES
----------------

  NO   OCC          E(Eh)            E(eV) 
   0   2.0000    -484.400664    -13181.2122 
   1   2.0000     -77.679834     -2113.7758 
   2   2.0000     -63.061552     -1715.9921 
   3   2.0000     -56.765511     -1544.6681 
   4   2.0000     -56.764285     -1544.6347 
   5   2.0000     -56.763663     -1544.6178 
   6   2.0000     -19.389233      -527.6079 
   7   2.0000     -19.323846      -525.8286 
   8   2.0000     -19.305974      -525.3423 
   9   2.0000     -10.444903      -284.2203 
  10   2.0000     -10.352463      -281.7048 
  11   2.0000     -10.345334      -281.5108 
  12   2.0000     -10.344191      -281.4797 
  13   2.0000     -10.342215      -281.4260 
  14   2.0000     -10.341696      -281.4119 
  15   2.0000     -10.340998      -281.3929 
  16   2.0000     -10.332026      -281.1487 
  17   2.0000     -10.328667      -281.0573 
  18   2.0000     -10.325192      -280.9628 
  19   2.0000     -10.323591      -280.9192 
  20   2.0000     -10.322401      -280.8868 
  21   2.0000     -10.318209      -280.7727 
  22   2.0000     -10.315142      -280.6893 
  23   2.0000     -10.307551      -280.4827 
  24   2.0000      -8.888571      -241.8703 
  25   2.0000      -6.752799      -183.7530 
  26   2.0000      -6.659739      -181.2207 
  27   2.0000      -6.653858      -181.0607 
  28   2.0000      -6.650254      -180.9626 
  29   2.0000      -4.843816      -131.8069 
  30   2.0000      -4.843661      -131.8027 
  31   2.0000      -4.841859      -131.7537 
  32   2.0000      -3.516730       -95.6951 
  33   2.0000      -2.673903       -72.7606 
  34   2.0000      -2.672860       -72.7322 
  35   2.0000      -2.669797       -72.6489 
  36   2.0000      -2.664722       -72.5108 
  37   2.0000      -2.664395       -72.5019 
  38   2.0000      -2.165452       -58.9250 
  39   2.0000      -2.154706       -58.6325 
  40   2.0000      -2.132754       -58.0352 
  41   2.0000      -1.091894       -29.7120 
  42   2.0000      -0.986656       -26.8483 
  43   2.0000      -0.875255       -23.8169 
  44   2.0000      -0.845804       -23.0155 
  45   2.0000      -0.816987       -22.2314 
  46   2.0000      -0.770774       -20.9738 
  47   2.0000      -0.724693       -19.7199 
  48   2.0000      -0.720142       -19.5961 
  49   2.0000      -0.706355       -19.2209 
  50   2.0000      -0.691663       -18.8211 
  51   2.0000      -0.669913       -18.2293 
  52   2.0000      -0.640941       -17.4409 
  53   2.0000      -0.599089       -16.3020 
  54   2.0000      -0.567048       -15.4302 
  55   2.0000      -0.541656       -14.7392 
  56   2.0000      -0.537756       -14.6331 
  57   2.0000      -0.531035       -14.4502 
  58   2.0000      -0.508309       -13.8318 
  59   2.0000      -0.460792       -12.5388 
  60   2.0000      -0.437795       -11.9130 
  61   2.0000      -0.417270       -11.3545 
  62   2.0000      -0.408950       -11.1281 
  63   2.0000      -0.405762       -11.0414 
  64   2.0000      -0.392816       -10.6891 
  65   2.0000      -0.384979       -10.4758 
  66   2.0000      -0.381338       -10.3767 
  67   2.0000      -0.376243       -10.2381 
  68   2.0000      -0.368276       -10.0213 
  69   2.0000      -0.366756        -9.9799 
  70   2.0000      -0.361782        -9.8446 
  71   2.0000      -0.352575        -9.5940 
  72   2.0000      -0.340668        -9.2700 
  73   2.0000      -0.332578        -9.0499 
  74   2.0000      -0.326247        -8.8776 
  75   2.0000      -0.322018        -8.7626 
  76   2.0000      -0.319552        -8.6954 
  77   2.0000      -0.305213        -8.3053 
  78   2.0000      -0.296177        -8.0594 
  79   2.0000      -0.288085        -7.8392 
  80   2.0000      -0.279364        -7.6019 
  81   2.0000      -0.273449        -7.4409 
  82   2.0000      -0.263185        -7.1616 
  83   2.0000      -0.261038        -7.1032 
  84   2.0000      -0.249305        -6.7839 
  85   2.0000      -0.245592        -6.6829 
  86   2.0000      -0.238048        -6.4776 
  87   2.0000      -0.222423        -6.0524 
  88   2.0000      -0.212745        -5.7891 
  89   2.0000      -0.205887        -5.6025 
  90   2.0000      -0.200772        -5.4633 
  91   2.0000      -0.189061        -5.1446 
  92   2.0000      -0.180385        -4.9085 
  93   2.0000      -0.178756        -4.8642 
  94   2.0000      -0.171412        -4.6643 
  95   2.0000      -0.156555        -4.2601 
  96   2.0000      -0.151650        -4.1266 
  97   2.0000      -0.147838        -4.0229 
  98   2.0000      -0.140241        -3.8162 
  99   2.0000      -0.113672        -3.0932 
 100   0.0000       0.056508         1.5377 
 101   0.0000       0.064771         1.7625 
 102   0.0000       0.116606         3.1730 
 103   0.0000       0.125722         3.4211 
 104   0.0000       0.144113         3.9215 
 105   0.0000       0.149215         4.0603 
 106   0.0000       0.156479         4.2580 
 107   0.0000       0.159754         4.3471 
 108   0.0000       0.169659         4.6166 
 109   0.0000       0.200845         5.4653 
 110   0.0000       0.218038         5.9331 
 111   0.0000       0.226187         6.1549 
 112   0.0000       0.240350         6.5402 
 113   0.0000       0.257520         7.0075 
 114   0.0000       0.261507         7.1160 
 115   0.0000       0.265226         7.2172 
 116   0.0000       0.276203         7.5159 
 117   0.0000       0.281693         7.6653 
 118   0.0000       0.298363         8.1189 
 119   0.0000       0.301904         8.2152 
 120   0.0000       0.306627         8.3437 
 121   0.0000       0.314275         8.5518 
 122   0.0000       0.322656         8.7799 
 123   0.0000       0.325048         8.8450 
 124   0.0000       0.334400         9.0995 
 125   0.0000       0.340575         9.2675 
 126   0.0000       0.348807         9.4915 
 127   0.0000       0.357116         9.7176 
 128   0.0000       0.368544        10.0286 
 129   0.0000       0.373169        10.1544 
 130   0.0000       0.388020        10.5586 
 131   0.0000       0.393613        10.7107 
 132   0.0000       0.404573        11.0090 
 133   0.0000       0.410878        11.1806 
 134   0.0000       0.420485        11.4420 
 135   0.0000       0.436744        11.8844 
 136   0.0000       0.443548        12.0696 
 137   0.0000       0.449301        12.2261 
 138   0.0000       0.460251        12.5241 
 139   0.0000       0.474593        12.9143 
 140   0.0000       0.485683        13.2161 
 141   0.0000       0.488038        13.2802 
 142   0.0000       0.490998        13.3607 
 143   0.0000       0.503086        13.6897 
 144   0.0000       0.526676        14.3316 
 145   0.0000       0.544830        14.8256 
 146   0.0000       0.559420        15.2226 
 147   0.0000       0.568377        15.4663 
 148   0.0000       0.572604        15.5813 
 149   0.0000       0.587578        15.9888 
 150   0.0000       0.591487        16.0952 
 151   0.0000       0.594513        16.1775 
 152   0.0000       0.612386        16.6639 
 153   0.0000       0.622126        16.9289 
 154   0.0000       0.629283        17.1237 
 155   0.0000       0.633272        17.2322 
 156   0.0000       0.640935        17.4407 
 157   0.0000       0.645955        17.5773 
 158   0.0000       0.654804        17.8181 
 159   0.0000       0.664945        18.0941 
 160   0.0000       0.670600        18.2480 
 161   0.0000       0.674273        18.3479 
 162   0.0000       0.686240        18.6735 
 163   0.0000       0.696637        18.9565 
 164   0.0000       0.699528        19.0351 
 165   0.0000       0.707392        19.2491 
 166   0.0000       0.709391        19.3035 
 167   0.0000       0.711801        19.3691 
 168   0.0000       0.714897        19.4533 
 169   0.0000       0.718465        19.5504 
 170   0.0000       0.724373        19.7112 
 171   0.0000       0.733879        19.9699 
 172   0.0000       0.734976        19.9997 
 173   0.0000       0.741843        20.1866 
 174   0.0000       0.743528        20.2324 
 175   0.0000       0.751361        20.4456 
 176   0.0000       0.753780        20.5114 
 177   0.0000       0.759804        20.6753 
 178   0.0000       0.765546        20.8316 
 179   0.0000       0.770004        20.9529 
 180   0.0000       0.776430        21.1277 
 181   0.0000       0.784908        21.3584 
 182   0.0000       0.792622        21.5683 
 183   0.0000       0.806715        21.9518 
 184   0.0000       0.808465        21.9995 
 185   0.0000       0.816691        22.2233 
 186   0.0000       0.819302        22.2943 
 187   0.0000       0.828081        22.5332 
 188   0.0000       0.833785        22.6884 
 189   0.0000       0.842036        22.9130 
 190   0.0000       0.852847        23.2071 
 191   0.0000       0.860612        23.4184 
 192   0.0000       0.874800        23.8045 
 193   0.0000       0.880570        23.9615 
 194   0.0000       0.897124        24.4120 
 195   0.0000       0.902789        24.5661 
 196   0.0000       0.915710        24.9177 
 197   0.0000       0.918976        25.0066 
 198   0.0000       0.926683        25.2163 
 199   0.0000       0.929258        25.2864 
 200   0.0000       0.947328        25.7781 
 201   0.0000       0.956986        26.0409 
 202   0.0000       0.979203        26.6455 
 203   0.0000       0.991878        26.9904 
 204   0.0000       0.999691        27.2030 
 205   0.0000       1.022804        27.8319 
 206   0.0000       1.026750        27.9393 
 207   0.0000       1.038129        28.2489 
 208   0.0000       1.043201        28.3870 
 209   0.0000       1.054051        28.6822 
 210   0.0000       1.055498        28.7216 
 211   0.0000       1.069402        29.0999 
 212   0.0000       1.074306        29.2333 
 213   0.0000       1.086623        29.5685 
 214   0.0000       1.091876        29.7115 
 215   0.0000       1.100169        29.9371 
 216   0.0000       1.106337        30.1050 
 217   0.0000       1.113081        30.2885 
 218   0.0000       1.119376        30.4598 
 219   0.0000       1.134650        30.8754 
 220   0.0000       1.139599        31.0101 
 221   0.0000       1.148359        31.2484 
 222   0.0000       1.157476        31.4965 
 223   0.0000       1.163100        31.6496 
 224   0.0000       1.168693        31.8018 
 225   0.0000       1.177929        32.0531 
 226   0.0000       1.182757        32.1845 
 227   0.0000       1.187624        32.3169 
 228   0.0000       1.200973        32.6801 
 229   0.0000       1.205850        32.8129 
 230   0.0000       1.219521        33.1849 
 231   0.0000       1.221125        33.2285 
 232   0.0000       1.232720        33.5440 
 233   0.0000       1.236460        33.6458 
 234   0.0000       1.237973        33.6870 
 235   0.0000       1.241065        33.7711 
 236   0.0000       1.252168        34.0732 
 237   0.0000       1.279134        34.8070 
 238   0.0000       1.287908        35.0458 
 239   0.0000       1.306059        35.5397 
 240   0.0000       1.309791        35.6412 
 241   0.0000       1.319564        35.9072 
 242   0.0000       1.334373        36.3101 
 243   0.0000       1.334947        36.3257 
 244   0.0000       1.355009        36.8717 
 245   0.0000       1.363525        37.1034 
 246   0.0000       1.385013        37.6881 
 247   0.0000       1.390944        37.8495 
 248   0.0000       1.397217        38.0202 
 249   0.0000       1.402910        38.1751 
 250   0.0000       1.436497        39.0891 
 251   0.0000       1.452356        39.5206 
 252   0.0000       1.467514        39.9331 
 253   0.0000       1.470737        40.0208 
 254   0.0000       1.475151        40.1409 
 255   0.0000       1.500523        40.8313 
 256   0.0000       1.510295        41.0972 
 257   0.0000       1.527559        41.5670 
 258   0.0000       1.553754        42.2798 
 259   0.0000       1.588971        43.2381 
 260   0.0000       1.598289        43.4917 
 261   0.0000       1.607306        43.7370 
 262   0.0000       1.632527        44.4233 
 263   0.0000       1.657085        45.0916 
 264   0.0000       1.677134        45.6371 
 265   0.0000       1.689572        45.9756 
 266   0.0000       1.696199        46.1559 
 267   0.0000       1.699175        46.2369 
 268   0.0000       1.727399        47.0049 
 269   0.0000       1.735946        47.2375 
 270   0.0000       1.751695        47.6660 
 271   0.0000       1.782434        48.5025 
 272   0.0000       1.802664        49.0530 
 273   0.0000       1.806251        49.1506 
 274   0.0000       1.815460        49.4012 
 275   0.0000       1.920221        52.2519 
 276   0.0000       1.931268        52.5525 
 277   0.0000       1.940510        52.8040 
 278   0.0000       1.948921        53.0328 
 279   0.0000       1.964966        53.4694 
 280   0.0000       1.982173        53.9377 
 281   0.0000       1.998595        54.3845 
 282   0.0000       2.017308        54.8937 
 283   0.0000       2.023063        55.0503 
 284   0.0000       2.033338        55.3299 
 285   0.0000       2.057217        55.9797 
 286   0.0000       2.070688        56.3463 
 287   0.0000       2.074201        56.4419 
 288   0.0000       2.074724        56.4561 
 289   0.0000       2.089001        56.8446 
 290   0.0000       2.111610        57.4598 
 291   0.0000       2.121206        57.7209 
 292   0.0000       2.130382        57.9706 
 293   0.0000       2.144800        58.3630 
 294   0.0000       2.150748        58.5248 
 295   0.0000       2.173639        59.1477 
 296   0.0000       2.184569        59.4452 
 297   0.0000       2.199152        59.8420 
 298   0.0000       2.214592        60.2621 
 299   0.0000       2.230006        60.6815 
 300   0.0000       2.237693        60.8907 
 301   0.0000       2.260120        61.5010 
 302   0.0000       2.276346        61.9425 
 303   0.0000       2.288686        62.2783 
 304   0.0000       2.304347        62.7045 
 305   0.0000       2.315502        63.0080 
 306   0.0000       2.324311        63.2477 
 307   0.0000       2.334430        63.5231 
 308   0.0000       2.349506        63.9333 
 309   0.0000       2.361615        64.2628 
 310   0.0000       2.373592        64.5887 
 311   0.0000       2.396614        65.2152 
 312   0.0000       2.400799        65.3291 
 313   0.0000       2.414163        65.6927 
 314   0.0000       2.416642        65.7602 
 315   0.0000       2.450547        66.6828 
 316   0.0000       2.477659        67.4205 
 317   0.0000       2.483454        67.5782 
 318   0.0000       2.502430        68.0946 
 319   0.0000       2.517742        68.5113 
 320   0.0000       2.540782        69.1382 
 321   0.0000       2.555966        69.5514 
 322   0.0000       2.576392        70.1072 
 323   0.0000       2.585400        70.3523 
 324   0.0000       2.597046        70.6692 
 325   0.0000       2.601159        70.7811 
 326   0.0000       2.611482        71.0620 
 327   0.0000       2.622601        71.3646 
 328   0.0000       2.626694        71.4760 
 329   0.0000       2.649021        72.0835 
 330   0.0000       2.660882        72.4063 
 331   0.0000       2.693148        73.2843 
 332   0.0000       2.704358        73.5893 
 333   0.0000       2.714207        73.8573 
 334   0.0000       2.750347        74.8407 
 335   0.0000       2.754120        74.9434 
 336   0.0000       2.769321        75.3570 
 337   0.0000       2.788372        75.8755 
 338   0.0000       2.809968        76.4631 
 339   0.0000       2.830053        77.0096 
 340   0.0000       2.841235        77.3139 
 341   0.0000       2.868749        78.0626 
 342   0.0000       2.886347        78.5415 
 343   0.0000       2.890573        78.6565 
 344   0.0000       2.908386        79.1412 
 345   0.0000       2.913394        79.2775 
 346   0.0000       2.920306        79.4656 
 347   0.0000       2.934154        79.8424 
 348   0.0000       2.954082        80.3846 
 349   0.0000       2.970858        80.8412 
 350   0.0000       2.985720        81.2456 
 351   0.0000       3.005994        81.7973 
 352   0.0000       3.027808        82.3908 
 353   0.0000       3.045826        82.8811 
 354   0.0000       3.188647        86.7675 
 355   0.0000       3.238314        88.1190 
 356   0.0000       3.288287        89.4788 
 357   0.0000       3.295705        89.6807 
 358   0.0000       3.403738        92.6204 
 359   0.0000       3.519517        95.7709 
 360   0.0000       3.531165        96.0879 
 361   0.0000       3.686297       100.3092 
 362   0.0000       3.699500       100.6685 
 363   0.0000       3.736390       101.6723 
 364   0.0000       3.744974       101.9059 
 365   0.0000       3.917259       106.5940 
 366   0.0000      13.396083       364.5259 
 367   0.0000      13.416123       365.0713 
 368   0.0000      13.760708       374.4479 
 369   0.0000      13.790783       375.2663 
 370   0.0000      13.810857       375.8125 
 371   0.0000      13.820294       376.0693 
 372   0.0000      14.017915       381.4469 
 373   0.0000      14.142665       384.8415 
 374   0.0000      14.181576       385.9003 
 375   0.0000      14.225045       387.0832 
 376   0.0000      14.236265       387.3885 
 377   0.0000      14.268676       388.2704 
 378   0.0000      14.298438       389.0803 
 379   0.0000      14.571732       396.5170 
 380   0.0000      14.607295       397.4847 
 381   0.0000      25.696627       699.2408 
 382   0.0000      25.788503       701.7409 
 383   0.0000      25.933514       705.6868 
 384   0.0000      51.722321      1407.4359 

                    ********************************
                    * MULLIKEN POPULATION ANALYSIS *
                    ********************************

-----------------------
MULLIKEN ATOMIC CHARGES
-----------------------
   0 C :   -0.104737
   1 C :    0.053971
   2 C :   -0.324561
   3 C :   -0.233375
   4 C :   -0.227104
   5 C :   -0.252082
   6 H :    0.309806
   7 H :    0.185675
   8 H :    0.163482
   9 H :    0.173186
  10 H :    0.172727
  11 C :   -0.457119
  12 C :   -0.512560
  13 H :    0.189203
  14 H :    0.237295
  15 C :    0.109398
  16 H :    0.268461
  17 H :    0.194943
  18 C :   -0.098913
  19 C :   -0.321180
  20 C :   -0.221392
  21 C :   -0.256564
  22 C :   -0.241345
  23 H :    0.255391
  24 H :    0.193267
  25 H :    0.179704
  26 H :    0.185617
  27 Pd:    0.138367
  28 Br:   -0.306673
  29 P :   -0.156995
  30 H :    0.108613
  31 C :    0.639893
  32 O :   -0.466403
  33 O :   -0.627384
  34 O :   -0.577270
  35 H :    0.096385
  36 H :    0.124934
  37 H :    0.405341
Sum of atomic charges:   -1.0000000

--------------------------------
MULLIKEN REDUCED ORBITAL CHARGES
--------------------------------
  0 C s       :     3.325556  s :     3.325556
      pz      :     0.868675  p :     2.743700
      px      :     0.983791
      py      :     0.891234
      dz2     :     0.005194  d :     0.035481
      dxz     :     0.006057
      dyz     :     0.006169
      dx2y2   :     0.012488
      dxy     :     0.005573
  1 C s       :     3.197029  s :     3.197029
      pz      :     0.941088  p :     2.702815
      px      :     0.864516
      py      :     0.897211
      dz2     :     0.005723  d :     0.046185
      dxz     :     0.010480
      dyz     :     0.005963
      dx2y2   :     0.011120
      dxy     :     0.012899
  2 C s       :     3.280506  s :     3.280506
      pz      :     1.017270  p :     3.003247
      px      :     0.947081
      py      :     1.038895
      dz2     :     0.003112  d :     0.040808
      dxz     :     0.008021
      dyz     :     0.004249
      dx2y2   :     0.011423
      dxy     :     0.014003
  3 C s       :     3.243845  s :     3.243845
      pz      :     1.010412  p :     2.950716
      px      :     1.002253
      py      :     0.938050
      dz2     :     0.005099  d :     0.038815
      dxz     :     0.004922
      dyz     :     0.006113
      dx2y2   :     0.013785
      dxy     :     0.008896
  4 C s       :     3.236572  s :     3.236572
      pz      :     0.995847  p :     2.950329
      px      :     0.956197
      py      :     0.998285
      dz2     :     0.004714  d :     0.040204
      dxz     :     0.007744
      dyz     :     0.005282
      dx2y2   :     0.009754
      dxy     :     0.012709
  5 C s       :     3.252691  s :     3.252691
      pz      :     1.058098  p :     2.959742
      px      :     0.909755
      py      :     0.991889
      dz2     :     0.003269  d :     0.039650
      dxz     :     0.008645
      dyz     :     0.005143
      dx2y2   :     0.012134
      dxy     :     0.010459
  6 H s       :     0.690194  s :     0.690194
  7 H s       :     0.814325  s :     0.814325
  8 H s       :     0.836518  s :     0.836518
  9 H s       :     0.826814  s :     0.826814
 10 H s       :     0.827273  s :     0.827273
 11 C s       :     3.343139  s :     3.343139
      pz      :     1.074626  p :     3.070220
      px      :     0.936558
      py      :     1.059036
      dz2     :     0.009094  d :     0.043760
      dxz     :     0.006989
      dyz     :     0.008002
      dx2y2   :     0.009895
      dxy     :     0.009780
 12 C s       :     3.380329  s :     3.380329
      pz      :     1.020489  p :     3.089202
      px      :     0.967251
      py      :     1.101462
      dz2     :     0.009450  d :     0.043029
      dxz     :     0.012838
      dyz     :     0.003074
      dx2y2   :     0.008863
      dxy     :     0.008804
 13 H s       :     0.810797  s :     0.810797
 14 H s       :     0.762705  s :     0.762705
 15 C s       :     3.172683  s :     3.172683
      pz      :     0.879572  p :     2.671869
      px      :     0.908568
      py      :     0.883729
      dz2     :     0.011634  d :     0.046049
      dxz     :     0.011988
      dyz     :     0.007856
      dx2y2   :     0.007175
      dxy     :     0.007397
 16 H s       :     0.731539  s :     0.731539
 17 H s       :     0.805057  s :     0.805057
 18 C s       :     3.316666  s :     3.316666
      pz      :     0.865909  p :     2.742570
      px      :     0.924365
      py      :     0.952296
      dz2     :     0.008627  d :     0.039678
      dxz     :     0.011124
      dyz     :     0.008718
      dx2y2   :     0.007004
      dxy     :     0.004205
 19 C s       :     3.290824  s :     3.290824
      pz      :     1.094979  p :     2.991058
      px      :     0.931289
      py      :     0.964791
      dz2     :     0.009411  d :     0.039298
      dxz     :     0.007323
      dyz     :     0.008689
      dx2y2   :     0.007111
      dxy     :     0.006764
 20 C s       :     3.240433  s :     3.240433
      pz      :     0.967109  p :     2.941488
      px      :     0.997943
      py      :     0.976437
      dz2     :     0.008308  d :     0.039471
      dxz     :     0.011883
      dyz     :     0.007231
      dx2y2   :     0.006608
      dxy     :     0.005442
 21 C s       :     3.267302  s :     3.267302
      pz      :     0.988702  p :     2.949097
      px      :     0.953388
      py      :     1.007007
      dz2     :     0.011565  d :     0.040165
      dxz     :     0.009408
      dyz     :     0.006177
      dx2y2   :     0.006703
      dxy     :     0.006312
 22 C s       :     3.243006  s :     3.243006
      pz      :     0.928134  p :     2.958527
      px      :     1.032209
      py      :     0.998184
      dz2     :     0.011376  d :     0.039812
      dxz     :     0.009039
      dyz     :     0.008140
      dx2y2   :     0.003008
      dxy     :     0.008248
 23 H s       :     0.744609  s :     0.744609
 24 H s       :     0.806733  s :     0.806733
 25 H s       :     0.820296  s :     0.820296
 26 H s       :     0.814383  s :     0.814383
 27 Pds       :     2.552586  s :     2.552586
      pz      :     2.090085  p :     6.301498
      px      :     2.112082
      py      :     2.099331
      dz2     :     1.943431  d :     9.005602
      dxz     :     1.943702
      dyz     :     1.971371
      dx2y2   :     1.953139
      dxy     :     1.193958
      f0      :     0.000154  f :     0.001948
      f+1     :     0.000268
      f-1     :     0.000232
      f+2     :     0.000051
      f-2     :     0.000153
      f+3     :     0.000396
      f-3     :     0.000694
 28 Brs       :     7.965042  s :     7.965042
      pz      :     5.783000  p :    17.319015
      px      :     5.873220
      py      :     5.662795
      dz2     :     2.002075  d :    10.022617
      dxz     :     2.002927
      dyz     :     2.008325
      dx2y2   :     2.004934
      dxy     :     2.004356
 29 P s       :     5.646120  s :     5.646120
      pz      :     3.015831  p :     9.337658
      px      :     3.096019
      py      :     3.225808
      dz2     :     0.032510  d :     0.173218
      dxz     :     0.011797
      dyz     :     0.054610
      dx2y2   :     0.062413
      dxy     :     0.011888
 30 H s       :     0.891387  s :     0.891387
 31 C s       :     2.816911  s :     2.816911
      pz      :     0.763007  p :     2.364004
      px      :     0.850999
      py      :     0.749999
      dz2     :     0.019492  d :     0.179192
      dxz     :     0.036407
      dyz     :     0.019657
      dx2y2   :     0.047989
      dxy     :     0.055648
 32 O s       :     3.726322  s :     3.726322
      pz      :     1.579603  p :     4.709191
      px      :     1.403862
      py      :     1.725726
      dz2     :     0.003428  d :     0.030890
      dxz     :     0.009538
      dyz     :     0.001383
      dx2y2   :     0.008484
      dxy     :     0.008058
 33 O s       :     3.850203  s :     3.850203
      pz      :     1.582831  p :     4.759239
      px      :     1.545976
      py      :     1.630432
      dz2     :     0.002727  d :     0.017942
      dxz     :     0.003868
      dyz     :     0.003960
      dx2y2   :     0.001681
      dxy     :     0.005706
 34 O s       :     3.796233  s :     3.796233
      pz      :     1.759745  p :     4.749457
      px      :     1.635791
      py      :     1.353922
      dz2     :     0.003286  d :     0.031580
      dxz     :     0.006659
      dyz     :     0.003617
      dx2y2   :     0.005083
      dxy     :     0.012935
 35 H s       :     0.903615  s :     0.903615
 36 H s       :     0.875066  s :     0.875066
 37 H s       :     0.594659  s :     0.594659


                     *******************************
                     * LOEWDIN POPULATION ANALYSIS *
                     *******************************

----------------------
LOEWDIN ATOMIC CHARGES
----------------------
   0 C :   -0.117825
   1 C :   -0.052149
   2 C :   -0.149768
   3 C :   -0.169500
   4 C :   -0.173607
   5 C :   -0.160655
   6 H :    0.325883
   7 H :    0.120334
   8 H :    0.110985
   9 H :    0.114740
  10 H :    0.115979
  11 C :   -0.212169
  12 C :   -0.209398
  13 H :    0.119757
  14 H :    0.140275
  15 C :   -0.039697
  16 H :    0.164656
  17 H :    0.115939
  18 C :   -0.007591
  19 C :   -0.129065
  20 C :   -0.156791
  21 C :   -0.149885
  22 C :   -0.159050
  23 H :    0.156019
  24 H :    0.124916
  25 H :    0.123129
  26 H :    0.120667
  27 Pd:   -0.786084
  28 Br:   -0.074522
  29 P :    0.362572
  30 H :    0.049065
  31 C :    0.086367
  32 O :   -0.270056
  33 O :   -0.443405
  34 O :   -0.299827
  35 H :    0.039422
  36 H :    0.056478
  37 H :    0.313862

-------------------------------
LOEWDIN REDUCED ORBITAL CHARGES
-------------------------------
  0 C s       :     2.957091  s :     2.957091
      pz      :     0.924280  p :     3.082852
      px      :     1.126405
      py      :     1.032167
      dz2     :     0.010089  d :     0.077882
      dxz     :     0.012295
      dyz     :     0.013116
      dx2y2   :     0.028038
      dxy     :     0.014345
  1 C s       :     2.855994  s :     2.855994
      pz      :     1.001088  p :     3.086198
      px      :     1.027739
      py      :     1.057371
      dz2     :     0.011593  d :     0.109958
      dxz     :     0.024241
      dyz     :     0.013819
      dx2y2   :     0.028056
      dxy     :     0.032248
  2 C s       :     2.897527  s :     2.897527
      pz      :     1.004615  p :     3.160809
      px      :     1.101542
      py      :     1.054652
      dz2     :     0.005883  d :     0.091433
      dxz     :     0.017105
      dyz     :     0.006994
      dx2y2   :     0.027746
      dxy     :     0.033704
  3 C s       :     2.906791  s :     2.906791
      pz      :     1.037482  p :     3.175750
      px      :     1.061984
      py      :     1.076284
      dz2     :     0.009140  d :     0.086959
      dxz     :     0.009972
      dyz     :     0.014313
      dx2y2   :     0.030962
      dxy     :     0.022572
  4 C s       :     2.893885  s :     2.893885
      pz      :     1.034527  p :     3.188348
      px      :     1.081796
      py      :     1.072025
      dz2     :     0.009382  d :     0.091374
      dxz     :     0.017041
      dyz     :     0.010749
      dx2y2   :     0.025048
      dxy     :     0.029155
  5 C s       :     2.895244  s :     2.895244
      pz      :     1.042554  p :     3.174697
      px      :     1.083550
      py      :     1.048593
      dz2     :     0.006157  d :     0.090713
      dxz     :     0.019467
      dyz     :     0.009350
      dx2y2   :     0.029847
      dxy     :     0.025892
  6 H s       :     0.674117  s :     0.674117
  7 H s       :     0.879666  s :     0.879666
  8 H s       :     0.889015  s :     0.889015
  9 H s       :     0.885260  s :     0.885260
 10 H s       :     0.884021  s :     0.884021
 11 C s       :     2.905533  s :     2.905533
      pz      :     1.080482  p :     3.217612
      px      :     1.053747
      py      :     1.083384
      dz2     :     0.017502  d :     0.089024
      dxz     :     0.013807
      dyz     :     0.014126
      dx2y2   :     0.021365
      dxy     :     0.022223
 12 C s       :     2.902024  s :     2.902024
      pz      :     1.064766  p :     3.220055
      px      :     1.050551
      py      :     1.104738
      dz2     :     0.018871  d :     0.087319
      dxz     :     0.026320
      dyz     :     0.005809
      dx2y2   :     0.017252
      dxy     :     0.019068
 13 H s       :     0.880243  s :     0.880243
 14 H s       :     0.859725  s :     0.859725
 15 C s       :     2.844552  s :     2.844552
      pz      :     1.063835  p :     3.084214
      px      :     1.021536
      py      :     0.998844
      dz2     :     0.027687  d :     0.110932
      dxz     :     0.030001
      dyz     :     0.020184
      dx2y2   :     0.015305
      dxy     :     0.017754
 16 H s       :     0.835344  s :     0.835344
 17 H s       :     0.884061  s :     0.884061
 18 C s       :     2.895512  s :     2.895512
      pz      :     1.049925  p :     3.022526
      px      :     1.013099
      py      :     0.959501
      dz2     :     0.022420  d :     0.089553
      dxz     :     0.026048
      dyz     :     0.020023
      dx2y2   :     0.012477
      dxy     :     0.008585
 19 C s       :     2.895186  s :     2.895186
      pz      :     1.074877  p :     3.146318
      px      :     1.041511
      py      :     1.029930
      dz2     :     0.020290  d :     0.087561
      dxz     :     0.018097
      dyz     :     0.017351
      dx2y2   :     0.015268
      dxy     :     0.016556
 20 C s       :     2.893930  s :     2.893930
      pz      :     1.069271  p :     3.173403
      px      :     1.053875
      py      :     1.050257
      dz2     :     0.020251  d :     0.089458
      dxz     :     0.025108
      dyz     :     0.017749
      dx2y2   :     0.013509
      dxy     :     0.012841
 21 C s       :     2.888286  s :     2.888286
      pz      :     1.067208  p :     3.169678
      px      :     1.058893
      py      :     1.043577
      dz2     :     0.024965  d :     0.091921
      dxz     :     0.023372
      dyz     :     0.013719
      dx2y2   :     0.014694
      dxy     :     0.015172
 22 C s       :     2.892718  s :     2.892718
      pz      :     1.087990  p :     3.176127
      px      :     1.053166
      py      :     1.034971
      dz2     :     0.027944  d :     0.090206
      dxz     :     0.022434
      dyz     :     0.019391
      dx2y2   :     0.005867
      dxy     :     0.014569
 23 H s       :     0.843981  s :     0.843981
 24 H s       :     0.875084  s :     0.875084
 25 H s       :     0.876871  s :     0.876871
 26 H s       :     0.879333  s :     0.879333
 27 Pds       :     2.574797  s :     2.574797
      pz      :     2.185969  p :     6.874635
      px      :     2.364708
      py      :     2.323959
      dz2     :     1.997257  d :     9.334155
      dxz     :     1.982191
      dyz     :     2.003762
      dx2y2   :     1.996107
      dxy     :     1.354838
      f0      :     0.000176  f :     0.002497
      f+1     :     0.000354
      f-1     :     0.000311
      f+2     :     0.000063
      f-2     :     0.000178
      f+3     :     0.000514
      f-3     :     0.000901
 28 Brs       :     7.843377  s :     7.843377
      pz      :     5.754367  p :    17.204762
      px      :     5.839384
      py      :     5.611011
      dz2     :     2.002585  d :    10.026383
      dxz     :     2.003565
      dyz     :     2.009122
      dx2y2   :     2.005155
      dxy     :     2.005956
 29 P s       :     5.307661  s :     5.307661
      pz      :     2.981259  p :     9.127760
      px      :     3.029226
      py      :     3.117275
      dz2     :     0.038774  d :     0.202007
      dxz     :     0.012784
      dyz     :     0.063398
      dx2y2   :     0.071535
      dxy     :     0.015516
 30 H s       :     0.950935  s :     0.950935
 31 C s       :     2.786795  s :     2.786795
      pz      :     0.808975  p :     2.724650
      px      :     1.027166
      py      :     0.888509
      dz2     :     0.042729  d :     0.402188
      dxz     :     0.080644
      dyz     :     0.043437
      dx2y2   :     0.104988
      dxy     :     0.130390
 32 O s       :     3.484305  s :     3.484305
      pz      :     1.553832  p :     4.727430
      px      :     1.487889
      py      :     1.685709
      dz2     :     0.007181  d :     0.058321
      dxz     :     0.015451
      dyz     :     0.001941
      dx2y2   :     0.018578
      dxy     :     0.015171
 33 O s       :     3.617888  s :     3.617888
      pz      :     1.584098  p :     4.791401
      px      :     1.562840
      py      :     1.644462
      dz2     :     0.004182  d :     0.034116
      dxz     :     0.008520
      dyz     :     0.007435
      dx2y2   :     0.003552
      dxy     :     0.010427
 34 O s       :     3.496996  s :     3.496996
      pz      :     1.733479  p :     4.746013
      px      :     1.626583
      py      :     1.385950
      dz2     :     0.005860  d :     0.056819
      dxz     :     0.008391
      dyz     :     0.008573
      dx2y2   :     0.010424
      dxy     :     0.023570
 35 H s       :     0.960578  s :     0.960578
 36 H s       :     0.943522  s :     0.943522
 37 H s       :     0.686138  s :     0.686138


                      *****************************
                      * MAYER POPULATION ANALYSIS *
                      *****************************

  NA   - Mulliken gross atomic population
  ZA   - Total nuclear charge
  QA   - Mulliken gross atomic charge
  VA   - Mayer's total valence
  BVA  - Mayer's bonded valence
  FA   - Mayer's free valence

  ATOM       NA         ZA         QA         VA         BVA        FA
  0 C      6.1047     6.0000    -0.1047     3.5796     3.5796     0.0000
  1 C      5.9460     6.0000     0.0540     3.7675     3.7675    -0.0000
  2 C      6.3246     6.0000    -0.3246     3.8865     3.8865     0.0000
  3 C      6.2334     6.0000    -0.2334     3.8096     3.8096    -0.0000
  4 C      6.2271     6.0000    -0.2271     3.8464     3.8464     0.0000
  5 C      6.2521     6.0000    -0.2521     3.7920     3.7920    -0.0000
  6 H      0.6902     1.0000     0.3098     0.8951     0.8951    -0.0000
  7 H      0.8143     1.0000     0.1857     0.9253     0.9253    -0.0000
  8 H      0.8365     1.0000     0.1635     0.9304     0.9304     0.0000
  9 H      0.8268     1.0000     0.1732     0.9272     0.9272    -0.0000
 10 H      0.8273     1.0000     0.1727     0.9256     0.9256     0.0000
 11 C      6.4571     6.0000    -0.4571     3.6785     3.6785    -0.0000
 12 C      6.5126     6.0000    -0.5126     3.7005     3.7005    -0.0000
 13 H      0.8108     1.0000     0.1892     0.9167     0.9167     0.0000
 14 H      0.7627     1.0000     0.2373     0.8934     0.8934     0.0000
 15 C      5.8906     6.0000     0.1094     3.6999     3.6999    -0.0000
 16 H      0.7315     1.0000     0.2685     0.8961     0.8961     0.0000
 17 H      0.8051     1.0000     0.1949     0.9134     0.9134     0.0000
 18 C      6.0989     6.0000    -0.0989     3.7575     3.7575    -0.0000
 19 C      6.3212     6.0000    -0.3212     3.7967     3.7967     0.0000
 20 C      6.2214     6.0000    -0.2214     3.8120     3.8120     0.0000
 21 C      6.2566     6.0000    -0.2566     3.8032     3.8032     0.0000
 22 C      6.2413     6.0000    -0.2413     3.8385     3.8385     0.0000
 23 H      0.7446     1.0000     0.2554     0.9196     0.9196    -0.0000
 24 H      0.8067     1.0000     0.1933     0.9199     0.9199     0.0000
 25 H      0.8203     1.0000     0.1797     0.9279     0.9279    -0.0000
 26 H      0.8144     1.0000     0.1856     0.9220     0.9220    -0.0000
 27 Pd    17.8616    18.0000     0.1384     2.6461     2.6461    -0.0000
 28 Br    35.3067    35.0000    -0.3067     1.1112     1.1112    -0.0000
 29 P     15.1570    15.0000    -0.1570     3.4545     3.4545    -0.0000
 30 H      0.8914     1.0000     0.1086     0.9584     0.9584     0.0000
 31 C      5.3601     6.0000     0.6399     4.3608     4.3608    -0.0000
 32 O      8.4664     8.0000    -0.4664     2.1533     2.1533     0.0000
 33 O      8.6274     8.0000    -0.6274     1.9620     1.9620     0.0000
 34 O      8.5773     8.0000    -0.5773     1.9762     1.9762    -0.0000
 35 H      0.9036     1.0000     0.0964     0.9633     0.9633    -0.0000
 36 H      0.8751     1.0000     0.1249     0.9576     0.9576    -0.0000
 37 H      0.5947     1.0000     0.4053     0.8234     0.8234     0.0000

  Mayer bond orders larger than 0.100000
B(  0-C ,  1-C ) :   1.3769 B(  0-C ,  2-C ) :   1.4413 B(  0-C , 27-Pd) :   0.6111 
B(  1-C ,  5-C ) :   1.3844 B(  1-C , 11-C ) :   0.9542 B(  2-C ,  3-C ) :   1.3949 
B(  2-C ,  7-H ) :   0.9160 B(  3-C ,  4-C ) :   1.4325 B(  3-C ,  9-H ) :   0.9292 
B(  4-C ,  5-C ) :   1.4275 B(  4-C , 10-H ) :   0.9289 B(  5-C ,  8-H ) :   0.9291 
B(  6-H , 28-Br) :   0.5701 B(  6-H , 33-O ) :   0.2613 B( 11-C , 12-C ) :   0.9404 
B( 11-C , 13-H ) :   0.9360 B( 11-C , 14-H ) :   0.9034 B( 12-C , 15-C ) :   0.9658 
B( 12-C , 16-H ) :   0.8815 B( 12-C , 17-H ) :   0.9282 B( 15-C , 18-C ) :   1.3562 
B( 15-C , 21-C ) :   1.3823 B( 18-C , 19-C ) :   1.3842 B( 18-C , 27-Pd) :   0.8052 
B( 19-C , 20-C ) :   1.4294 B( 19-C , 23-H ) :   0.8817 B( 20-C , 22-C ) :   1.4113 
B( 20-C , 24-H ) :   0.9257 B( 21-C , 22-C ) :   1.4416 B( 21-C , 25-H ) :   0.9258 
B( 22-C , 26-H ) :   0.9273 B( 27-Pd, 28-Br) :   0.2827 B( 27-Pd, 29-P ) :   0.4810 
B( 27-Pd, 33-O ) :   0.1542 B( 29-P , 30-H ) :   0.9335 B( 29-P , 35-H ) :   0.9273 
B( 29-P , 36-H ) :   0.9273 B( 31-C , 32-O ) :   1.9184 B( 31-C , 33-O ) :   1.3298 
B( 31-C , 34-O ) :   1.0813 B( 34-O , 37-H ) :   0.7808 


------------------
HIRSHFELD ANALYSIS
------------------

Total integrated alpha density =     99.999845448
Total integrated beta density  =     99.999845448

  ATOM     CHARGE      SPIN    
   0 C   -0.196313    0.000000
   1 C   -0.026911    0.000000
   2 C   -0.083580    0.000000
   3 C   -0.078013    0.000000
   4 C   -0.082624    0.000000
   5 C   -0.079180    0.000000
   6 H    0.188331    0.000000
   7 H    0.005633    0.000000
   8 H    0.016531    0.000000
   9 H    0.021892    0.000000
  10 H    0.025270    0.000000
  11 C   -0.047999    0.000000
  12 C   -0.058528    0.000000
  13 H    0.015009    0.000000
  14 H    0.018895    0.000000
  15 C   -0.025096    0.000000
  16 H    0.003517    0.000000
  17 H    0.014379    0.000000
  18 C   -0.109433    0.000000
  19 C   -0.062361    0.000000
  20 C   -0.066653    0.000000
  21 C   -0.065580    0.000000
  22 C   -0.070288    0.000000
  23 H    0.031976    0.000000
  24 H    0.031215    0.000000
  25 H    0.027270    0.000000
  26 H    0.028279    0.000000
  27 Pd   0.390590    0.000000
  28 Br  -0.248139    0.000000
  29 P    0.118008    0.000000
  30 H   -0.000213    0.000000
  31 C    0.234049    0.000000
  32 O   -0.374918    0.000000
  33 O   -0.447706    0.000000
  34 O   -0.237612    0.000000
  35 H    0.003062    0.000000
  36 H    0.014544    0.000000
  37 H    0.173006    0.000000

  TOTAL  -0.999691    0.000000

-------
TIMINGS
-------

Total SCF time: 0 days 0 hours 15 min 54 sec 

Total time                  ....     954.371 sec
Sum of individual times     ....     953.703 sec  ( 99.9%)

Fock matrix formation       ....     942.901 sec  ( 98.8%)
  Split-RI-J                ....      99.018 sec  ( 10.5% of F)
  Chain of spheres X        ....     770.136 sec  ( 81.7% of F)
  XC integration            ....      73.497 sec  (  7.8% of F)
    Basis function eval.    ....      27.396 sec  ( 37.3% of XC)
    Density eval.           ....      19.861 sec  ( 27.0% of XC)
    XC-Functional eval.     ....       5.374 sec  (  7.3% of XC)
    XC-Potential eval.      ....      18.911 sec  ( 25.7% of XC)
Diagonalization             ....       1.225 sec  (  0.1%)
Density matrix formation    ....       0.164 sec  (  0.0%)
Population analysis         ....       1.591 sec  (  0.2%)
Initial guess               ....       0.083 sec  (  0.0%)
Orbital Transformation      ....       0.000 sec  (  0.0%)
Orbital Orthonormalization  ....       0.000 sec  (  0.0%)
DIIS solution               ....       0.461 sec  (  0.0%)
Grid generation             ....       7.278 sec  (  0.8%)

Maximum memory used throughout the entire SCF-calculation: 180.2 MB


-------------------------------------------------------------------------------
                          DFT DISPERSION CORRECTION                            
                                                                               
                              DFTD3 V3.1  Rev 1                                
                          USING Becke-Johnson damping                          
-------------------------------------------------------------------------------
The PBEh-3c composite method is recognized
Using three-body term ABC
Active option DFTDOPT                   ...         4   

molecular C6(AA) [au] = 24410.220873 


            DFT-D V3
 parameters
 s6 scaling factor         :     1.0000 
 a1 scaling factor         :     0.4860 
 s8 scaling factor         :     0.0000 
 a2 scaling factor         :     4.5000 
 Damping factor alpha9(ATM):    16.0000 
 ad hoc parameters k1-k3   :    16.0000     1.3333    -4.0000 

 Edisp/kcal,au: -19.750819800314  -0.031474931471 
 E6   /kcal   : -19.975974422 
 E8   /kcal   :  -0.000000000 
 E6(ABC)      :   0.225154622 
 % E8         :   0.000000000 
 % E6(ABC)    :  -1.139976082 

-------------------------   ----------------
Dispersion correction           -0.031474931
-------------------------   ----------------

 ** NOTE ** -> element pd will be treated as ni
------------------   -----------------
gCP correction             0.073053608
------------------   -----------------

-------------------------   --------------------
FINAL SINGLE POINT ENERGY     -3847.519698599254
-------------------------   --------------------

------------------------------------------------------------------------------
                         ORCA SCF GRADIENT CALCULATION
------------------------------------------------------------------------------

 ... reading COSX grid (gridx3)
Gradient of the Kohn-Sham DFT energy:
Kohn-Sham wavefunction type      ... RKS
Hartree-Fock exchange scaling    ...    0.420
Number of operators              ...    1
Number of atoms                  ...   38
Basis set dimensions             ...  385
Integral neglect threshold       ... 2.5e-11
Integral primitive cutoff        ... 2.5e-12
SHARK Integral package           ... ON

Nuc. rep. gradient       (SHARK) ... done (  0.0 sec)
HCore & Overlap gradient (SHARK) ... done (  1.9 sec)
ECP gradient             (SHARK) ... done (  2.9 sec)
RI-J gradient            (SHARK) ... done (  9.8 sec)
COSX-gradient                    ... done ( 85.7 sec)
Exchange-correlation gradient    ... done
Dispersion correction            ... done
gCP correction                   ... done

------------------
CARTESIAN GRADIENT
------------------

   1   C   :   -0.029272222   -0.024753677   -0.008966463
   2   C   :    0.014948532    0.024677133    0.004222496
   3   C   :    0.034887579    0.006596958    0.012160251
   4   C   :   -0.010258975   -0.006202737    0.003814330
   5   C   :   -0.002481800    0.024801654   -0.004420149
   6   C   :   -0.015116724   -0.021739031    0.004744618
   7   H   :   -0.039887261    0.035186240   -0.006348401
   8   H   :   -0.009965756   -0.011100771    0.001393855
   9   H   :    0.002569727    0.015291266    0.000046057
  10   H   :   -0.013008192    0.007187027   -0.004239415
  11   H   :   -0.002701697    0.001350381    0.007332258
  12   C   :   -0.003168493   -0.030093773   -0.023022157
  13   C   :   -0.008545414    0.017926168    0.001775638
  14   H   :   -0.001658793    0.006997489    0.024128514
  15   H   :   -0.004363084    0.005419421   -0.004633779
  16   C   :    0.016981383   -0.001869990   -0.005990663
  17   H   :   -0.002625008   -0.016253315   -0.004256398
  18   H   :    0.006218889   -0.000383230    0.003173884
  19   C   :    0.005877065   -0.011702003   -0.001269367
  20   C   :    0.013208747    0.014994178    0.011992633
  21   C   :    0.006002912    0.003470360   -0.022609887
  22   C   :   -0.012742723    0.014368209    0.002116918
  23   C   :    0.010406293    0.001308182    0.014427189
  24   H   :    0.003390724   -0.009458550   -0.013827467
  25   H   :   -0.001123362    0.000024024    0.006075838
  26   H   :    0.007120798   -0.008491124    0.000809228
  27   H   :   -0.002936887    0.003850541   -0.001122853
  28   Pd  :   -0.013193093    0.008155407   -0.011315365
  29   Br  :    0.020936322   -0.033161503    0.021225735
  30   P   :   -0.006808055    0.000774169    0.003787773
  31   H   :   -0.001803481   -0.003776336    0.005799677
  32   C   :    0.138839070    0.044193630   -0.089035250
  33   O   :   -0.080924373    0.022743257    0.024130451
  34   O   :   -0.044059654   -0.042337797    0.034439985
  35   O   :   -0.001383760   -0.033696183    0.016497244
  36   H   :    0.016045697    0.000932318    0.003958585
  37   H   :    0.000346653   -0.009061918   -0.003719737
  38   H   :    0.009412480    0.004157928   -0.003080674

Difference to translation invariance:
           :   -0.0008359375    0.0003240012    0.0001951306

Difference to rotation invariance:
           :   -0.0034396243   -0.0012353255    0.0001416899

Norm of the cartesian gradient     ...    0.2464043707
RMS gradient                       ...    0.0230778838
MAX gradient                       ...    0.1388390702

-------
TIMINGS
-------

Total SCF gradient time            ...      114.104 sec

One electron gradient       ....       4.786 sec  (  4.2%)
RI-J Coulomb gradient       ....       9.810 sec  (  8.6%)
COSX gradient               ....      85.721 sec  ( 75.1%)
XC gradient                 ....      11.909 sec  ( 10.4%)

Maximum memory used throughout the entire SCFGRAD-calculation: 145.6 MB

                            ***************************************
                            *     ORCA property calculations      *
                            ***************************************

                                    ---------------------
                                    Active property flags
                                    ---------------------
   (+) Dipole Moment


------------------------------------------------------------------------------
                       ORCA ELECTRIC PROPERTIES CALCULATION
------------------------------------------------------------------------------

Dipole Moment Calculation                       ... on
Quadrupole Moment Calculation                   ... off
Polarizability Calculation                      ... off
GBWName                                         ... 7_5_orca.gbw
Electron density                                ... 7_5_orca.scfp
The origin for moment calculation is the CENTER OF MASS  = (-0.505362, -1.817030 -0.841865)

-------------
DIPOLE MOMENT
-------------
                                X             Y             Z
Electronic contribution:     -8.34508     -61.21581     -13.22087
Nuclear contribution   :      9.80792      61.09181      14.92558
                        -----------------------------------------
Total Dipole Moment    :      1.46284      -0.12401       1.70471
                        -----------------------------------------
Magnitude (a.u.)       :      2.24974
Magnitude (Debye)      :      5.71838



--------------------
Rotational spectrum 
--------------------
 
Rotational constants in cm-1:     0.006730     0.006613     0.004458 
Rotational constants in MHz :   201.754365   198.245835   133.642029 

 Dipole components along the rotational axes: 
x,y,z [a.u.] :     0.437660    -1.279488     1.797969 
x,y,z [Debye]:     1.112444    -3.252200     4.570075 

 

Timings for individual modules:

Sum of individual times         ...     1069.807 sec (=  17.830 min)
GTO integral calculation        ...        1.252 sec (=   0.021 min)   0.1 %
SCF iterations                  ...      954.407 sec (=  15.907 min)  89.2 %
SCF Gradient evaluation         ...      114.147 sec (=   1.902 min)  10.7 %
                             ****ORCA TERMINATED NORMALLY****
TOTAL RUN TIME: 0 days 0 hours 17 minutes 50 seconds 239 msec
