
                                 *****************
                                 * O   R   C   A *
                                 *****************

                                            #,                                       
                                            ###                                      
                                            ####                                     
                                            #####                                    
                                            ######                                   
                                           ########,                                 
                                     ,,################,,,,,                         
                               ,,#################################,,                 
                          ,,##########################################,,             
                       ,#########################################, ''#####,          
                    ,#############################################,,   '####,        
                  ,##################################################,,,,####,       
                ,###########''''           ''''###############################       
              ,#####''   ,,,,##########,,,,          '''####'''          '####       
            ,##' ,,,,###########################,,,                        '##       
           ' ,,###''''                  '''############,,,                           
         ,,##''                                '''############,,,,        ,,,,,,###''
      ,#''                                            '''#######################'''  
     '                                                          ''''####''''         
             ,#######,   #######,   ,#######,      ##                                
            ,#'     '#,  ##    ##  ,#'     '#,    #''#        ######   ,####,        
            ##       ##  ##   ,#'  ##            #'  '#       #        #'  '#        
            ##       ##  #######   ##           ,######,      #####,   #    #        
            '#,     ,#'  ##    ##  '#,     ,#' ,#      #,         ##   #,  ,#        
             '#######'   ##     ##  '#######'  #'      '#     #####' # '####'        



                  #######################################################
                  #                        -***-                        #
                  #          Department of theory and spectroscopy      #
                  #    Directorship and core code : Frank Neese         #
                  #        Max Planck Institute fuer Kohlenforschung    #
                  #                Kaiser Wilhelm Platz 1               #
                  #                 D-45470 Muelheim/Ruhr               #
                  #                      Germany                        #
                  #                                                     #
                  #                  All rights reserved                #
                  #                        -***-                        #
                  #######################################################


                         Program Version 5.0.3 -  RELEASE  -


 With contributions from (in alphabetic order):
   Daniel Aravena         : Magnetic Suceptibility
   Michael Atanasov       : Ab Initio Ligand Field Theory (pilot matlab implementation)
   Alexander A. Auer      : GIAO ZORA, VPT2 properties, NMR spectrum
   Ute Becker             : Parallelization
   Giovanni Bistoni       : ED, misc. LED, open-shell LED, HFLD
   Martin Brehm           : Molecular dynamics
   Dmytro Bykov           : SCF Hessian
   Vijay G. Chilkuri      : MRCI spin determinant printing, contributions to CSF-ICE
   Dipayan Datta          : RHF DLPNO-CCSD density
   Achintya Kumar Dutta   : EOM-CC, STEOM-CC
   Dmitry Ganyushin       : Spin-Orbit,Spin-Spin,Magnetic field MRCI
   Miquel Garcia          : C-PCM and meta-GGA Hessian, CC/C-PCM, Gaussian charge scheme
   Yang Guo               : DLPNO-NEVPT2, F12-NEVPT2, CIM, IAO-localization
   Andreas Hansen         : Spin unrestricted coupled pair/coupled cluster methods
   Benjamin Helmich-Paris : MC-RPA, TRAH-SCF, COSX integrals
   Lee Huntington         : MR-EOM, pCC
   Robert Izsak           : Overlap fitted RIJCOSX, COSX-SCS-MP3, EOM
   Marcus Kettner         : VPT2
   Christian Kollmar      : KDIIS, OOCD, Brueckner-CCSD(T), CCSD density, CASPT2, CASPT2-K
   Simone Kossmann        : Meta GGA functionals, TD-DFT gradient, OOMP2, MP2 Hessian
   Martin Krupicka        : Initial AUTO-CI
   Lucas Lang             : DCDCAS
   Marvin Lechner         : AUTO-CI (C++ implementation), FIC-MRCC
   Dagmar Lenk            : GEPOL surface, SMD
   Dimitrios Liakos       : Extrapolation schemes; Compound Job, initial MDCI parallelization
   Dimitrios Manganas     : Further ROCIS development; embedding schemes
   Dimitrios Pantazis     : SARC Basis sets
   Anastasios Papadopoulos: AUTO-CI, single reference methods and gradients
   Taras Petrenko         : DFT Hessian,TD-DFT gradient, ASA, ECA, R-Raman, ABS, FL, XAS/XES, NRVS
   Peter Pinski           : DLPNO-MP2, DLPNO-MP2 Gradient
   Christoph Reimann      : Effective Core Potentials
   Marius Retegan         : Local ZFS, SOC
   Christoph Riplinger    : Optimizer, TS searches, QM/MM, DLPNO-CCSD(T), (RO)-DLPNO pert. Triples
   Tobias Risthaus        : Range-separated hybrids, TD-DFT gradient, RPA, STAB
   Michael Roemelt        : Original ROCIS implementation
   Masaaki Saitow         : Open-shell DLPNO-CCSD energy and density
   Barbara Sandhoefer     : DKH picture change effects
   Avijit Sen             : IP-ROCIS
   Kantharuban Sivalingam : CASSCF convergence, NEVPT2, FIC-MRCI
   Bernardo de Souza      : ESD, SOC TD-DFT
   Georgi Stoychev        : AutoAux, RI-MP2 NMR, DLPNO-MP2 response
   Willem Van den Heuvel  : Paramagnetic NMR
   Boris Wezisla          : Elementary symmetry handling
   Frank Wennmohs         : Technical directorship


 We gratefully acknowledge several colleagues who have allowed us to
 interface, adapt or use parts of their codes:
   Stefan Grimme, W. Hujo, H. Kruse, P. Pracht,  : VdW corrections, initial TS optimization,
                  C. Bannwarth, S. Ehlert          DFT functionals, gCP, sTDA/sTD-DF
   Ed Valeev, F. Pavosevic, A. Kumar             : LibInt (2-el integral package), F12 methods
   Garnet Chan, S. Sharma, J. Yang, R. Olivares  : DMRG
   Ulf Ekstrom                                   : XCFun DFT Library
   Mihaly Kallay                                 : mrcc  (arbitrary order and MRCC methods)
   Jiri Pittner, Ondrej Demel                    : Mk-CCSD
   Frank Weinhold                                : gennbo (NPA and NBO analysis)
   Christopher J. Cramer and Donald G. Truhlar   : smd solvation model
   Lars Goerigk                                  : TD-DFT with DH, B97 family of functionals
   V. Asgeirsson, H. Jonsson                     : NEB implementation
   FAccTs GmbH                                   : IRC, NEB, NEB-TS, DLPNO-Multilevel, CI-OPT
                                                   MM, QMMM, 2- and 3-layer-ONIOM, Crystal-QMMM,
                                                   LR-CPCM, SF, NACMEs, symmetry and pop. for TD-DFT,
                                                   nearIR, NL-DFT gradient (VV10), updates on ESD,
                                                   ML-optimized integration grids
   S Lehtola, MJT Oliveira, MAL Marques          : LibXC Library
   Liviu Ungur et al                             : ANISO software


 Your calculation uses the libint2 library for the computation of 2-el integrals
 For citations please refer to: http://libint.valeyev.net

 Your ORCA version has been built with support for libXC version: 5.1.0
 For citations please refer to: https://tddft.org/programs/libxc/

 This ORCA versions uses:
   CBLAS   interface :  Fast vector & matrix operations
   LAPACKE interface :  Fast linear algebra routines
   SCALAPACK package :  Parallel linear algebra routines
   Shared memory     :  Shared parallel matrices
   BLAS/LAPACK       :  OpenBLAS 0.3.15  USE64BITINT DYNAMIC_ARCH NO_AFFINITY SkylakeX SINGLE_THREADED
        Core in use  :  SkylakeX
   Copyright (c) 2011-2014, The OpenBLAS Project


Your calculation utilizes the geometrical counterpoise correction gCP
Please cite in your paper:
H.Kruse, S. Grimme J.Chem.Phys., 136, (2012), 154101 
   

Your calculation utilizes the atom-pairwise dispersion correction
with the Becke-Johnson damping scheme (D3BJ)
Cite in your paper:
S.Grimme, S.Ehrlich, L.Goerigk, J Comput Chem, (2011), 32, 1456–1465 
S.Grimme, J.Antony, S.Ehrlich and H.Krieg, J.Chem.Phys., 132, (2010), 154104 
   

Your calculation employs the composite approach PBEh-3c.
Please cite in your paper:
S. Grimme, J. G. Brandenburg, C. Bannwarth, A. Hansen J.Chem.Phys., 143, (2015), 054107 
   

================================================================================

cite the ECPs for Pd [Def2-ECP] as follows:
Ce-Yb(ecp-28): M. Dolg, H. Stoll, H.Preuss, J. Chem. Phys., 1989, 90, 1730-1734.
Y-Cd(ecp-28), Hf-Hg(ecp-46): D. Andrae,U. Haeussermann, M. Dolg, H. Stoll, H. Preuss, Theor. Chim. Acta, 1990, 77, 123-141.
In-Sb(ecp-28), Tl-Bi(ecp-46): B. Metz, H. Stoll, M. Dolg, J. Chem. Phys., 2000, 113, 2563-2569.
Te-Xe(ecp-28), Po-Rn(ecp-46): K. A. Peterson, D. Figgen, E. Goll, H. Stoll, M. Dolg, J. Chem. Phys., 2003, 119, 11113-11123.
Rb(ecp-28), Cs(ecp-46): T. Leininger, A. Nicklass, W. Kuechle, H. Stoll, M. Dolg, A. Bergner, Chem. Phys. Lett., 1996, 255, 274-280.
Sr(ecp-28), Ba(ecp-46): M. Kaupp, P. V. Schleyer, H. Stoll and H. Preuss, J. Chem. Phys., 1991, 94, 1360-1366.
La(ecp-46): M. Dolg, H. Stoll, A. Savin, H. Preuss, Theor. Chim. Acta, 1989, 75, 173-194.
Lu(ecp-28): X. Cao, M. Dolg, J. Chem. Phys., 2001, 115, 7348-7355.

ECP parameters for Pd [Def2-ECP] have been obtained from:
TURBOMOLE (7.0.2)

----- Orbital basis set information -----
Your calculation utilizes the basis: def2-mSVP

----- AuxJ basis set information -----
Your calculation utilizes the auxiliary basis: def2/J
   F. Weigend, Phys. Chem. Chem. Phys. 8, 1057 (2006).

================================================================================
                                        WARNINGS
                       Please study these warnings very carefully!
================================================================================


INFO   : the flag for use of the SHARK integral package has been found!

================================================================================
                                       INPUT FILE
================================================================================
NAME = 8_2_orca.inp
|  1> ! EnGrad PBEh-3c
|  2> %output 
|  3> xyzfile=True 
|  4> end 
|  5> %scf 
|  6> maxiter 250 
|  7> end
|  8> %output
|  9> Print[P_Hirshfeld] = 1
| 10> end
| 11> % maxcore
| 12> 4000
| 13> *xyz 0 1
| 14> C   -1.47358112   0.16452851  -0.65892670 
| 15> C   -2.14847599  -0.88541067  -1.23263702 
| 16> C   -1.84748834  -2.18873773  -0.87692078 
| 17> C   -0.86106279  -2.45711484   0.06730237 
| 18> C   -0.46817499  -0.09722972   0.29809228 
| 19> C   -0.20502182  -1.42631474   0.69640822 
| 20> H   -1.73137051   1.16351657  -1.01660660 
| 21> H   -2.91413105  -0.69298014  -1.96907072 
| 22> H   -2.39800502  -3.00154650  -1.31893764 
| 23> H    0.57062221  -1.67196779   1.42320876 
| 24> H   -0.62434130  -3.47513278   0.32260989 
| 25> Pd   1.41757938   1.06465034  -0.13560240 
| 26> O    3.37657565   1.38435652  -1.09633299 
| 27> O    2.66667740  -0.54561168  -0.38802274 
| 28> O    0.35676268   2.79966607   0.15489775 
| 29> C   -0.07833918   2.89571768   1.32525683 
| 30> O    0.22664515   2.06551075   2.27168184 
| 31> H   -1.08589060   1.39807555   2.85665751 
| 32> C    3.55060417   0.15543327  -0.96288783 
| 33> H    4.46076692  -0.34001304  -1.32276698 
| 34> H   -0.79203371   3.68993599   1.56231682 
| 35> *
| 36> 
| 37>                          ****END OF INPUT****
================================================================================

                     *******************************
                     * Energy+Gradient Calculation *
                     *******************************

---------------------------------
CARTESIAN COORDINATES (ANGSTROEM)
---------------------------------
  C     -1.473581    0.164529   -0.658927
  C     -2.148476   -0.885411   -1.232637
  C     -1.847488   -2.188738   -0.876921
  C     -0.861063   -2.457115    0.067302
  C     -0.468175   -0.097230    0.298092
  C     -0.205022   -1.426315    0.696408
  H     -1.731371    1.163517   -1.016607
  H     -2.914131   -0.692980   -1.969071
  H     -2.398005   -3.001546   -1.318938
  H      0.570622   -1.671968    1.423209
  H     -0.624341   -3.475133    0.322610
  Pd     1.417579    1.064650   -0.135602
  O      3.376576    1.384357   -1.096333
  O      2.666677   -0.545612   -0.388023
  O      0.356763    2.799666    0.154898
  C     -0.078339    2.895718    1.325257
  O      0.226645    2.065511    2.271682
  H     -1.085891    1.398076    2.856658
  C      3.550604    0.155433   -0.962888
  H      4.460767   -0.340013   -1.322767
  H     -0.792034    3.689936    1.562317

----------------------------
CARTESIAN COORDINATES (A.U.)
----------------------------
  NO LB      ZA    FRAG     MASS         X           Y           Z
   0 C     6.0000    0    12.011   -2.784665    0.310914   -1.245191
   1 C     6.0000    0    12.011   -4.060031   -1.673184   -2.329346
   2 C     6.0000    0    12.011   -3.491247   -4.136115   -1.657140
   3 C     6.0000    0    12.011   -1.627173   -4.643274    0.127183
   4 C     6.0000    0    12.011   -0.884723   -0.183738    0.563313
   5 C     6.0000    0    12.011   -0.387435   -2.695344    1.316021
   6 H     1.0000    0     1.008   -3.271816    2.198728   -1.921108
   7 H     1.0000    0     1.008   -5.506910   -1.309543   -3.721004
   8 H     1.0000    0     1.008   -4.531573   -5.672101   -2.492431
   9 H     1.0000    0     1.008    1.078320   -3.159561    2.689475
  10 H     1.0000    0     1.008   -1.179834   -6.567049    0.609644
  11 Pd   18.0000*   0   106.400    2.678837    2.011898   -0.256251
  12 O     8.0000    0    15.999    6.380803    2.616055   -2.071769
  13 O     8.0000    0    15.999    5.039290   -1.031057   -0.733257
  14 O     8.0000    0    15.999    0.674184    5.290602    0.292714
  15 C     6.0000    0    12.011   -0.148040    5.472113    2.504372
  16 O     8.0000    0    15.999    0.428297    3.903250    4.292857
  17 H     1.0000    0     1.008   -2.052036    2.641980    5.398300
  18 C     6.0000    0    12.011    6.709669    0.293726   -1.819594
  19 H     1.0000    0     1.008    8.429628   -0.642532   -2.499667
  20 H     1.0000    0     1.008   -1.496727    6.972968    2.952351
* core charge reduced due to ECP

--------------------------------
INTERNAL COORDINATES (ANGSTROEM)
--------------------------------
 C      0   0   0     0.000000000000     0.00000000     0.00000000
 C      1   0   0     1.373680784799     0.00000000     0.00000000
 C      2   1   0     1.384120310587   120.36713156     0.00000000
 C      3   2   1     1.391624588695   120.67112247     0.14181415
 C      1   2   3     1.412531127195   119.40784677     0.00000000
 C      4   3   2     1.374304468079   120.28583138     2.39060540
 H      1   2   3     1.091955779546   116.51686860   177.45080613
 H      2   1   3     1.079625756582   119.80681881   180.33815824
 H      3   2   1     1.076617674047   119.61626599   178.73181470
 H      6   4   3     1.090966593069   118.38942350   180.67382822
 H      4   3   2     1.075908694899   119.96278437   181.07598985
 Pd     5   1   2     2.257017034331   111.66076213   132.06757600
 O     12   5   1     2.205194253114   154.23383101   273.14163421
 O     12   5   1     2.053510570868    97.36374035   240.94180102
 O     12   5   1     2.054264343140    88.63377198    63.16261564
 C     15  12   5     1.252309832469   112.10813859    62.93617423
 O     16  15  12     1.295368398456   123.49413563     6.75886490
 H     17  16  15     1.584429353338   110.16268141   238.38803704
 C     13  12   5     1.248337250462    86.24719374   324.21957359
 H     19  13  12     1.096985086583   121.68283389   178.59207309
 H     16  15  12     1.093773306015   119.00939638   189.82002889

---------------------------
INTERNAL COORDINATES (A.U.)
---------------------------
 C      0   0   0     0.000000000000     0.00000000     0.00000000
 C      1   0   0     2.595880478700     0.00000000     0.00000000
 C      2   1   0     2.615608323408   120.36713156     0.00000000
 C      3   2   1     2.629789353864   120.67112247     0.14181415
 C      1   2   3     2.669296986037   119.40784677     0.00000000
 C      4   3   2     2.597059069294   120.28583138     2.39060540
 H      1   2   3     2.063497373694   116.51686860   177.45080613
 H      2   1   3     2.040197007068   119.80681881   180.33815824
 H      3   2   1     2.034512554889   119.61626599   178.73181470
 H      6   4   3     2.061628082158   118.38942350   180.67382822
 H      4   3   2     2.033172778463   119.96278437   181.07598985
 Pd     5   1   2     4.265144074481   111.66076213   132.06757600
 O     12   5   1     4.167213210482   154.23383101   273.14163421
 O     12   5   1     3.880572592053    97.36374035   240.94180102
 O     12   5   1     3.881997015214    88.63377198    63.16261564
 C     15  12   5     2.366522618182   112.10813859    62.93617423
 O     16  15  12     2.447891515618   123.49413563     6.75886490
 H     17  16  15     2.994137556355   110.16268141   238.38803704
 C     13  12   5     2.359015526146    86.24719374   324.21957359
 H     19  13  12     2.073001386637   121.68283389   178.59207309
 H     16  15  12     2.066932000961   119.00939638   189.82002889

---------------------
BASIS SET INFORMATION
---------------------
There are 4 groups of distinct atoms

 Group   1 Type C   : 8s4p1d contracted to 4s2p1d pattern {5111/31/1}
 Group   2 Type H   : 4s contracted to 2s pattern {31}
 Group   3 Type Pd  : 7s6p5d1f contracted to 5s3p2d1f pattern {31111/411/41/1}
 Group   4 Type O   : 8s4p1d contracted to 4s2p1d pattern {5111/31/1}

Atom   0C    basis set group =>   1
Atom   1C    basis set group =>   1
Atom   2C    basis set group =>   1
Atom   3C    basis set group =>   1
Atom   4C    basis set group =>   1
Atom   5C    basis set group =>   1
Atom   6H    basis set group =>   2
Atom   7H    basis set group =>   2
Atom   8H    basis set group =>   2
Atom   9H    basis set group =>   2
Atom  10H    basis set group =>   2
Atom  11Pd   basis set group =>   3
Atom  12O    basis set group =>   4
Atom  13O    basis set group =>   4
Atom  14O    basis set group =>   4
Atom  15C    basis set group =>   1
Atom  16O    basis set group =>   4
Atom  17H    basis set group =>   2
Atom  18C    basis set group =>   1
Atom  19H    basis set group =>   2
Atom  20H    basis set group =>   2
---------------------------------
AUXILIARY/J BASIS SET INFORMATION
---------------------------------
There are 4 groups of distinct atoms

 Group   1 Type C   : 12s5p4d2f1g contracted to 6s4p3d1f1g pattern {711111/2111/211/2/1}
 Group   2 Type H   : 5s2p1d contracted to 3s1p1d pattern {311/2/1}
 Group   3 Type Pd  : 11s5p5d3f3g contracted to 8s5p5d2f3g pattern {41111111/11111/11111/21/111}
 Group   4 Type O   : 12s5p4d2f1g contracted to 6s4p3d1f1g pattern {711111/2111/211/2/1}

Atom   0C    basis set group =>   1
Atom   1C    basis set group =>   1
Atom   2C    basis set group =>   1
Atom   3C    basis set group =>   1
Atom   4C    basis set group =>   1
Atom   5C    basis set group =>   1
Atom   6H    basis set group =>   2
Atom   7H    basis set group =>   2
Atom   8H    basis set group =>   2
Atom   9H    basis set group =>   2
Atom  10H    basis set group =>   2
Atom  11Pd   basis set group =>   3
Atom  12O    basis set group =>   4
Atom  13O    basis set group =>   4
Atom  14O    basis set group =>   4
Atom  15C    basis set group =>   1
Atom  16O    basis set group =>   4
Atom  17H    basis set group =>   2
Atom  18C    basis set group =>   1
Atom  19H    basis set group =>   2
Atom  20H    basis set group =>   2
-------------------------
ECP PARAMETER INFORMATION
-------------------------

 Group 1, Type Pd ECP Def2-ECP (replacing 28 core electrons, lmax=3)

Atom  11Pd   ECP group =>   1

------------------------------------------------------------------------------
                           ORCA GTO INTEGRAL CALCULATION
                           -- RI-GTO INTEGRALS CHOSEN --
------------------------------------------------------------------------------
------------------------------------------------------------------------------
                   ___                                                        
                  /   \      - P O W E R E D   B Y -                         
                 /     \                                                     
                 |  |  |   _    _      __       _____    __    __             
                 |  |  |  | |  | |    /  \     |  _  \  |  |  /  |          
                  \  \/   | |  | |   /    \    | | | |  |  | /  /          
                 / \  \   | |__| |  /  /\  \   | |_| |  |  |/  /          
                |  |  |   |  __  | /  /__\  \  |    /   |      \           
                |  |  |   | |  | | |   __   |  |    \   |  |\   \          
                \     /   | |  | | |  |  |  |  | |\  \  |  | \   \       
                 \___/    |_|  |_| |__|  |__|  |_| \__\ |__|  \__/        
                                                                              
                      - O R C A' S   B I G   F R I E N D -                    
                                      &                                       
                       - I N T E G R A L  F E E D E R -                       
                                                                              
 v1 FN, 2020, v2 2021                                                         
------------------------------------------------------------------------------


Reading SHARK input file 8_2_orca.SHARKINP.tmp ... ok
----------------------
SHARK INTEGRAL PACKAGE
----------------------

Number of atoms                             ...     21
Number of basis functions                   ...    227
Number of shells                            ...    111
Maximum angular momentum                    ...      3
Integral batch strategy                     ... SHARK/LIBINT Hybrid
RI-J (if used) integral strategy            ... SPLIT-RIJ (Revised 2003 algorithm where possible)
Printlevel                                  ...      1
Contraction scheme used                     ... SEGMENTED contraction
Coulomb Range Separation                    ... NOT USED
Exchange Range Separation                   ... NOT USED
Finite Nucleus Model                        ... NOT USED
Auxiliary Coulomb fitting basis             ... AVAILABLE
   # of basis functions in Aux-J            ...    765
   # of shells in Aux-J                     ...    243
   Maximum angular momentum in Aux-J        ...      4
Auxiliary J/K fitting basis                 ... NOT available
Auxiliary Correlation fitting basis         ... NOT available
Auxiliary 'external' fitting basis          ... NOT available
Integral threshold                          ...     2.500000e-11
Primitive cut-off                           ...     2.500000e-12
Primitive pair pre-selection threshold      ...     2.500000e-12

Calculating pre-screening integrals         ... done (  0.1 sec) Dimension = 111
Organizing shell pair data                  ... done (  0.0 sec)
Shell pair information
Total number of shell pairs                 ...      6216
Shell pairs after pre-screening             ...      4865
Total number of primitive shell pairs       ...     21723
Primitive shell pairs kept                  ...     11515
          la=0 lb=0:   1685 shell pairs
          la=1 lb=0:   1589 shell pairs
          la=1 lb=1:    359 shell pairs
          la=2 lb=0:    709 shell pairs
          la=2 lb=1:    342 shell pairs
          la=2 lb=2:     84 shell pairs
          la=3 lb=0:     56 shell pairs
          la=3 lb=1:     27 shell pairs
          la=3 lb=2:     13 shell pairs
          la=3 lb=3:      1 shell pairs

Calculating one electron integrals          ... done (  0.0 sec)
Calculating ECP integrals                   ... done (  0.2 sec)
Calculating RI/J V-Matrix + Cholesky decomp.... done (  0.0 sec)
Calculating Nuclear repulsion               ... done (  0.0 sec) ENN=    914.538910638019 Eh

SHARK setup successfully completed in   0.5 seconds

Maximum memory used throughout the entire GTOINT-calculation: 44.8 MB
-------------------------------------------------------------------------------
                                 ORCA SCF
-------------------------------------------------------------------------------

------------
SCF SETTINGS
------------
Hamiltonian:
 Density Functional     Method          .... DFT(GTOs)
 Exchange Functional    Exchange        .... PBE
   PBE kappa parameter   XKappa         ....  1.024500
   PBE mue parameter    XMuePBE         ....  0.123457
 Correlation Functional Correlation     .... PBE
   PBE beta parameter  CBetaPBE         ....  0.030000
 LDA part of GGA corr.  LDAOpt          .... PW91-LDA
 Gradients option       PostSCFGGA      .... off
 Hybrid DFT is turned on
   Fraction HF Exchange ScalHFX         ....  0.420000
   Scaling of DF-GGA-X  ScalDFX         ....  0.580000
   Scaling of DF-GGA-C  ScalDFC         ....  1.000000
   Scaling of DF-LDA-C  ScalLDAC        ....  1.000000
   Perturbative correction              ....  0.000000
   Density functional embedding theory  .... OFF
 RI-approximation to the Coulomb term is turned on
   Number of AuxJ basis functions       .... 765
   RIJ-ON(X) (HFX calculated with O(N)) .... on
   Number of AuxJ basis functions       .... 765
   RIJ-COSX (HFX calculated with COS-X)).... on


General Settings:
 Integral files         IntName         .... 8_2_orca
 Hartree-Fock type      HFTyp           .... RHF
 Total Charge           Charge          ....    0
 Multiplicity           Mult            ....    1
 Number of Electrons    NEL             ....  106
 Basis Dimension        Dim             ....  227
 Nuclear Repulsion      ENuc            ....    914.5389106380 Eh

Convergence Acceleration:
 DIIS                   CNVDIIS         .... on
   Start iteration      DIISMaxIt       ....    12
   Startup error        DIISStart       ....  0.200000
   # of expansion vecs  DIISMaxEq       ....     5
   Bias factor          DIISBfac        ....   1.050
   Max. coefficient     DIISMaxC        ....  10.000
 Trust-Rad. Augm. Hess. CNVTRAH         .... auto
   Auto Start mean grad. ratio tolernc. ....  1.125000
   Auto Start start iteration           ....    20
   Auto Start num. interpolation iter.  ....    10
   Max. Number of Micro iterations      ....    16
   Max. Number of Macro iterations      .... Maxiter - #DIIS iter
   Number of Davidson start vectors     ....     2
   Converg. threshold I  (grad. norm)   ....   1.000e-05
   Converg. threshold II (energy diff.) ....   1.000e-08
   Grad. Scal. Fac. for Micro threshold ....   0.100
   Minimum threshold for Micro iter.    ....   0.010
   NR start threshold (gradient norm)   ....   0.001
   Initial trust radius                 ....   0.400
   Minimum AH scaling param. (alpha)    ....   1.000
   Maximum AH scaling param. (alpha)    .... 1000.000
   Orbital update algorithm             .... Taylor
   White noise on init. David. guess    .... on
   Maximum white noise                  ....   0.010
   Quad. conv. algorithm                .... NR
   COSX micro iterations for RIJONX calc.... off
 SOSCF                  CNVSOSCF        .... off
 Level Shifting         CNVShift        .... on
   Level shift para.    LevelShift      ....    0.2500
   Turn off err/grad.   ShiftErr        ....    0.0010
 Zerner damping         CNVZerner       .... off
 Static damping         CNVDamp         .... on
   Fraction old density DampFac         ....    0.7000
   Max. Damping (<1)    DampMax         ....    0.9800
   Min. Damping (>=0)   DampMin         ....    0.0000
   Turn off err/grad.   DampErr         ....    0.1000
 Fernandez-Rico         CNVRico         .... off

SCF Procedure:
 Maximum # iterations   MaxIter         ....   250
 SCF integral mode      SCFMode         .... Direct
   Integral package                     .... SHARK and LIBINT hybrid scheme
 Reset frequency        DirectResetFreq ....    20
 Integral Threshold     Thresh          ....  2.500e-11 Eh
 Primitive CutOff       TCut            ....  2.500e-12 Eh

Convergence Tolerance:
 Convergence Check Mode ConvCheckMode   .... Total+1el-Energy
 Convergence forced     ConvForced      .... 0
 Energy Change          TolE            ....  1.000e-08 Eh
 1-El. energy change                    ....  1.000e-05 Eh
 DIIS Error             TolErr          ....  5.000e-07


Diagonalization of the overlap matrix:
Smallest eigenvalue                        ... 5.683e-04
Time for diagonalization                   ...    0.008 sec
Threshold for overlap eigenvalues          ... 1.000e-08
Number of eigenvalues below threshold      ... 0
Time for construction of square roots      ...    0.003 sec
Total time needed                          ...    0.011 sec

--------------------------------
INITIAL GUESS: MINIMAL BASIS EHT
--------------------------------
The minimal basis has 81 functions
EHT matrix was diagonalized
Basis set overlap was calculated now projecting the orbitals
Using GuessMode=FMatrix for the initial guess
C*T matrix was formed
Effective Fockian was calculated
Effective Fockian was diagonalized
Initial density was built
                      ------------------
                      INITIAL GUESS DONE
                      ------------------
-------------------
DFT GRID GENERATION
-------------------

General Integration Accuracy     IntAcc      ... 4.159
Radial Grid Type                 RadialGrid  ... OptM3 with GC (2021)
Angular Grid (max. ang.)         AngularGrid ... 3 (Lebedev-194)
Angular grid pruning method      GridPruning ... 4 (adaptive)
Weight generation scheme         WeightScheme... Becke
Basis function cutoff            BFCut       ... 1.0000e-11
Integration weight cutoff        WCut        ... 1.0000e-14
Angular grids for H and He will be reduced by one unit
Partially contracted basis set               ... off
Rotationally invariant grid construction     ... off

Total number of grid points                  ...    56399
Total number of batches                      ...      891
Average number of points per batch           ...       63
Average number of grid points per atom       ...     2686
Time for grid setup =    0.652 sec

--------------------
COSX GRID GENERATION
--------------------

GRIDX 1
-------
General Integration Accuracy     IntAcc      ... 3.816
Radial Grid Type                 RadialGrid  ... OptM3 with GC (2021)
Angular Grid (max. ang.)         AngularGrid ... 1 (Lebedev-50)
Angular grid pruning method      GridPruning ... 4 (adaptive)
Weight generation scheme         WeightScheme... Becke
Basis function cutoff            BFCut       ... 1.0000e-11
Integration weight cutoff        WCut        ... 1.0000e-14
Angular grids for H and He will be reduced by one unit
Partially contracted basis set               ... on
Rotationally invariant grid construction     ... off

Total number of grid points                  ...    13603
Total number of batches                      ...      221
Average number of points per batch           ...       61
Average number of grid points per atom       ...      648
UseSFitting                                  ... on

GRIDX 2
-------
General Integration Accuracy     IntAcc      ... 4.020
Radial Grid Type                 RadialGrid  ... OptM3 with GC (2021)
Angular Grid (max. ang.)         AngularGrid ... 2 (Lebedev-110)
Angular grid pruning method      GridPruning ... 4 (adaptive)
Weight generation scheme         WeightScheme... Becke
Basis function cutoff            BFCut       ... 1.0000e-11
Integration weight cutoff        WCut        ... 1.0000e-14
Angular grids for H and He will be reduced by one unit
Partially contracted basis set               ... on
Rotationally invariant grid construction     ... off

Total number of grid points                  ...    30374
Total number of batches                      ...      484
Average number of points per batch           ...       62
Average number of grid points per atom       ...     1446
UseSFitting                                  ... on

GRIDX 3
-------
General Integration Accuracy     IntAcc      ... 4.338
Radial Grid Type                 RadialGrid  ... OptM3 with GC (2021)
Angular Grid (max. ang.)         AngularGrid ... 3 (Lebedev-194)
Angular grid pruning method      GridPruning ... 4 (adaptive)
Weight generation scheme         WeightScheme... Becke
Basis function cutoff            BFCut       ... 1.0000e-11
Integration weight cutoff        WCut        ... 1.0000e-14
Angular grids for H and He will be reduced by one unit
Partially contracted basis set               ... on
Rotationally invariant grid construction     ... off

Total number of grid points                  ...    66055
Total number of batches                      ...     1043
Average number of points per batch           ...       63
Average number of grid points per atom       ...     3145
UseSFitting                                  ... on

Time for X-Grid setup             =    1.722 sec

--------------
SCF ITERATIONS
--------------
ITER       Energy         Delta-E        Max-DP      RMS-DP      [F,P]     Damp
               ***  Starting incremental Fock matrix formation  ***
  0   -717.7331561069   0.000000000000 5.16178919  0.04235119  5.0142676 0.7000
  1   -714.1912505798   3.541905527111 4.75891481  0.05813624  3.8822499 0.7000
  2   -715.4569581657  -1.265707585894 1.59362906  0.02520571  2.5918799 0.7000
  3   -719.3574722732  -3.900514107477 3.44352912  0.03088944  1.9136943 0.7000
  4   -722.6409148498  -3.283442576685 2.11417533  0.02045113  1.2968726 0.7000
  5   -726.4846068986  -3.843692048714 1.41468652  0.01425630  0.9752558 0.7000
  6   -729.5588448810  -3.074237982470 0.97310649  0.01000010  0.6889170 0.7000
  7   -731.7291781604  -2.170333279421 0.69361904  0.00710749  0.4828402 0.7000
  8   -733.2726419794  -1.543463819002 0.49695515  0.00506195  0.3398504 0.7000
  9   -734.3715372789  -1.098895299436 0.35336776  0.00359677  0.2406718 0.7000
                               ***Turning on DIIS***
 10   -735.1504823019  -0.778945022976 0.24926315  0.00254758  0.1708799 0.7000
 11   -735.7006523925  -0.550170090603 0.17542880  0.00181322  0.1211910 0.7000
 12   -736.0883935738  -0.387741181318 0.40846891  0.00427755  0.0845635 0.0000
 13   -737.0023775626  -0.913983988809 0.00530878  0.00014490  0.0024055 0.0000
 14   -737.0027549436  -0.000377381055 0.00480067  0.00010384  0.0020647 0.0000
 15   -737.0029232842  -0.000168340534 0.00481926  0.00007947  0.0016893 0.0000
 16   -737.0030164332  -0.000093149052 0.00324276  0.00005548  0.0012909 0.0000
 17   -737.0030608693  -0.000044436069 0.00683052  0.00009883  0.0009560 0.0000
               *** Restarting incremental Fock matrix formation ***
                                   *** Resetting DIIS ***
 18   -737.0031465644  -0.000085695155 0.00256746  0.00005540  0.0005560 0.0000
 19   -737.0031507229  -0.000004158423 0.00213843  0.00002174  0.0009252 0.0000
 20   -737.0031553735  -0.000004650671 0.00106366  0.00001330  0.0004144 0.0000
 21   -737.0031568380  -0.000001464492 0.00078938  0.00000716  0.0001786 0.0000
 22   -737.0031573032  -0.000000465149 0.00057535  0.00000570  0.0001068 0.0000
 23   -737.0031574854  -0.000000182229 0.00043403  0.00000357  0.0000615 0.0000
 24   -737.0031575372  -0.000000051838 0.00013781  0.00000134  0.0000308 0.0000
 25   -737.0031575399  -0.000000002626 0.00011451  0.00000086  0.0000188 0.0000
 26   -737.0031575435  -0.000000003586 0.00005294  0.00000040  0.0000092 0.0000
 27   -737.0031575391   0.000000004337 0.00002760  0.00000024  0.0000050 0.0000
                 **** Energy Check signals convergence ****

               *****************************************************
               *                     SUCCESS                       *
               *           SCF CONVERGED AFTER  28 CYCLES          *
               *****************************************************

Old exchange energy                            =    -37.266976038 Eh
New exchange energy                            =    -37.266987397 Eh
Exchange energy change after final integration =     -0.000011359 Eh
Total energy after final integration           =   -737.003168892 Eh
Final COS-X integration done in                =    18.554 sec

----------------
TOTAL SCF ENERGY
----------------

Total Energy       :         -737.00316889 Eh          -20054.87580 eV

Components:
Nuclear Repulsion  :          914.53891064 Eh           24885.86893 eV
Electronic Energy  :        -1651.54207953 Eh          -44940.74473 eV
One Electron Energy:        -2877.26550396 Eh          -78294.37477 eV
Two Electron Energy:         1225.72342443 Eh           33353.63004 eV
Max COSX asymmetry :            0.00003344 Eh               0.00091 eV

Virial components:
Potential Energy   :        -1389.29382008 Eh          -37804.60679 eV
Kinetic Energy     :          652.29065119 Eh           17749.73100 eV
Virial Ratio       :            2.12986928


DFT components:
N(Alpha)           :       53.000105731405 electrons
N(Beta)            :       53.000105731405 electrons
N(Total)           :      106.000211462811 electrons
E(X)               :      -49.844143217691 Eh       
E(C)               :       -4.836187174643 Eh       
E(XC)              :      -54.680330392335 Eh       
DFET-embed. en.    :        0.000000000000 Eh       

---------------
SCF CONVERGENCE
---------------

  Last Energy change         ...    5.7428e-09  Tolerance :   1.0000e-08
  Last MAX-Density change    ...    0.0000e+00  Tolerance :   1.0000e-07
  Last RMS-Density change    ...    0.0000e+00  Tolerance :   5.0000e-09
  Last DIIS Error            ...    2.9045e-06  Tolerance :   5.0000e-07

             **** THE GBW FILE WAS UPDATED (8_2_orca.gbw) ****
             **** DENSITY 8_2_orca.scfp WAS UPDATED ****
             **** ENERGY FILE WAS UPDATED (8_2_orca.en.tmp) ****
             **** THE GBW FILE WAS UPDATED (8_2_orca.gbw) ****
             **** DENSITY 8_2_orca.scfp WAS UPDATED ****
----------------
ORBITAL ENERGIES
----------------

  NO   OCC          E(Eh)            E(eV) 
   0   2.0000     -19.589512      -533.0577 
   1   2.0000     -19.568026      -532.4730 
   2   2.0000     -19.495891      -530.5102 
   3   2.0000     -19.484532      -530.2011 
   4   2.0000     -10.626778      -289.1693 
   5   2.0000     -10.556679      -287.2618 
   6   2.0000     -10.459891      -284.6281 
   7   2.0000     -10.446333      -284.2592 
   8   2.0000     -10.443253      -284.1754 
   9   2.0000     -10.441942      -284.1397 
  10   2.0000     -10.440578      -284.1026 
  11   2.0000     -10.440022      -284.0875 
  12   2.0000      -3.645411       -99.1967 
  13   2.0000      -2.294324       -62.4317 
  14   2.0000      -2.286845       -62.2282 
  15   2.0000      -2.258048       -61.4446 
  16   2.0000      -1.243440       -33.8357 
  17   2.0000      -1.191276       -32.4163 
  18   2.0000      -1.150751       -31.3135 
  19   2.0000      -1.078772       -29.3549 
  20   2.0000      -0.947384       -25.7796 
  21   2.0000      -0.835941       -22.7471 
  22   2.0000      -0.816816       -22.2267 
  23   2.0000      -0.725977       -19.7548 
  24   2.0000      -0.669360       -18.2142 
  25   2.0000      -0.664409       -18.0795 
  26   2.0000      -0.662405       -18.0249 
  27   2.0000      -0.623740       -16.9728 
  28   2.0000      -0.592006       -16.1093 
  29   2.0000      -0.576125       -15.6772 
  30   2.0000      -0.555897       -15.1267 
  31   2.0000      -0.548433       -14.9236 
  32   2.0000      -0.521754       -14.1976 
  33   2.0000      -0.504975       -13.7411 
  34   2.0000      -0.502973       -13.6866 
  35   2.0000      -0.493548       -13.4301 
  36   2.0000      -0.479159       -13.0386 
  37   2.0000      -0.447102       -12.1663 
  38   2.0000      -0.438826       -11.9411 
  39   2.0000      -0.434139       -11.8135 
  40   2.0000      -0.420434       -11.4406 
  41   2.0000      -0.414145       -11.2695 
  42   2.0000      -0.392395       -10.6776 
  43   2.0000      -0.380519       -10.3545 
  44   2.0000      -0.366244        -9.9660 
  45   2.0000      -0.359442        -9.7809 
  46   2.0000      -0.344819        -9.3830 
  47   2.0000      -0.327694        -8.9170 
  48   2.0000      -0.311264        -8.4699 
  49   2.0000      -0.303422        -8.2565 
  50   2.0000      -0.290993        -7.9183 
  51   2.0000      -0.282442        -7.6856 
  52   2.0000      -0.257412        -7.0045 
  53   0.0000      -0.140837        -3.8324 
  54   0.0000      -0.055340        -1.5059 
  55   0.0000      -0.006874        -0.1870 
  56   0.0000       0.026981         0.7342 
  57   0.0000       0.028055         0.7634 
  58   0.0000       0.052773         1.4360 
  59   0.0000       0.069250         1.8844 
  60   0.0000       0.077312         2.1038 
  61   0.0000       0.101427         2.7600 
  62   0.0000       0.117922         3.2088 
  63   0.0000       0.159325         4.3355 
  64   0.0000       0.175320         4.7707 
  65   0.0000       0.192961         5.2507 
  66   0.0000       0.206381         5.6159 
  67   0.0000       0.209848         5.7103 
  68   0.0000       0.223939         6.0937 
  69   0.0000       0.232459         6.3255 
  70   0.0000       0.252010         6.8575 
  71   0.0000       0.261017         7.1026 
  72   0.0000       0.290341         7.9006 
  73   0.0000       0.315167         8.5761 
  74   0.0000       0.320504         8.7214 
  75   0.0000       0.336042         9.1442 
  76   0.0000       0.345747         9.4083 
  77   0.0000       0.350870         9.5477 
  78   0.0000       0.359227         9.7751 
  79   0.0000       0.392013        10.6672 
  80   0.0000       0.434444        11.8218 
  81   0.0000       0.446268        12.1436 
  82   0.0000       0.466885        12.7046 
  83   0.0000       0.481761        13.1094 
  84   0.0000       0.506530        13.7834 
  85   0.0000       0.515336        14.0230 
  86   0.0000       0.525448        14.2982 
  87   0.0000       0.538541        14.6544 
  88   0.0000       0.557416        15.1681 
  89   0.0000       0.577699        15.7200 
  90   0.0000       0.594741        16.1837 
  91   0.0000       0.596565        16.2334 
  92   0.0000       0.604439        16.4476 
  93   0.0000       0.613910        16.7053 
  94   0.0000       0.617845        16.8124 
  95   0.0000       0.630834        17.1659 
  96   0.0000       0.635192        17.2845 
  97   0.0000       0.637032        17.3345 
  98   0.0000       0.647374        17.6159 
  99   0.0000       0.664856        18.0916 
 100   0.0000       0.673275        18.3207 
 101   0.0000       0.688609        18.7380 
 102   0.0000       0.711986        19.3741 
 103   0.0000       0.727856        19.8060 
 104   0.0000       0.751663        20.4538 
 105   0.0000       0.773537        21.0490 
 106   0.0000       0.785022        21.3615 
 107   0.0000       0.793579        21.5944 
 108   0.0000       0.813307        22.1312 
 109   0.0000       0.834429        22.7060 
 110   0.0000       0.866620        23.5819 
 111   0.0000       0.889131        24.1945 
 112   0.0000       0.908245        24.7146 
 113   0.0000       0.917239        24.9593 
 114   0.0000       0.931251        25.3406 
 115   0.0000       0.951576        25.8937 
 116   0.0000       0.963759        26.2252 
 117   0.0000       0.974325        26.5127 
 118   0.0000       0.976984        26.5851 
 119   0.0000       0.983041        26.7499 
 120   0.0000       1.016007        27.6470 
 121   0.0000       1.038315        28.2540 
 122   0.0000       1.056271        28.7426 
 123   0.0000       1.063277        28.9332 
 124   0.0000       1.078363        29.3438 
 125   0.0000       1.088730        29.6258 
 126   0.0000       1.107976        30.1496 
 127   0.0000       1.120314        30.4853 
 128   0.0000       1.151121        31.3236 
 129   0.0000       1.154814        31.4241 
 130   0.0000       1.166208        31.7341 
 131   0.0000       1.178732        32.0749 
 132   0.0000       1.194371        32.5005 
 133   0.0000       1.216594        33.1052 
 134   0.0000       1.234306        33.5872 
 135   0.0000       1.253519        34.1100 
 136   0.0000       1.273603        34.6565 
 137   0.0000       1.294510        35.2254 
 138   0.0000       1.326370        36.0924 
 139   0.0000       1.347539        36.6684 
 140   0.0000       1.410507        38.3819 
 141   0.0000       1.455334        39.6017 
 142   0.0000       1.466391        39.9025 
 143   0.0000       1.484624        40.3987 
 144   0.0000       1.505764        40.9739 
 145   0.0000       1.524654        41.4879 
 146   0.0000       1.555773        42.3347 
 147   0.0000       1.560625        42.4668 
 148   0.0000       1.568027        42.6682 
 149   0.0000       1.590275        43.2736 
 150   0.0000       1.602378        43.6029 
 151   0.0000       1.746820        47.5334 
 152   0.0000       1.761624        47.9362 
 153   0.0000       1.773740        48.2659 
 154   0.0000       1.796465        48.8843 
 155   0.0000       1.834408        49.9168 
 156   0.0000       1.837779        50.0085 
 157   0.0000       1.847530        50.2739 
 158   0.0000       1.853311        50.4312 
 159   0.0000       1.862874        50.6914 
 160   0.0000       1.876226        51.0547 
 161   0.0000       1.890935        51.4550 
 162   0.0000       1.905828        51.8602 
 163   0.0000       1.938810        52.7577 
 164   0.0000       1.952719        53.1362 
 165   0.0000       1.984462        54.0000 
 166   0.0000       1.998954        54.3943 
 167   0.0000       2.026764        55.1510 
 168   0.0000       2.045360        55.6571 
 169   0.0000       2.053619        55.8818 
 170   0.0000       2.065020        56.1920 
 171   0.0000       2.090127        56.8752 
 172   0.0000       2.149851        58.5004 
 173   0.0000       2.155845        58.6635 
 174   0.0000       2.184279        59.4373 
 175   0.0000       2.201732        59.9122 
 176   0.0000       2.214791        60.2675 
 177   0.0000       2.231813        60.7307 
 178   0.0000       2.236314        60.8532 
 179   0.0000       2.263387        61.5899 
 180   0.0000       2.301064        62.6151 
 181   0.0000       2.369529        64.4782 
 182   0.0000       2.373586        64.5885 
 183   0.0000       2.392081        65.0918 
 184   0.0000       2.400723        65.3270 
 185   0.0000       2.451049        66.6964 
 186   0.0000       2.453391        66.7602 
 187   0.0000       2.468995        67.1848 
 188   0.0000       2.481409        67.5226 
 189   0.0000       2.487486        67.6879 
 190   0.0000       2.519082        68.5477 
 191   0.0000       2.536759        69.0287 
 192   0.0000       2.564937        69.7955 
 193   0.0000       2.575669        70.0875 
 194   0.0000       2.610974        71.0482 
 195   0.0000       2.629912        71.5635 
 196   0.0000       2.658440        72.3398 
 197   0.0000       2.717035        73.9343 
 198   0.0000       2.718790        73.9820 
 199   0.0000       2.735856        74.4464 
 200   0.0000       2.754682        74.9587 
 201   0.0000       2.783220        75.7353 
 202   0.0000       2.786050        75.8123 
 203   0.0000       2.805598        76.3442 
 204   0.0000       2.815991        76.6270 
 205   0.0000       2.835909        77.1690 
 206   0.0000       2.893206        78.7281 
 207   0.0000       2.947761        80.2127 
 208   0.0000       2.978404        81.0465 
 209   0.0000       3.008374        81.8620 
 210   0.0000       3.045361        82.8685 
 211   0.0000       3.092858        84.1610 
 212   0.0000       3.154358        85.8345 
 213   0.0000       3.449406        93.8631 
 214   0.0000      13.279618       361.3568 
 215   0.0000      13.638685       371.1275 
 216   0.0000      13.708138       373.0174 
 217   0.0000      13.814160       375.9024 
 218   0.0000      13.909722       378.5028 
 219   0.0000      14.131869       384.5477 
 220   0.0000      14.150954       385.0670 
 221   0.0000      14.540961       395.6797 
 222   0.0000      25.434356       692.1040 
 223   0.0000      25.585254       696.2101 
 224   0.0000      25.657616       698.1792 
 225   0.0000      25.755190       700.8344 
 226   0.0000      51.582961      1403.6437 

                    ********************************
                    * MULLIKEN POPULATION ANALYSIS *
                    ********************************

-----------------------
MULLIKEN ATOMIC CHARGES
-----------------------
   0 C :   -0.227796
   1 C :   -0.209361
   2 C :   -0.228402
   3 C :   -0.208819
   4 C :   -0.209174
   5 C :   -0.226411
   6 H :    0.227524
   7 H :    0.217815
   8 H :    0.218388
   9 H :    0.242042
  10 H :    0.219194
  11 Pd:    0.379572
  12 O :   -0.465356
  13 O :   -0.478872
  14 O :   -0.397199
  15 C :    0.392814
  16 O :   -0.409873
  17 H :    0.363549
  18 C :    0.390927
  19 H :    0.187620
  20 H :    0.221819
Sum of atomic charges:   -0.0000000

--------------------------------
MULLIKEN REDUCED ORBITAL CHARGES
--------------------------------
  0 C s       :     3.242155  s :     3.242155
      pz      :     0.953358  p :     2.944649
      px      :     0.944260
      py      :     1.047031
      dz2     :     0.006792  d :     0.040992
      dxz     :     0.005634
      dyz     :     0.009113
      dx2y2   :     0.010147
      dxy     :     0.009306
  1 C s       :     3.231382  s :     3.231382
      pz      :     1.014052  p :     2.937002
      px      :     1.019237
      py      :     0.903714
      dz2     :     0.004568  d :     0.040977
      dxz     :     0.007408
      dyz     :     0.009339
      dx2y2   :     0.010165
      dxy     :     0.009497
  2 C s       :     3.246739  s :     3.246739
      pz      :     0.978134  p :     2.941632
      px      :     0.975095
      py      :     0.988404
      dz2     :     0.006164  d :     0.040031
      dxz     :     0.005575
      dyz     :     0.009254
      dx2y2   :     0.008233
      dxy     :     0.010805
  3 C s       :     3.236857  s :     3.236857
      pz      :     0.954571  p :     2.931255
      px      :     0.948369
      py      :     1.028315
      dz2     :     0.007976  d :     0.040707
      dxz     :     0.006021
      dyz     :     0.007934
      dx2y2   :     0.010946
      dxy     :     0.007830
  4 C s       :     3.355746  s :     3.355746
      pz      :     0.920398  p :     2.817431
      px      :     0.943273
      py      :     0.953760
      dz2     :     0.006179  d :     0.035997
      dxz     :     0.007130
      dyz     :     0.005827
      dx2y2   :     0.010413
      dxy     :     0.006448
  5 C s       :     3.250489  s :     3.250489
      pz      :     1.017048  p :     2.935098
      px      :     1.007387
      py      :     0.910663
      dz2     :     0.004920  d :     0.040823
      dxz     :     0.007222
      dyz     :     0.009565
      dx2y2   :     0.009543
      dxy     :     0.009572
  6 H s       :     0.772476  s :     0.772476
  7 H s       :     0.782185  s :     0.782185
  8 H s       :     0.781612  s :     0.781612
  9 H s       :     0.757958  s :     0.757958
 10 H s       :     0.780806  s :     0.780806
 11 Pds       :     2.527220  s :     2.527220
      pz      :     2.065698  p :     6.306874
      px      :     2.128147
      py      :     2.113030
      dz2     :     1.923895  d :     8.782871
      dxz     :     1.926884
      dyz     :     1.933300
      dx2y2   :     1.718114
      dxy     :     1.280678
      f0      :     0.000284  f :     0.003462
      f+1     :     0.000310
      f-1     :     0.000366
      f+2     :     0.000300
      f-2     :     0.000386
      f+3     :     0.001128
      f-3     :     0.000690
 12 O s       :     3.807966  s :     3.807966
      pz      :     1.604032  p :     4.628681
      px      :     1.655022
      py      :     1.369627
      dz2     :     0.003248  d :     0.028709
      dxz     :     0.001228
      dyz     :     0.008743
      dx2y2   :     0.008991
      dxy     :     0.006499
 13 O s       :     3.815548  s :     3.815548
      pz      :     1.565068  p :     4.633587
      px      :     1.436063
      py      :     1.632457
      dz2     :     0.005176  d :     0.029737
      dxz     :     0.004813
      dyz     :     0.005772
      dx2y2   :     0.005310
      dxy     :     0.008665
 14 O s       :     3.811214  s :     3.811214
      pz      :     1.375748  p :     4.555148
      px      :     1.512332
      py      :     1.667068
      dz2     :     0.010787  d :     0.030838
      dxz     :     0.008493
      dyz     :     0.006899
      dx2y2   :     0.002555
      dxy     :     0.002103
 15 C s       :     3.065519  s :     3.065519
      pz      :     0.778330  p :     2.413138
      px      :     0.809698
      py      :     0.825110
      dz2     :     0.043357  d :     0.128529
      dxz     :     0.026461
      dyz     :     0.037282
      dx2y2   :     0.007665
      dxy     :     0.013763
 16 O s       :     3.837411  s :     3.837411
      pz      :     1.538245  p :     4.547568
      px      :     1.440794
      py      :     1.568529
      dz2     :     0.004951  d :     0.024894
      dxz     :     0.004882
      dyz     :     0.006617
      dx2y2   :     0.005411
      dxy     :     0.003032
 17 H s       :     0.636451  s :     0.636451
 18 C s       :     3.049713  s :     3.049713
      pz      :     0.750087  p :     2.422474
      px      :     0.856604
      py      :     0.815783
      dz2     :     0.013741  d :     0.136887
      dxz     :     0.011605
      dyz     :     0.030626
      dx2y2   :     0.036748
      dxy     :     0.044168
 19 H s       :     0.812380  s :     0.812380
 20 H s       :     0.778181  s :     0.778181


                     *******************************
                     * LOEWDIN POPULATION ANALYSIS *
                     *******************************

----------------------
LOEWDIN ATOMIC CHARGES
----------------------
   0 C :   -0.128039
   1 C :   -0.137882
   2 C :   -0.131177
   3 C :   -0.132093
   4 C :   -0.058774
   5 C :   -0.109794
   6 H :    0.145067
   7 H :    0.134523
   8 H :    0.134741
   9 H :    0.152549
  10 H :    0.135997
  11 Pd:   -0.297047
  12 O :   -0.192131
  13 O :   -0.166182
  14 O :   -0.065251
  15 C :    0.163644
  16 O :   -0.190581
  17 H :    0.362170
  18 C :    0.145373
  19 H :    0.111415
  20 H :    0.123472

-------------------------------
LOEWDIN REDUCED ORBITAL CHARGES
-------------------------------
  0 C s       :     2.885399  s :     2.885399
      pz      :     1.028416  p :     3.149339
      px      :     1.039966
      py      :     1.080957
      dz2     :     0.014395  d :     0.093301
      dxz     :     0.014518
      dyz     :     0.020594
      dx2y2   :     0.022582
      dxy     :     0.021212
  1 C s       :     2.886570  s :     2.886570
      pz      :     1.029324  p :     3.156928
      px      :     1.032327
      py      :     1.095276
      dz2     :     0.010111  d :     0.094384
      dxz     :     0.012795
      dyz     :     0.022207
      dx2y2   :     0.025801
      dxy     :     0.023469
  2 C s       :     2.889851  s :     2.889851
      pz      :     1.029033  p :     3.150472
      px      :     1.036275
      py      :     1.085164
      dz2     :     0.013023  d :     0.090854
      dxz     :     0.012268
      dyz     :     0.021396
      dx2y2   :     0.020012
      dxy     :     0.024156
  3 C s       :     2.888322  s :     2.888322
      pz      :     1.034036  p :     3.150648
      px      :     1.037268
      py      :     1.079345
      dz2     :     0.017030  d :     0.093122
      dxz     :     0.015189
      dyz     :     0.018460
      dx2y2   :     0.023848
      dxy     :     0.018595
  4 C s       :     2.924508  s :     2.924508
      pz      :     0.988249  p :     3.054559
      px      :     1.007467
      py      :     1.058843
      dz2     :     0.012517  d :     0.079707
      dxz     :     0.015943
      dyz     :     0.012780
      dx2y2   :     0.022656
      dxy     :     0.015810
  5 C s       :     2.886786  s :     2.886786
      pz      :     1.025942  p :     3.130292
      px      :     1.016038
      py      :     1.088311
      dz2     :     0.010360  d :     0.092715
      dxz     :     0.012238
      dyz     :     0.022940
      dx2y2   :     0.024661
      dxy     :     0.022516
  6 H s       :     0.854933  s :     0.854933
  7 H s       :     0.865477  s :     0.865477
  8 H s       :     0.865259  s :     0.865259
  9 H s       :     0.847451  s :     0.847451
 10 H s       :     0.864003  s :     0.864003
 11 Pds       :     2.527126  s :     2.527126
      pz      :     2.117329  p :     6.638422
      px      :     2.281605
      py      :     2.239488
      dz2     :     1.978539  d :     9.126810
      dxz     :     1.973035
      dyz     :     1.960530
      dx2y2   :     1.791353
      dxy     :     1.423353
      f0      :     0.000361  f :     0.004689
      f+1     :     0.000399
      f-1     :     0.000524
      f+2     :     0.000412
      f-2     :     0.000494
      f+3     :     0.001628
      f-3     :     0.000872
 12 O s       :     3.486521  s :     3.486521
      pz      :     1.570350  p :     4.650459
      px      :     1.624197
      py      :     1.455912
      dz2     :     0.006964  d :     0.055151
      dxz     :     0.002149
      dyz     :     0.012625
      dx2y2   :     0.020318
      dxy     :     0.013096
 13 O s       :     3.470361  s :     3.470361
      pz      :     1.549057  p :     4.638202
      px      :     1.464759
      py      :     1.624385
      dz2     :     0.007522  d :     0.057619
      dxz     :     0.011380
      dyz     :     0.009615
      dx2y2   :     0.011560
      dxy     :     0.017542
 14 O s       :     3.456403  s :     3.456403
      pz      :     1.445215  p :     4.548102
      px      :     1.483784
      py      :     1.619103
      dz2     :     0.022632  d :     0.060747
      dxz     :     0.016290
      dyz     :     0.012687
      dx2y2   :     0.004992
      dxy     :     0.004145
 15 C s       :     2.869731  s :     2.869731
      pz      :     0.939329  p :     2.684613
      px      :     0.846200
      py      :     0.899084
      dz2     :     0.100248  d :     0.282012
      dxz     :     0.056112
      dyz     :     0.084776
      dx2y2   :     0.014858
      dxy     :     0.026018
 16 O s       :     3.571290  s :     3.571290
      pz      :     1.550740  p :     4.571574
      px      :     1.425539
      py      :     1.595294
      dz2     :     0.009246  d :     0.047717
      dxz     :     0.008778
      dyz     :     0.015026
      dx2y2   :     0.007559
      dxy     :     0.007108
 17 H s       :     0.637830  s :     0.637830
 18 C s       :     2.854326  s :     2.854326
      pz      :     0.781007  p :     2.699250
      px      :     0.952131
      py      :     0.966112
      dz2     :     0.029482  d :     0.301051
      dxz     :     0.023978
      dyz     :     0.066884
      dx2y2   :     0.083206
      dxy     :     0.097502
 19 H s       :     0.888585  s :     0.888585
 20 H s       :     0.876528  s :     0.876528


                      *****************************
                      * MAYER POPULATION ANALYSIS *
                      *****************************

  NA   - Mulliken gross atomic population
  ZA   - Total nuclear charge
  QA   - Mulliken gross atomic charge
  VA   - Mayer's total valence
  BVA  - Mayer's bonded valence
  FA   - Mayer's free valence

  ATOM       NA         ZA         QA         VA         BVA        FA
  0 C      6.2278     6.0000    -0.2278     3.7860     3.7860    -0.0000
  1 C      6.2094     6.0000    -0.2094     3.8240     3.8240     0.0000
  2 C      6.2284     6.0000    -0.2284     3.8282     3.8282    -0.0000
  3 C      6.2088     6.0000    -0.2088     3.8172     3.8172    -0.0000
  4 C      6.2092     6.0000    -0.2092     3.7362     3.7362    -0.0000
  5 C      6.2264     6.0000    -0.2264     3.8232     3.8232    -0.0000
  6 H      0.7725     1.0000     0.2275     0.9089     0.9089    -0.0000
  7 H      0.7822     1.0000     0.2178     0.9101     0.9101    -0.0000
  8 H      0.7816     1.0000     0.2184     0.9109     0.9109    -0.0000
  9 H      0.7580     1.0000     0.2420     0.9015     0.9015    -0.0000
 10 H      0.7808     1.0000     0.2192     0.9098     0.9098    -0.0000
 11 Pd    17.6204    18.0000     0.3796     2.4131     2.4131    -0.0000
 12 O      8.4654     8.0000    -0.4654     2.1612     2.1612    -0.0000
 13 O      8.4789     8.0000    -0.4789     2.1677     2.1677    -0.0000
 14 O      8.3972     8.0000    -0.3972     2.2582     2.2582    -0.0000
 15 C      5.6072     6.0000     0.3928     3.9217     3.9217    -0.0000
 16 O      8.4099     8.0000    -0.4099     2.1420     2.1420     0.0000
 17 H      0.6365     1.0000     0.3635     0.8635     0.8635    -0.0000
 18 C      5.6091     6.0000     0.3909     3.9282     3.9282    -0.0000
 19 H      0.8124     1.0000     0.1876     0.9143     0.9143     0.0000
 20 H      0.7782     1.0000     0.2218     0.8997     0.8997    -0.0000

  Mayer bond orders larger than 0.100000
B(  0-C ,  1-C ) :   1.4302 B(  0-C ,  4-C ) :   1.3547 B(  0-C ,  6-H ) :   0.9086 
B(  1-C ,  2-C ) :   1.4326 B(  1-C ,  7-H ) :   0.9163 B(  2-C ,  3-C ) :   1.4128 
B(  2-C ,  8-H ) :   0.9195 B(  3-C ,  5-C ) :   1.4435 B(  3-C , 10-H ) :   0.9162 
B(  4-C ,  5-C ) :   1.3791 B(  4-C , 11-Pd) :   0.7787 B(  5-C ,  9-H ) :   0.9063 
B( 11-Pd, 12-O ) :   0.3912 B( 11-Pd, 13-O ) :   0.5550 B( 11-Pd, 14-O ) :   0.4225 
B( 12-O , 13-O ) :   0.1150 B( 12-O , 18-C ) :   1.5781 B( 13-O , 18-C ) :   1.4332 
B( 14-O , 15-C ) :   1.6538 B( 15-C , 16-O ) :   1.3354 B( 15-C , 20-H ) :   0.8736 
B( 16-O , 17-H ) :   0.6254 B( 18-C , 19-H ) :   0.8851 


------------------
HIRSHFELD ANALYSIS
------------------

Total integrated alpha density =     53.000105732
Total integrated beta density  =     53.000105732

  ATOM     CHARGE      SPIN    
   0 C   -0.070867    0.000000
   1 C   -0.050204    0.000000
   2 C   -0.043207    0.000000
   3 C   -0.043816    0.000000
   4 C   -0.137836    0.000000
   5 C   -0.054900    0.000000
   6 H    0.032557    0.000000
   7 H    0.041680    0.000000
   8 H    0.041778    0.000000
   9 H    0.042257    0.000000
  10 H    0.043326    0.000000
  11 Pd   0.505213    0.000000
  12 O   -0.343057    0.000000
  13 O   -0.316520    0.000000
  14 O   -0.234916    0.000000
  15 C    0.217099    0.000000
  16 O   -0.225573    0.000000
  17 H    0.283561    0.000000
  18 C    0.180517    0.000000
  19 H    0.061965    0.000000
  20 H    0.070730    0.000000

  TOTAL  -0.000211    0.000000

-------
TIMINGS
-------

Total SCF time: 0 days 0 hours 3 min 29 sec 

Total time                  ....     209.879 sec
Sum of individual times     ....     209.612 sec  ( 99.9%)

Fock matrix formation       ....     206.293 sec  ( 98.3%)
  Split-RI-J                ....      19.525 sec  (  9.5% of F)
  Chain of spheres X        ....     166.228 sec  ( 80.6% of F)
  XC integration            ....      20.498 sec  (  9.9% of F)
    Basis function eval.    ....       8.214 sec  ( 40.1% of XC)
    Density eval.           ....       4.882 sec  ( 23.8% of XC)
    XC-Functional eval.     ....       1.884 sec  (  9.2% of XC)
    XC-Potential eval.      ....       4.882 sec  ( 23.8% of XC)
Diagonalization             ....       0.264 sec  (  0.1%)
Density matrix formation    ....       0.028 sec  (  0.0%)
Population analysis         ....       0.532 sec  (  0.3%)
Initial guess               ....       0.025 sec  (  0.0%)
Orbital Transformation      ....       0.000 sec  (  0.0%)
Orbital Orthonormalization  ....       0.000 sec  (  0.0%)
DIIS solution               ....       0.096 sec  (  0.0%)
Grid generation             ....       2.374 sec  (  1.1%)

Maximum memory used throughout the entire SCF-calculation: 111.1 MB


-------------------------------------------------------------------------------
                          DFT DISPERSION CORRECTION                            
                                                                               
                              DFTD3 V3.1  Rev 1                                
                          USING Becke-Johnson damping                          
-------------------------------------------------------------------------------
The PBEh-3c composite method is recognized
Using three-body term ABC
Active option DFTDOPT                   ...         4   

molecular C6(AA) [au] = 7086.925929 


            DFT-D V3
 parameters
 s6 scaling factor         :     1.0000 
 a1 scaling factor         :     0.4860 
 s8 scaling factor         :     0.0000 
 a2 scaling factor         :     4.5000 
 Damping factor alpha9(ATM):    16.0000 
 ad hoc parameters k1-k3   :    16.0000     1.3333    -4.0000 

 Edisp/kcal,au: -8.343729211512  -0.013296577448 
 E6   /kcal   :  -8.401061554 
 E8   /kcal   :  -0.000000000 
 E6(ABC)      :   0.057332342 
 % E8         :   0.000000000 
 % E6(ABC)    :  -0.687130905 

-------------------------   ----------------
Dispersion correction           -0.013296577
-------------------------   ----------------

 ** NOTE ** -> element pd will be treated as ni
------------------   -----------------
gCP correction             0.049454966
------------------   -----------------

-------------------------   --------------------
FINAL SINGLE POINT ENERGY      -736.967010503983
-------------------------   --------------------

------------------------------------------------------------------------------
                         ORCA SCF GRADIENT CALCULATION
------------------------------------------------------------------------------

 ... reading COSX grid (gridx3)
Gradient of the Kohn-Sham DFT energy:
Kohn-Sham wavefunction type      ... RKS
Hartree-Fock exchange scaling    ...    0.420
Number of operators              ...    1
Number of atoms                  ...   21
Basis set dimensions             ...  227
Integral neglect threshold       ... 2.5e-11
Integral primitive cutoff        ... 2.5e-12
SHARK Integral package           ... ON

Nuc. rep. gradient       (SHARK) ... done (  0.0 sec)
HCore & Overlap gradient (SHARK) ... done (  0.4 sec)
ECP gradient             (SHARK) ... done (  1.1 sec)
RI-J gradient            (SHARK) ... done (  2.8 sec)
COSX-gradient                    ... done ( 22.8 sec)
Exchange-correlation gradient    ... done
Dispersion correction            ... done
gCP correction                   ... done

------------------
CARTESIAN GRADIENT
------------------

   1   C   :   -0.014445694   -0.007671530   -0.013620239
   2   C   :    0.010044190    0.011437695   -0.000914377
   3   C   :   -0.001681657    0.002450936   -0.002213535
   4   C   :    0.015845641    0.002638887    0.000529036
   5   C   :   -0.035109437   -0.009841277    0.021627088
   6   C   :   -0.005976101   -0.020466171    0.002292590
   7   H   :   -0.008137697    0.002549421   -0.004996197
   8   H   :    0.001953542   -0.000091777    0.001874764
   9   H   :   -0.000013940    0.003646585    0.003834622
  10   H   :    0.002218191   -0.005691501    0.004926801
  11   H   :   -0.000200299    0.005145289   -0.001283802
  12   Pd  :    0.030706510    0.024010634   -0.010954442
  13   O   :   -0.002808667    0.001911381   -0.000931219
  14   O   :    0.004307714   -0.001760718    0.003558432
  15   O   :    0.007824223   -0.000825443   -0.040777464
  16   C   :    0.003438392    0.010911286    0.028268936
  17   O   :    0.064794775    0.033258890   -0.028329265
  18   H   :   -0.075462747   -0.039854124    0.039277637
  19   C   :    0.007495445   -0.005588045   -0.005411024
  20   H   :   -0.001238425   -0.000375461    0.001149853
  21   H   :   -0.001515436   -0.004148373    0.002686574

Difference to translation invariance:
           :    0.0020385233    0.0016465835    0.0005947713

Difference to rotation invariance:
           :    0.0062796195   -0.0041060876    0.0044460170

Norm of the cartesian gradient     ...    0.1511870747
RMS gradient                       ...    0.0190477810
MAX gradient                       ...    0.0754627466

-------
TIMINGS
-------

Total SCF gradient time            ...       32.081 sec

One electron gradient       ....       1.493 sec  (  4.7%)
RI-J Coulomb gradient       ....       2.778 sec  (  8.7%)
COSX gradient               ....      22.803 sec  ( 71.1%)
XC gradient                 ....       4.153 sec  ( 12.9%)

Maximum memory used throughout the entire SCFGRAD-calculation: 83.0 MB

                            ***************************************
                            *     ORCA property calculations      *
                            ***************************************

                                    ---------------------
                                    Active property flags
                                    ---------------------
   (+) Dipole Moment


------------------------------------------------------------------------------
                       ORCA ELECTRIC PROPERTIES CALCULATION
------------------------------------------------------------------------------

Dipole Moment Calculation                       ... on
Quadrupole Moment Calculation                   ... off
Polarizability Calculation                      ... off
GBWName                                         ... 8_2_orca.gbw
Electron density                                ... 8_2_orca.scfp
The origin for moment calculation is the CENTER OF MASS  = ( 1.444631,  1.070111 -0.102959)

-------------
DIPOLE MOMENT
-------------
                                X             Y             Z
Electronic contribution:     51.68553      40.49184      -5.02085
Nuclear contribution   :    -53.30405     -40.05327       6.31870
                        -----------------------------------------
Total Dipole Moment    :     -1.61852       0.43857       1.29785
                        -----------------------------------------
Magnitude (a.u.)       :      2.12046
Magnitude (Debye)      :      5.38979



--------------------
Rotational spectrum 
--------------------
 
Rotational constants in cm-1:     0.028438     0.017208     0.012774 
Rotational constants in MHz :   852.542626   515.881237   382.947115 

 Dipole components along the rotational axes: 
x,y,z [a.u.] :    -0.907554     1.825360     0.583750 
x,y,z [Debye]:    -2.306819     4.639697     1.483776 

 

Timings for individual modules:

Sum of individual times         ...      242.545 sec (=   4.042 min)
GTO integral calculation        ...        0.531 sec (=   0.009 min)   0.2 %
SCF iterations                  ...      209.901 sec (=   3.498 min)  86.5 %
SCF Gradient evaluation         ...       32.113 sec (=   0.535 min)  13.2 %
                             ****ORCA TERMINATED NORMALLY****
TOTAL RUN TIME: 0 days 0 hours 4 minutes 2 seconds 839 msec
