
                                 *****************
                                 * O   R   C   A *
                                 *****************

                                            #,                                       
                                            ###                                      
                                            ####                                     
                                            #####                                    
                                            ######                                   
                                           ########,                                 
                                     ,,################,,,,,                         
                               ,,#################################,,                 
                          ,,##########################################,,             
                       ,#########################################, ''#####,          
                    ,#############################################,,   '####,        
                  ,##################################################,,,,####,       
                ,###########''''           ''''###############################       
              ,#####''   ,,,,##########,,,,          '''####'''          '####       
            ,##' ,,,,###########################,,,                        '##       
           ' ,,###''''                  '''############,,,                           
         ,,##''                                '''############,,,,        ,,,,,,###''
      ,#''                                            '''#######################'''  
     '                                                          ''''####''''         
             ,#######,   #######,   ,#######,      ##                                
            ,#'     '#,  ##    ##  ,#'     '#,    #''#        ######   ,####,        
            ##       ##  ##   ,#'  ##            #'  '#       #        #'  '#        
            ##       ##  #######   ##           ,######,      #####,   #    #        
            '#,     ,#'  ##    ##  '#,     ,#' ,#      #,         ##   #,  ,#        
             '#######'   ##     ##  '#######'  #'      '#     #####' # '####'        



                  #######################################################
                  #                        -***-                        #
                  #          Department of theory and spectroscopy      #
                  #    Directorship and core code : Frank Neese         #
                  #        Max Planck Institute fuer Kohlenforschung    #
                  #                Kaiser Wilhelm Platz 1               #
                  #                 D-45470 Muelheim/Ruhr               #
                  #                      Germany                        #
                  #                                                     #
                  #                  All rights reserved                #
                  #                        -***-                        #
                  #######################################################


                         Program Version 5.0.3 -  RELEASE  -


 With contributions from (in alphabetic order):
   Daniel Aravena         : Magnetic Suceptibility
   Michael Atanasov       : Ab Initio Ligand Field Theory (pilot matlab implementation)
   Alexander A. Auer      : GIAO ZORA, VPT2 properties, NMR spectrum
   Ute Becker             : Parallelization
   Giovanni Bistoni       : ED, misc. LED, open-shell LED, HFLD
   Martin Brehm           : Molecular dynamics
   Dmytro Bykov           : SCF Hessian
   Vijay G. Chilkuri      : MRCI spin determinant printing, contributions to CSF-ICE
   Dipayan Datta          : RHF DLPNO-CCSD density
   Achintya Kumar Dutta   : EOM-CC, STEOM-CC
   Dmitry Ganyushin       : Spin-Orbit,Spin-Spin,Magnetic field MRCI
   Miquel Garcia          : C-PCM and meta-GGA Hessian, CC/C-PCM, Gaussian charge scheme
   Yang Guo               : DLPNO-NEVPT2, F12-NEVPT2, CIM, IAO-localization
   Andreas Hansen         : Spin unrestricted coupled pair/coupled cluster methods
   Benjamin Helmich-Paris : MC-RPA, TRAH-SCF, COSX integrals
   Lee Huntington         : MR-EOM, pCC
   Robert Izsak           : Overlap fitted RIJCOSX, COSX-SCS-MP3, EOM
   Marcus Kettner         : VPT2
   Christian Kollmar      : KDIIS, OOCD, Brueckner-CCSD(T), CCSD density, CASPT2, CASPT2-K
   Simone Kossmann        : Meta GGA functionals, TD-DFT gradient, OOMP2, MP2 Hessian
   Martin Krupicka        : Initial AUTO-CI
   Lucas Lang             : DCDCAS
   Marvin Lechner         : AUTO-CI (C++ implementation), FIC-MRCC
   Dagmar Lenk            : GEPOL surface, SMD
   Dimitrios Liakos       : Extrapolation schemes; Compound Job, initial MDCI parallelization
   Dimitrios Manganas     : Further ROCIS development; embedding schemes
   Dimitrios Pantazis     : SARC Basis sets
   Anastasios Papadopoulos: AUTO-CI, single reference methods and gradients
   Taras Petrenko         : DFT Hessian,TD-DFT gradient, ASA, ECA, R-Raman, ABS, FL, XAS/XES, NRVS
   Peter Pinski           : DLPNO-MP2, DLPNO-MP2 Gradient
   Christoph Reimann      : Effective Core Potentials
   Marius Retegan         : Local ZFS, SOC
   Christoph Riplinger    : Optimizer, TS searches, QM/MM, DLPNO-CCSD(T), (RO)-DLPNO pert. Triples
   Tobias Risthaus        : Range-separated hybrids, TD-DFT gradient, RPA, STAB
   Michael Roemelt        : Original ROCIS implementation
   Masaaki Saitow         : Open-shell DLPNO-CCSD energy and density
   Barbara Sandhoefer     : DKH picture change effects
   Avijit Sen             : IP-ROCIS
   Kantharuban Sivalingam : CASSCF convergence, NEVPT2, FIC-MRCI
   Bernardo de Souza      : ESD, SOC TD-DFT
   Georgi Stoychev        : AutoAux, RI-MP2 NMR, DLPNO-MP2 response
   Willem Van den Heuvel  : Paramagnetic NMR
   Boris Wezisla          : Elementary symmetry handling
   Frank Wennmohs         : Technical directorship


 We gratefully acknowledge several colleagues who have allowed us to
 interface, adapt or use parts of their codes:
   Stefan Grimme, W. Hujo, H. Kruse, P. Pracht,  : VdW corrections, initial TS optimization,
                  C. Bannwarth, S. Ehlert          DFT functionals, gCP, sTDA/sTD-DF
   Ed Valeev, F. Pavosevic, A. Kumar             : LibInt (2-el integral package), F12 methods
   Garnet Chan, S. Sharma, J. Yang, R. Olivares  : DMRG
   Ulf Ekstrom                                   : XCFun DFT Library
   Mihaly Kallay                                 : mrcc  (arbitrary order and MRCC methods)
   Jiri Pittner, Ondrej Demel                    : Mk-CCSD
   Frank Weinhold                                : gennbo (NPA and NBO analysis)
   Christopher J. Cramer and Donald G. Truhlar   : smd solvation model
   Lars Goerigk                                  : TD-DFT with DH, B97 family of functionals
   V. Asgeirsson, H. Jonsson                     : NEB implementation
   FAccTs GmbH                                   : IRC, NEB, NEB-TS, DLPNO-Multilevel, CI-OPT
                                                   MM, QMMM, 2- and 3-layer-ONIOM, Crystal-QMMM,
                                                   LR-CPCM, SF, NACMEs, symmetry and pop. for TD-DFT,
                                                   nearIR, NL-DFT gradient (VV10), updates on ESD,
                                                   ML-optimized integration grids
   S Lehtola, MJT Oliveira, MAL Marques          : LibXC Library
   Liviu Ungur et al                             : ANISO software


 Your calculation uses the libint2 library for the computation of 2-el integrals
 For citations please refer to: http://libint.valeyev.net

 Your ORCA version has been built with support for libXC version: 5.1.0
 For citations please refer to: https://tddft.org/programs/libxc/

 This ORCA versions uses:
   CBLAS   interface :  Fast vector & matrix operations
   LAPACKE interface :  Fast linear algebra routines
   SCALAPACK package :  Parallel linear algebra routines
   Shared memory     :  Shared parallel matrices
   BLAS/LAPACK       :  OpenBLAS 0.3.15  USE64BITINT DYNAMIC_ARCH NO_AFFINITY SkylakeX SINGLE_THREADED
        Core in use  :  SkylakeX
   Copyright (c) 2011-2014, The OpenBLAS Project


Your calculation utilizes the geometrical counterpoise correction gCP
Please cite in your paper:
H.Kruse, S. Grimme J.Chem.Phys., 136, (2012), 154101 
   

Your calculation utilizes the atom-pairwise dispersion correction
with the Becke-Johnson damping scheme (D3BJ)
Cite in your paper:
S.Grimme, S.Ehrlich, L.Goerigk, J Comput Chem, (2011), 32, 1456–1465 
S.Grimme, J.Antony, S.Ehrlich and H.Krieg, J.Chem.Phys., 132, (2010), 154104 
   

Your calculation employs the composite approach PBEh-3c.
Please cite in your paper:
S. Grimme, J. G. Brandenburg, C. Bannwarth, A. Hansen J.Chem.Phys., 143, (2015), 054107 
   

================================================================================

cite the ECPs for Ir [Def2-ECP] as follows:
Ce-Yb(ecp-28): M. Dolg, H. Stoll, H.Preuss, J. Chem. Phys., 1989, 90, 1730-1734.
Y-Cd(ecp-28), Hf-Hg(ecp-46): D. Andrae,U. Haeussermann, M. Dolg, H. Stoll, H. Preuss, Theor. Chim. Acta, 1990, 77, 123-141.
In-Sb(ecp-28), Tl-Bi(ecp-46): B. Metz, H. Stoll, M. Dolg, J. Chem. Phys., 2000, 113, 2563-2569.
Te-Xe(ecp-28), Po-Rn(ecp-46): K. A. Peterson, D. Figgen, E. Goll, H. Stoll, M. Dolg, J. Chem. Phys., 2003, 119, 11113-11123.
Rb(ecp-28), Cs(ecp-46): T. Leininger, A. Nicklass, W. Kuechle, H. Stoll, M. Dolg, A. Bergner, Chem. Phys. Lett., 1996, 255, 274-280.
Sr(ecp-28), Ba(ecp-46): M. Kaupp, P. V. Schleyer, H. Stoll and H. Preuss, J. Chem. Phys., 1991, 94, 1360-1366.
La(ecp-46): M. Dolg, H. Stoll, A. Savin, H. Preuss, Theor. Chim. Acta, 1989, 75, 173-194.
Lu(ecp-28): X. Cao, M. Dolg, J. Chem. Phys., 2001, 115, 7348-7355.

ECP parameters for Ir [Def2-ECP] have been obtained from:
TURBOMOLE (7.0.2)

----- Orbital basis set information -----
Your calculation utilizes the basis: def2-mSVP

----- AuxJ basis set information -----
Your calculation utilizes the auxiliary basis: def2/J
   F. Weigend, Phys. Chem. Chem. Phys. 8, 1057 (2006).

================================================================================
                                        WARNINGS
                       Please study these warnings very carefully!
================================================================================


WARNING: No Hueckel Guess possible with ECP basis!
  ===> : Switching to HCORE guess!

INFO   : the flag for use of the SHARK integral package has been found!

================================================================================
                                       INPUT FILE
================================================================================
NAME = 4_5_orca.inp
|  1> ! EnGrad PBEh-3c
|  2> %output 
|  3> xyzfile=True 
|  4> end 
|  5> %scf 
|  6> maxiter 250 
|  7> end
|  8> %output
|  9> Print[P_Hirshfeld] = 1
| 10> end
| 11> % maxcore
| 12> 4000
| 13> *xyz 1 1
| 14> Ir   0.44562541  -0.71495254   0.94802876 
| 15> C   -0.08534350  -2.72678139   1.58912795 
| 16> C    0.75142012  -2.10735777   2.58688856 
| 17> C    1.95200512  -2.33704171   0.64668503 
| 18> C    0.66898650  -2.88207259   0.40327622 
| 19> C    1.99298673  -1.82798635   1.98180821 
| 20> N   -1.00043860  -0.01226276  -0.44658223 
| 21> C   -2.42108569   0.05632974   0.01541534 
| 22> C   -2.87790878   1.46871215   0.37636285 
| 23> H   -3.91636262   1.42820716   0.70278941 
| 24> H   -2.83130470   2.12925717  -0.49511314 
| 25> H   -2.27924005   1.89369090   1.19210112 
| 26> C   -3.38895543  -0.58213329  -0.97265229 
| 27> H   -2.45150991  -0.54817335   0.93846832 
| 28> H   -4.35882863  -0.67888039  -0.50433748 
| 29> H   -3.54116929   0.02495872  -1.87024682 
| 30> H   -3.06771326  -1.58786324  -1.28526134 
| 31> C   -0.69463922   0.29064304  -1.65382501 
| 32> C    0.62316221   0.22132233  -2.22056486 
| 33> H   -1.54240601   0.57404982  -2.31814826 
| 34> C    1.86830612   0.32977714  -1.75139495 
| 35> C    2.88730500   0.00707738  -2.61675019 
| 36> S    0.72310568   0.07774750  -3.95234554 
| 37> C    2.40945158  -0.05754592  -3.89761694 
| 38> H    2.10886598   0.79218371  -0.79287730 
| 39> H    3.92203987   0.00108453  -2.36448340 
| 40> H    3.01290218  -0.12891489  -4.79378020 
| 41> H   -1.00682474  -3.25252592   1.81237976 
| 42> H    0.46163309  -1.92855332   3.59647482 
| 43> H    2.86982937  -1.40848444   2.47463636 
| 44> O    1.72774526   1.70686878   0.73676044 
| 45> O    0.05034299   1.07017452   1.92636110 
| 46> C    0.86544352   1.95565360   1.54296911 
| 47> C    0.75326463   3.34676881   2.13548107 
| 48> H    0.81591461   4.11158959   1.35527607 
| 49> H    1.60479188   3.53484628   2.79017479 
| 50> H   -0.16316350   3.52389052   2.72154501 
| 51> H    2.76537798  -2.34104523  -0.05059719 
| 52> H    0.34363691  -3.41831114  -0.48478491 
| 53> *
| 54> 
| 55>                          ****END OF INPUT****
================================================================================

                     *******************************
                     * Energy+Gradient Calculation *
                     *******************************

---------------------------------
CARTESIAN COORDINATES (ANGSTROEM)
---------------------------------
  Ir     0.445625   -0.714953    0.948029
  C     -0.085343   -2.726781    1.589128
  C      0.751420   -2.107358    2.586889
  C      1.952005   -2.337042    0.646685
  C      0.668987   -2.882073    0.403276
  C      1.992987   -1.827986    1.981808
  N     -1.000439   -0.012263   -0.446582
  C     -2.421086    0.056330    0.015415
  C     -2.877909    1.468712    0.376363
  H     -3.916363    1.428207    0.702789
  H     -2.831305    2.129257   -0.495113
  H     -2.279240    1.893691    1.192101
  C     -3.388955   -0.582133   -0.972652
  H     -2.451510   -0.548173    0.938468
  H     -4.358829   -0.678880   -0.504337
  H     -3.541169    0.024959   -1.870247
  H     -3.067713   -1.587863   -1.285261
  C     -0.694639    0.290643   -1.653825
  C      0.623162    0.221322   -2.220565
  H     -1.542406    0.574050   -2.318148
  C      1.868306    0.329777   -1.751395
  C      2.887305    0.007077   -2.616750
  S      0.723106    0.077747   -3.952346
  C      2.409452   -0.057546   -3.897617
  H      2.108866    0.792184   -0.792877
  H      3.922040    0.001085   -2.364483
  H      3.012902   -0.128915   -4.793780
  H     -1.006825   -3.252526    1.812380
  H      0.461633   -1.928553    3.596475
  H      2.869829   -1.408484    2.474636
  O      1.727745    1.706869    0.736760
  O      0.050343    1.070175    1.926361
  C      0.865444    1.955654    1.542969
  C      0.753265    3.346769    2.135481
  H      0.815915    4.111590    1.355276
  H      1.604792    3.534846    2.790175
  H     -0.163163    3.523891    2.721545
  H      2.765378   -2.341045   -0.050597
  H      0.343637   -3.418311   -0.484785

----------------------------
CARTESIAN COORDINATES (A.U.)
----------------------------
  NO LB      ZA    FRAG     MASS         X           Y           Z
   0 Ir   17.0000*   0   192.220    0.842110   -1.351064    1.791515
   1 C     6.0000    0    12.011   -0.161276   -5.152870    3.003017
   2 C     6.0000    0    12.011    1.419978   -3.982329    4.888511
   3 C     6.0000    0    12.011    3.688755   -4.416369    1.222058
   4 C     6.0000    0    12.011    1.264201   -5.446328    0.762082
   5 C     6.0000    0    12.011    3.766199   -3.454394    3.745075
   6 N     7.0000    0    14.007   -1.890555   -0.023173   -0.843918
   7 C     6.0000    0    12.011   -4.575189    0.106448    0.029131
   8 C     6.0000    0    12.011   -5.438459    2.775464    0.711223
   9 H     1.0000    0     1.008   -7.400853    2.698920    1.328080
  10 H     1.0000    0     1.008   -5.350390    4.023713   -0.935628
  11 H     1.0000    0     1.008   -4.307139    3.578557    2.252745
  12 C     6.0000    0    12.011   -6.404198   -1.100072   -1.838046
  13 H     1.0000    0     1.008   -4.632682   -1.035898    1.773448
  14 H     1.0000    0     1.008   -8.236992   -1.282898   -0.953060
  15 H     1.0000    0     1.008   -6.691840    0.047165   -3.534254
  16 H     1.0000    0     1.008   -5.797138   -3.000627   -2.428792
  17 C     6.0000    0    12.011   -1.312678    0.549236   -3.125276
  18 C     6.0000    0    12.011    1.177606    0.418239   -4.196259
  19 H     1.0000    0     1.008   -2.914725    1.084797   -4.380665
  20 C     6.0000    0    12.011    3.530587    0.623188   -3.309657
  21 C     6.0000    0    12.011    5.456216    0.013374   -4.944941
  22 S    16.0000    0    32.060    1.366472    0.146921   -7.468851
  23 C     6.0000    0    12.011    4.553204   -0.108746   -7.365429
  24 H     1.0000    0     1.008    3.985179    1.497010   -1.498321
  25 H     1.0000    0     1.008    7.411581    0.002049   -4.468226
  26 H     1.0000    0     1.008    5.693560   -0.243614   -9.058932
  27 H     1.0000    0     1.008   -1.902623   -6.146383    3.424901
  28 H     1.0000    0     1.008    0.872360   -3.644438    6.796352
  29 H     1.0000    0     1.008    5.423192   -2.661650    4.676385
  30 O     8.0000    0    15.999    3.264965    3.225515    1.392275
  31 O     8.0000    0    15.999    0.095134    2.022337    3.640295
  32 C     6.0000    0    12.011    1.635451    3.695650    2.915789
  33 C     6.0000    0    12.011    1.423464    6.324476    4.035474
  34 H     1.0000    0     1.008    1.541855    7.769778    2.561101
  35 H     1.0000    0     1.008    3.032617    6.679891    5.272666
  36 H     1.0000    0     1.008   -0.308334    6.659188    5.142975
  37 H     1.0000    0     1.008    5.225807   -4.423934   -0.095615
  38 H     1.0000    0     1.008    0.649380   -6.459672   -0.916111
* core charge reduced due to ECP

--------------------------------
INTERNAL COORDINATES (ANGSTROEM)
--------------------------------
 Ir     0   0   0     0.000000000000     0.00000000     0.00000000
 C      1   0   0     2.177244009407     0.00000000     0.00000000
 C      2   1   0     1.442007354918    70.44606195     0.00000000
 C      1   2   3     2.234090676258    62.17663728    80.17096794
 C      2   1   3     1.413992019511    74.00433055   243.07914041
 C      3   2   1     1.409133871332   107.41703171   298.15967700
 N      1   2   3     2.128335937150   109.40992143   203.17461519
 C      7   1   2     1.495454726853   117.26830920    58.94167855
 C      8   7   1     1.527676180547   113.54512374   102.08290345
 H      9   8   7     1.089303140131   108.75348353   180.13442146
 H      9   8   7     1.094514533876   110.92225057    62.04611238
 H      9   8   7     1.097469868094   111.74694058   299.46369912
 C      8   7   1     1.523379307900   112.57936086   228.63490787
 H      8   7   1     1.103800898201   105.03512583   344.92442083
 H     13   8   7     1.081356919200   109.05297162   168.88234230
 H     13   8   7     1.094260347480   112.82323928   286.71376284
 H     13   8   7     1.101096581711   112.43240189    49.58964627
 C      7   1   2     1.281678709484   122.21674727   241.82639194
 C     18   7   1     1.436175486256   125.39564491   359.13856443
 H     18   7   1     1.113711503787   116.12773053   175.54708953
 C     19  18   7     1.335015433196   135.49617001   331.55006640
 C     21  19  18     1.375257628207   116.79987907   170.99015937
 S     19  18   7     1.740593793114   116.69796510   157.15204646
 C     22  21  19     1.368626937176   109.95372380    14.50928914
 H     21  19  18     1.091075142959   123.28502040   341.66952377
 H     22  21  19     1.065059011878   124.89941085   183.16423395
 H     24  22  21     1.082753316824   125.67028256   169.25194351
 H      2   1   3     1.084147756150   135.72616016   119.04684150
 H      3   2   1     1.065463265663   124.74325979   119.47616910
 H      6   3   2     1.089823129342   126.23041345   183.52490531
 O     25  21  19     1.822551342521   154.67668739   353.67513159
 O      1   2   3     2.073658838718   127.59293015   300.72082781
 C     31  25  21     1.206412283199   144.47186908    28.34977664
 C     33  31  25     1.516197893943   120.21467325   218.24713773
 H     34  33  31     1.094347151291   111.00089256    46.67014790
 H     34  33  31     1.090456628767   109.57828714   290.86606525
 H     34  33  31     1.102126834524   114.63121437   169.79637311
 H      4   1   2     1.071351451152   127.04263586   158.00086020
 H      5   2   1     1.087224313946   125.41905485   235.12637692

---------------------------
INTERNAL COORDINATES (A.U.)
---------------------------
 Ir     0   0   0     0.000000000000     0.00000000     0.00000000
 C      1   0   0     4.114394904499     0.00000000     0.00000000
 C      2   1   0     2.724998983895    70.44606195     0.00000000
 C      1   2   3     4.221819536474    62.17663728    80.17096794
 C      2   1   3     2.672057672426    74.00433055   243.07914041
 C      3   2   1     2.662877102850   107.41703171   298.15967700
 N      1   2   3     4.021972042195   109.40992143   203.17461519
 C      7   1   2     2.825999879431   117.26830920    58.94167855
 C      8   7   1     2.886889602548   113.54512374   102.08290345
 H      9   8   7     2.058484611668   108.75348353   180.13442146
 H      9   8   7     2.068332718622   110.92225057    62.04611238
 H      9   8   7     2.073917490928   111.74694058   299.46369912
 C      8   7   1     2.878769690014   112.57936086   228.63490787
 H      8   7   1     2.085881403976   105.03512583   344.92442083
 H     13   8   7     2.043468430309   109.05297162   168.88234230
 H     13   8   7     2.067852375947   112.82323928   286.71376284
 H     13   8   7     2.080770986430   112.43240189    49.58964627
 C      7   1   2     2.422021752602   122.21674727   241.82639194
 C     18   7   1     2.713978349275   125.39564491   359.13856443
 H     18   7   1     2.104609734355   116.12773053   175.54708953
 C     19  18   7     2.522813553299   135.49617001   331.55006640
 C     21  19  18     2.598860280897   116.79987907   170.99015937
 S     19  18   7     3.289245579388   116.69796510   157.15204646
 C     22  21  19     2.586330090770   109.95372380    14.50928914
 H     21  19  18     2.061833211722   123.28502040   341.66952377
 H     22  21  19     2.012669848914   124.89941085   183.16423395
 H     24  22  21     2.046107239392   125.67028256   169.25194351
 H      2   1   3     2.048742347829   135.72616016   119.04684150
 H      3   2   1     2.013433777856   124.74325979   119.47616910
 H      6   3   2     2.059467248869   126.23041345   183.52490531
 O     25  21  19     3.444122902376   154.67668739   353.67513159
 O      1   2   3     3.918647300363   127.59293015   300.72082781
 C     31  25  21     2.279788819844   144.47186908    28.34977664
 C     33  31  25     2.865198784381   120.21467325   218.24713773
 H     34  33  31     2.068016411377   111.00089256    46.67014790
 H     34  33  31     2.060664389288   109.57828714   290.86606525
 H     34  33  31     2.082717882095   114.63121437   169.79637311
 H      4   1   2     2.024560835856   127.04263586   158.00086020
 H      5   2   1     2.054556199499   125.41905485   235.12637692

---------------------
BASIS SET INFORMATION
---------------------
There are 6 groups of distinct atoms

 Group   1 Type Ir  : 7s6p5d1f contracted to 6s3p2d1f pattern {211111/411/41/1}
 Group   2 Type C   : 8s4p1d contracted to 4s2p1d pattern {5111/31/1}
 Group   3 Type N   : 8s4p1d contracted to 4s2p1d pattern {5111/31/1}
 Group   4 Type H   : 4s contracted to 2s pattern {31}
 Group   5 Type S   : 10s7p1d contracted to 4s3p1d pattern {5311/511/1}
 Group   6 Type O   : 8s4p1d contracted to 4s2p1d pattern {5111/31/1}

Atom   0Ir   basis set group =>   1
Atom   1C    basis set group =>   2
Atom   2C    basis set group =>   2
Atom   3C    basis set group =>   2
Atom   4C    basis set group =>   2
Atom   5C    basis set group =>   2
Atom   6N    basis set group =>   3
Atom   7C    basis set group =>   2
Atom   8C    basis set group =>   2
Atom   9H    basis set group =>   4
Atom  10H    basis set group =>   4
Atom  11H    basis set group =>   4
Atom  12C    basis set group =>   2
Atom  13H    basis set group =>   4
Atom  14H    basis set group =>   4
Atom  15H    basis set group =>   4
Atom  16H    basis set group =>   4
Atom  17C    basis set group =>   2
Atom  18C    basis set group =>   2
Atom  19H    basis set group =>   4
Atom  20C    basis set group =>   2
Atom  21C    basis set group =>   2
Atom  22S    basis set group =>   5
Atom  23C    basis set group =>   2
Atom  24H    basis set group =>   4
Atom  25H    basis set group =>   4
Atom  26H    basis set group =>   4
Atom  27H    basis set group =>   4
Atom  28H    basis set group =>   4
Atom  29H    basis set group =>   4
Atom  30O    basis set group =>   6
Atom  31O    basis set group =>   6
Atom  32C    basis set group =>   2
Atom  33C    basis set group =>   2
Atom  34H    basis set group =>   4
Atom  35H    basis set group =>   4
Atom  36H    basis set group =>   4
Atom  37H    basis set group =>   4
Atom  38H    basis set group =>   4
---------------------------------
AUXILIARY/J BASIS SET INFORMATION
---------------------------------
There are 6 groups of distinct atoms

 Group   1 Type Ir  : 11s5p5d3f3g contracted to 8s5p5d2f3g pattern {41111111/11111/11111/21/111}
 Group   2 Type C   : 12s5p4d2f1g contracted to 6s4p3d1f1g pattern {711111/2111/211/2/1}
 Group   3 Type N   : 12s5p4d2f1g contracted to 6s4p3d1f1g pattern {711111/2111/211/2/1}
 Group   4 Type H   : 5s2p1d contracted to 3s1p1d pattern {311/2/1}
 Group   5 Type S   : 14s5p5d2f1g contracted to 8s4p3d1f1g pattern {71111111/2111/311/2/1}
 Group   6 Type O   : 12s5p4d2f1g contracted to 6s4p3d1f1g pattern {711111/2111/211/2/1}

Atom   0Ir   basis set group =>   1
Atom   1C    basis set group =>   2
Atom   2C    basis set group =>   2
Atom   3C    basis set group =>   2
Atom   4C    basis set group =>   2
Atom   5C    basis set group =>   2
Atom   6N    basis set group =>   3
Atom   7C    basis set group =>   2
Atom   8C    basis set group =>   2
Atom   9H    basis set group =>   4
Atom  10H    basis set group =>   4
Atom  11H    basis set group =>   4
Atom  12C    basis set group =>   2
Atom  13H    basis set group =>   4
Atom  14H    basis set group =>   4
Atom  15H    basis set group =>   4
Atom  16H    basis set group =>   4
Atom  17C    basis set group =>   2
Atom  18C    basis set group =>   2
Atom  19H    basis set group =>   4
Atom  20C    basis set group =>   2
Atom  21C    basis set group =>   2
Atom  22S    basis set group =>   5
Atom  23C    basis set group =>   2
Atom  24H    basis set group =>   4
Atom  25H    basis set group =>   4
Atom  26H    basis set group =>   4
Atom  27H    basis set group =>   4
Atom  28H    basis set group =>   4
Atom  29H    basis set group =>   4
Atom  30O    basis set group =>   6
Atom  31O    basis set group =>   6
Atom  32C    basis set group =>   2
Atom  33C    basis set group =>   2
Atom  34H    basis set group =>   4
Atom  35H    basis set group =>   4
Atom  36H    basis set group =>   4
Atom  37H    basis set group =>   4
Atom  38H    basis set group =>   4
-------------------------
ECP PARAMETER INFORMATION
-------------------------

 Group 1, Type Ir ECP Def2-ECP (replacing 60 core electrons, lmax=3)

Atom   0Ir   ECP group =>   1

------------------------------------------------------------------------------
                           ORCA GTO INTEGRAL CALCULATION
                           -- RI-GTO INTEGRALS CHOSEN --
------------------------------------------------------------------------------
------------------------------------------------------------------------------
                   ___                                                        
                  /   \      - P O W E R E D   B Y -                         
                 /     \                                                     
                 |  |  |   _    _      __       _____    __    __             
                 |  |  |  | |  | |    /  \     |  _  \  |  |  /  |          
                  \  \/   | |  | |   /    \    | | | |  |  | /  /          
                 / \  \   | |__| |  /  /\  \   | |_| |  |  |/  /          
                |  |  |   |  __  | /  /__\  \  |    /   |      \           
                |  |  |   | |  | | |   __   |  |    \   |  |\   \          
                \     /   | |  | | |  |  |  |  | |\  \  |  | \   \       
                 \___/    |_|  |_| |__|  |__|  |_| \__\ |__|  \__/        
                                                                              
                      - O R C A' S   B I G   F R I E N D -                    
                                      &                                       
                       - I N T E G R A L  F E E D E R -                       
                                                                              
 v1 FN, 2020, v2 2021                                                         
------------------------------------------------------------------------------


Reading SHARK input file 4_5_orca.SHARKINP.tmp ... ok
----------------------
SHARK INTEGRAL PACKAGE
----------------------

Number of atoms                             ...     39
Number of basis functions                   ...    358
Number of shells                            ...    184
Maximum angular momentum                    ...      3
Integral batch strategy                     ... SHARK/LIBINT Hybrid
RI-J (if used) integral strategy            ... SPLIT-RIJ (Revised 2003 algorithm where possible)
Printlevel                                  ...      1
Contraction scheme used                     ... SEGMENTED contraction
Coulomb Range Separation                    ... NOT USED
Exchange Range Separation                   ... NOT USED
Finite Nucleus Model                        ... NOT USED
Auxiliary Coulomb fitting basis             ... AVAILABLE
   # of basis functions in Aux-J            ...   1231
   # of shells in Aux-J                     ...    405
   Maximum angular momentum in Aux-J        ...      4
Auxiliary J/K fitting basis                 ... NOT available
Auxiliary Correlation fitting basis         ... NOT available
Auxiliary 'external' fitting basis          ... NOT available
Integral threshold                          ...     2.500000e-11
Primitive cut-off                           ...     2.500000e-12
Primitive pair pre-selection threshold      ...     2.500000e-12

Calculating pre-screening integrals         ... done (  0.1 sec) Dimension = 184
Organizing shell pair data                  ... done (  0.1 sec)
Shell pair information
Total number of shell pairs                 ...     17020
Shell pairs after pre-screening             ...     12620
Total number of primitive shell pairs       ...     60705
Primitive shell pairs kept                  ...     28188
          la=0 lb=0:   4823 shell pairs
          la=1 lb=0:   4167 shell pairs
          la=1 lb=1:    847 shell pairs
          la=2 lb=0:   1677 shell pairs
          la=2 lb=1:    767 shell pairs
          la=2 lb=2:    168 shell pairs
          la=3 lb=0:    108 shell pairs
          la=3 lb=1:     41 shell pairs
          la=3 lb=2:     21 shell pairs
          la=3 lb=3:      1 shell pairs

Calculating one electron integrals          ... done (  0.1 sec)
Calculating ECP integrals                   ... done (  0.9 sec)
Calculating RI/J V-Matrix + Cholesky decomp.... done (  0.1 sec)
Calculating Nuclear repulsion               ... done (  0.0 sec) ENN=   1981.370917996410 Eh

SHARK setup successfully completed in   1.6 seconds

Maximum memory used throughout the entire GTOINT-calculation: 87.2 MB
-------------------------------------------------------------------------------
                                 ORCA SCF
-------------------------------------------------------------------------------

------------
SCF SETTINGS
------------
Hamiltonian:
 Density Functional     Method          .... DFT(GTOs)
 Exchange Functional    Exchange        .... PBE
   PBE kappa parameter   XKappa         ....  1.024500
   PBE mue parameter    XMuePBE         ....  0.123457
 Correlation Functional Correlation     .... PBE
   PBE beta parameter  CBetaPBE         ....  0.030000
 LDA part of GGA corr.  LDAOpt          .... PW91-LDA
 Gradients option       PostSCFGGA      .... off
 Hybrid DFT is turned on
   Fraction HF Exchange ScalHFX         ....  0.420000
   Scaling of DF-GGA-X  ScalDFX         ....  0.580000
   Scaling of DF-GGA-C  ScalDFC         ....  1.000000
   Scaling of DF-LDA-C  ScalLDAC        ....  1.000000
   Perturbative correction              ....  0.000000
   Density functional embedding theory  .... OFF
 RI-approximation to the Coulomb term is turned on
   Number of AuxJ basis functions       .... 1231
   RIJ-ON(X) (HFX calculated with O(N)) .... on
   Number of AuxJ basis functions       .... 1231
   RIJ-COSX (HFX calculated with COS-X)).... on


General Settings:
 Integral files         IntName         .... 4_5_orca
 Hartree-Fock type      HFTyp           .... RHF
 Total Charge           Charge          ....    1
 Multiplicity           Mult            ....    1
 Number of Electrons    NEL             ....  164
 Basis Dimension        Dim             ....  358
 Nuclear Repulsion      ENuc            ....   1981.3709179964 Eh

Convergence Acceleration:
 DIIS                   CNVDIIS         .... on
   Start iteration      DIISMaxIt       ....    12
   Startup error        DIISStart       ....  0.200000
   # of expansion vecs  DIISMaxEq       ....     5
   Bias factor          DIISBfac        ....   1.050
   Max. coefficient     DIISMaxC        ....  10.000
 Trust-Rad. Augm. Hess. CNVTRAH         .... auto
   Auto Start mean grad. ratio tolernc. ....  1.125000
   Auto Start start iteration           ....    20
   Auto Start num. interpolation iter.  ....    10
   Max. Number of Micro iterations      ....    16
   Max. Number of Macro iterations      .... Maxiter - #DIIS iter
   Number of Davidson start vectors     ....     2
   Converg. threshold I  (grad. norm)   ....   1.000e-05
   Converg. threshold II (energy diff.) ....   1.000e-08
   Grad. Scal. Fac. for Micro threshold ....   0.100
   Minimum threshold for Micro iter.    ....   0.010
   NR start threshold (gradient norm)   ....   0.001
   Initial trust radius                 ....   0.400
   Minimum AH scaling param. (alpha)    ....   1.000
   Maximum AH scaling param. (alpha)    .... 1000.000
   Orbital update algorithm             .... Taylor
   White noise on init. David. guess    .... on
   Maximum white noise                  ....   0.010
   Quad. conv. algorithm                .... NR
   COSX micro iterations for RIJONX calc.... off
 SOSCF                  CNVSOSCF        .... off
 Level Shifting         CNVShift        .... on
   Level shift para.    LevelShift      ....    0.2500
   Turn off err/grad.   ShiftErr        ....    0.0010
 Zerner damping         CNVZerner       .... off
 Static damping         CNVDamp         .... on
   Fraction old density DampFac         ....    0.7000
   Max. Damping (<1)    DampMax         ....    0.9800
   Min. Damping (>=0)   DampMin         ....    0.0000
   Turn off err/grad.   DampErr         ....    0.1000
 Fernandez-Rico         CNVRico         .... off

SCF Procedure:
 Maximum # iterations   MaxIter         ....   250
 SCF integral mode      SCFMode         .... Direct
   Integral package                     .... SHARK and LIBINT hybrid scheme
 Reset frequency        DirectResetFreq ....    20
 Integral Threshold     Thresh          ....  2.500e-11 Eh
 Primitive CutOff       TCut            ....  2.500e-12 Eh

Convergence Tolerance:
 Convergence Check Mode ConvCheckMode   .... Total+1el-Energy
 Convergence forced     ConvForced      .... 0
 Energy Change          TolE            ....  1.000e-08 Eh
 1-El. energy change                    ....  1.000e-05 Eh
 DIIS Error             TolErr          ....  5.000e-07


Diagonalization of the overlap matrix:
Smallest eigenvalue                        ... 8.819e-04
Time for diagonalization                   ...    0.021 sec
Threshold for overlap eigenvalues          ... 1.000e-08
Number of eigenvalues below threshold      ... 0
Time for construction of square roots      ...    0.010 sec
Total time needed                          ...    0.032 sec

--------------------
INITIAL GUESS: HCORE
--------------------
                      -----------------
                      INTIAL GUESS DONE 
                      -----------------
-------------------
DFT GRID GENERATION
-------------------

General Integration Accuracy     IntAcc      ... 4.159
Radial Grid Type                 RadialGrid  ... OptM3 with GC (2021)
Angular Grid (max. ang.)         AngularGrid ... 3 (Lebedev-194)
Angular grid pruning method      GridPruning ... 4 (adaptive)
Weight generation scheme         WeightScheme... Becke
Basis function cutoff            BFCut       ... 1.0000e-11
Integration weight cutoff        WCut        ... 1.0000e-14
Angular grids for H and He will be reduced by one unit
Partially contracted basis set               ... off
Rotationally invariant grid construction     ... off

Total number of grid points                  ...    93589
Total number of batches                      ...     1484
Average number of points per batch           ...       63
Average number of grid points per atom       ...     2400
Time for grid setup =    1.992 sec

--------------------
COSX GRID GENERATION
--------------------

GRIDX 1
-------
General Integration Accuracy     IntAcc      ... 3.816
Radial Grid Type                 RadialGrid  ... OptM3 with GC (2021)
Angular Grid (max. ang.)         AngularGrid ... 1 (Lebedev-50)
Angular grid pruning method      GridPruning ... 4 (adaptive)
Weight generation scheme         WeightScheme... Becke
Basis function cutoff            BFCut       ... 1.0000e-11
Integration weight cutoff        WCut        ... 1.0000e-14
Angular grids for H and He will be reduced by one unit
Partially contracted basis set               ... on
Rotationally invariant grid construction     ... off

Total number of grid points                  ...    23254
Total number of batches                      ...      382
Average number of points per batch           ...       60
Average number of grid points per atom       ...      596
UseSFitting                                  ... on

GRIDX 2
-------
General Integration Accuracy     IntAcc      ... 4.020
Radial Grid Type                 RadialGrid  ... OptM3 with GC (2021)
Angular Grid (max. ang.)         AngularGrid ... 2 (Lebedev-110)
Angular grid pruning method      GridPruning ... 4 (adaptive)
Weight generation scheme         WeightScheme... Becke
Basis function cutoff            BFCut       ... 1.0000e-11
Integration weight cutoff        WCut        ... 1.0000e-14
Angular grids for H and He will be reduced by one unit
Partially contracted basis set               ... on
Rotationally invariant grid construction     ... off

Total number of grid points                  ...    50541
Total number of batches                      ...      808
Average number of points per batch           ...       62
Average number of grid points per atom       ...     1296
UseSFitting                                  ... on

GRIDX 3
-------
General Integration Accuracy     IntAcc      ... 4.338
Radial Grid Type                 RadialGrid  ... OptM3 with GC (2021)
Angular Grid (max. ang.)         AngularGrid ... 3 (Lebedev-194)
Angular grid pruning method      GridPruning ... 4 (adaptive)
Weight generation scheme         WeightScheme... Becke
Basis function cutoff            BFCut       ... 1.0000e-11
Integration weight cutoff        WCut        ... 1.0000e-14
Angular grids for H and He will be reduced by one unit
Partially contracted basis set               ... on
Rotationally invariant grid construction     ... off

Total number of grid points                  ...   109381
Total number of batches                      ...     1730
Average number of points per batch           ...       63
Average number of grid points per atom       ...     2805
UseSFitting                                  ... on

Time for X-Grid setup             =    5.605 sec

--------------
SCF ITERATIONS
--------------
ITER       Energy         Delta-E        Max-DP      RMS-DP      [F,P]     Damp
               ***  Starting incremental Fock matrix formation  ***
  0   -879.7409991220   0.00000000000012.39108549  0.15919830  2.8490526 0.7000
  1  -1108.1044370977-228.36343797573917.97897182  0.17310604  1.3308482 0.7000
  2  -1166.6338426600 -58.529405562261 5.46321864  0.07472288  0.9103924 0.7000
  3  -1194.5511783407 -27.917335680737 3.41076155  0.04864406  0.6644483 0.7000
  4  -1215.0800881787 -20.528909837989 4.07448964  0.05080368  0.4428650 0.7000
  5  -1227.2691498267 -12.189061648010 2.84222757  0.03587234  0.3155205 0.7000
  6  -1237.6892822529 -10.420132426125 4.16330256  0.03892731  0.2584166 0.7000
  7  -1242.9173930256  -5.228110772731 3.08648372  0.03240621  0.2618764 0.7000
  8  -1249.4599579532  -6.542564927607 3.62644172  0.03369053  0.2714833 0.7000
  9  -1251.0438671583  -1.583909205093 3.24786570  0.03181964  0.3154773 0.7000
 10  -1255.0575205076  -4.013653349296 3.38843778  0.03240329  0.2877679 0.7000
 11  -1255.8688318340  -0.811311326448 3.29039120  0.03225598  0.4564364 0.7000
                               ***Turning on DIIS***
 12  -1257.9761886610  -2.107356826936 3.17609380  0.03123853  0.2916283 0.7000
 13  -1257.5406600117   0.435528649263 2.80423079  0.02644724  0.6421916 0.7000
 14  -1260.4154429622  -2.874782950436 2.08941271  0.01977590  0.6182122 0.7000
 15  -1263.5230586278  -3.107615665617 1.54005456  0.01453396  0.4800486 0.7000
 16  -1267.3276208640  -3.804562236208 1.11408169  0.01095941  0.4162478 0.7000
 17  -1271.4494126307  -4.121791766701 2.06023188  0.02384251  0.4910615 0.7000
 18  -1272.2141564677  -0.764743836976 0.78075173  0.01066856  0.2842382 0.7000
 19  -1277.6148987500  -5.400742282345 0.57047901  0.00748571  0.1663477 0.7000
               *** Restarting incremental Fock matrix formation ***
                                   *** Resetting DIIS ***
 20  -1281.1187954027  -3.503896652698 0.42937992  0.00540077  0.1259913 0.7000
 21  -1283.3866784545  -2.267883051809 0.97414947  0.01261841  0.0488612 0.0000
 22  -1287.7152794568  -4.328601002290 0.01338793  0.00035923  0.1770562 0.7000
 23  -1287.8034003762  -0.088120919405 0.01760455  0.00044012  0.1716266 0.7000
 24  -1287.9020417870  -0.098641410833 0.02042114  0.00045560  0.1636845 0.7000
 25  -1287.9982203617  -0.096178574684 0.02436359  0.00050381  0.1505998 0.7000

 WARNING: the maximum gradient error descreased on average only by a factor   1.1
          during the last 20 iterations

                      *** Initiating the TRAH-SCF procedure ***


TRAH GRIDX
----------

General Integration Accuracy     IntAcc      ... 3.067
Radial Grid Type                 RadialGrid  ... OptM3 with GC (2021)
Angular Grid (max. ang.)         AngularGrid ... 1 (Lebedev-50)
Angular grid pruning method      GridPruning ... 4 (adaptive)
Weight generation scheme         WeightScheme... Becke
Basis function cutoff            BFCut       ... 1.0000e-11
Integration weight cutoff        WCut        ... 1.0000e-14
Angular grids for H and He will be reduced by one unit
Partially contracted basis set               ... on
Rotationally invariant grid construction     ... off

Total number of grid points                  ...    12544
Total number of batches                      ...      219
Average number of points per batch           ...       57
Average number of grid points per atom       ...      322


TRAH GRID
---------

General Integration Accuracy     IntAcc      ... 3.467
Radial Grid Type                 RadialGrid  ... OptM3 with GC (2021)
Angular Grid (max. ang.)         AngularGrid ... 1 (Lebedev-50)
Angular grid pruning method      GridPruning ... 4 (adaptive)
Weight generation scheme         WeightScheme... Becke
Basis function cutoff            BFCut       ... 1.0000e-11
Integration weight cutoff        WCut        ... 1.0000e-14
Angular grids for H and He will be reduced by one unit
Partially contracted basis set               ... off
Rotationally invariant grid construction     ... off

Total number of grid points                  ...    29329
Total number of batches                      ...      477
Average number of points per batch           ...       61
Average number of grid points per atom       ...      752

 --------------------------------------------------------------------------------------------
   Iter.        energy            ||Error||_2        Shift      TRadius  Mac/Mic        Rej.
 --------------------------------------------------------------------------------------------
    0      -1288.296934502446     1.067650e+00                     0.400 (TRAH MAcro)   No
    0     dE    -6.651001e-02     9.921398e-01    -1.3105e-01      0.123 (TRAH MIcro)
    0     dE    -1.157032e-01     2.514433e-01    -2.1495e-01      0.277 (TRAH MIcro)
    0     dE    -1.210142e-01     1.293258e-01    -2.2262e-01      0.295 (TRAH MIcro)
    0     dE    -1.228499e-01     4.364636e-02    -2.2425e-01      0.309 (TRAH MIcro)
    0     dE    -1.233283e-01     2.183671e-02    -2.2454e-01      0.314 (TRAH MIcro)
    0     dE    -1.234871e-01     1.389147e-02    -2.2463e-01      0.315 (TRAH MIcro)
    0     dE    -1.235765e-01     6.262086e-03    -2.2466e-01      0.316 (TRAH MIcro)
    1      -1288.417547928871     1.108353e-01                     0.480 (TRAH MAcro)   No
    1     dE    -1.259421e-03     1.980435e-01    -2.5175e-03      0.023 (TRAH MIcro)
    1     dE    -2.675349e-03     1.124736e-01    -5.3317e-03      0.060 (TRAH MIcro)
    1     dE    -3.055089e-03     2.877271e-02    -6.0791e-03      0.071 (TRAH MIcro)
    1     dE    -3.109603e-03     1.797266e-02    -6.1851e-03      0.074 (TRAH MIcro)
    1     dE    -3.121893e-03     1.015283e-02    -6.2082e-03      0.076 (TRAH MIcro)
    1     dE    -3.125401e-03     3.059211e-03    -6.2145e-03      0.076 (TRAH MIcro)
    2      -1288.420686950705     5.112520e-03                     0.576 (TRAH MAcro)   No
    2     dE    -9.757455e-08     1.382591e-02    -1.9517e-07      0.000 (TRAH MIcro)
    2     dE    -4.071365e-06     4.413525e-03    -8.1427e-06      0.002 (TRAH MIcro)
    2     dE    -5.338920e-06     2.018718e-03    -1.0678e-05      0.003 (TRAH MIcro)
    2     dE    -5.547269e-06     6.208539e-04    -1.1094e-05      0.004 (TRAH MIcro)
    2     dE    -5.587997e-06     3.295663e-04    -1.1176e-05      0.004 (TRAH MIcro)
    3      -1288.420692508601     3.277162e-04                           (NR   MAcro)
    3     dE    -9.141355e-09     1.439266e-04                           (NR   MIcro)
    3     dE    -1.434495e-08     1.319070e-04                           (NR   MIcro)
    3     dE    -1.579321e-08     6.267851e-05                           (NR   MIcro)
    3     dE    -1.611685e-08     3.148987e-05                           (NR   MIcro)
    3     dE    -1.623804e-08     1.298894e-05                           (NR   MIcro)
    3     dE    -1.624959e-08     4.775016e-06                           (NR   MIcro)
    3     dE    -1.625189e-08     2.488624e-06                           (NR   MIcro)
    3     dE    -1.625261e-08     1.267617e-06                           (NR   MIcro)
    3     dE    -1.625274e-08     4.838604e-07                           (NR   MIcro)
    4      -1288.420692520994     8.856045e-07                           (NR   MAcro)
    4     dE    -6.351550e-14     4.178701e-07                           (NR   MIcro)
    5      -1288.420692520987     4.178316e-07                           (NR   MAcro)

               *****************************************************
               *                     SUCCESS                       *
               *           SCF CONVERGED AFTER  60 CYCLES          *
               *****************************************************

Old exchange energy                            =    -59.661943144 Eh
New exchange energy                            =    -59.661896843 Eh
Exchange energy change after final integration =      0.000046301 Eh
Total energy after final integration           =  -1288.420646220 Eh
Final COS-X integration done in                =    71.764 sec

----------------
TOTAL SCF ENERGY
----------------

Total Energy       :        -1288.42064622 Eh          -35059.70818 eV

Components:
Nuclear Repulsion  :         1981.37091800 Eh           53915.84371 eV
Electronic Energy  :        -3269.79156422 Eh          -88975.55189 eV
One Electron Energy:        -5718.90230651 Eh         -155619.24329 eV
Two Electron Energy:         2449.11074230 Eh           66643.69140 eV
Max COSX asymmetry :            0.00001963 Eh               0.00053 eV

Virial components:
Potential Energy   :        -2501.65181650 Eh          -68073.40671 eV
Kinetic Energy     :         1213.23117028 Eh           33013.69853 eV
Virial Ratio       :            2.06197457


DFT components:
N(Alpha)           :       81.999423519319 electrons
N(Beta)            :       81.999423519319 electrons
N(Total)           :      163.998847038638 electrons
E(X)               :      -79.591224043366 Eh       
E(C)               :       -7.436635824319 Eh       
E(XC)              :      -87.027859867685 Eh       
DFET-embed. en.    :        0.000000000000 Eh       

---------------
SCF CONVERGENCE
---------------

  Last Energy change         ...    7.0486e-12  Tolerance :   1.0000e-08
  Last Orbital Gradient      ...    4.1783e-07  Tolerance :   1.0000e-05
  Last Orbital Rotation      ...    1.9621e-07

             **** THE GBW FILE WAS UPDATED (4_5_orca.gbw) ****
             **** DENSITY 4_5_orca.scfp WAS UPDATED ****
             **** ENERGY FILE WAS UPDATED (4_5_orca.en.tmp) ****
             **** THE GBW FILE WAS UPDATED (4_5_orca.gbw) ****
             **** DENSITY 4_5_orca.scfp WAS UPDATED ****
----------------
ORBITAL ENERGIES
----------------

  NO   OCC          E(Eh)            E(eV) 
   0   2.0000     -89.740779     -2441.9707 
   1   2.0000     -19.621824      -533.9370 
   2   2.0000     -19.584720      -532.9273 
   3   2.0000     -14.828694      -403.5093 
   4   2.0000     -10.671914      -290.3975 
   5   2.0000     -10.657974      -290.0182 
   6   2.0000     -10.650092      -289.8037 
   7   2.0000     -10.649822      -289.7964 
   8   2.0000     -10.644975      -289.6645 
   9   2.0000     -10.637650      -289.4652 
  10   2.0000     -10.633132      -289.3422 
  11   2.0000     -10.613754      -288.8149 
  12   2.0000     -10.604994      -288.5766 
  13   2.0000     -10.600152      -288.4448 
  14   2.0000     -10.566376      -287.5257 
  15   2.0000     -10.563646      -287.4514 
  16   2.0000     -10.550455      -287.0925 
  17   2.0000     -10.541086      -286.8375 
  18   2.0000     -10.533397      -286.6283 
  19   2.0000      -8.380607      -228.0479 
  20   2.0000      -6.270683      -170.6340 
  21   2.0000      -6.267276      -170.5412 
  22   2.0000      -6.265047      -170.4806 
  23   2.0000      -4.037533      -109.8669 
  24   2.0000      -2.357168       -64.1418 
  25   2.0000      -2.319967       -63.1295 
  26   2.0000      -2.319348       -63.1127 
  27   2.0000      -1.320000       -35.9190 
  28   2.0000      -1.209010       -32.8988 
  29   2.0000      -1.193916       -32.4881 
  30   2.0000      -1.182790       -32.1854 
  31   2.0000      -1.121194       -30.5092 
  32   2.0000      -1.012133       -27.5415 
  33   2.0000      -0.992596       -27.0099 
  34   2.0000      -0.988223       -26.8909 
  35   2.0000      -0.959052       -26.0971 
  36   2.0000      -0.951239       -25.8845 
  37   2.0000      -0.918971       -25.0065 
  38   2.0000      -0.889550       -24.2059 
  39   2.0000      -0.863770       -23.5044 
  40   2.0000      -0.797627       -21.7045 
  41   2.0000      -0.795107       -21.6360 
  42   2.0000      -0.789176       -21.4746 
  43   2.0000      -0.781827       -21.2746 
  44   2.0000      -0.768416       -20.9097 
  45   2.0000      -0.739089       -20.1116 
  46   2.0000      -0.731526       -19.9058 
  47   2.0000      -0.716340       -19.4926 
  48   2.0000      -0.682526       -18.5725 
  49   2.0000      -0.661222       -17.9928 
  50   2.0000      -0.659802       -17.9541 
  51   2.0000      -0.656061       -17.8523 
  52   2.0000      -0.647274       -17.6132 
  53   2.0000      -0.643709       -17.5162 
  54   2.0000      -0.640580       -17.4311 
  55   2.0000      -0.633034       -17.2257 
  56   2.0000      -0.620348       -16.8805 
  57   2.0000      -0.617674       -16.8078 
  58   2.0000      -0.615784       -16.7563 
  59   2.0000      -0.608360       -16.5543 
  60   2.0000      -0.588352       -16.0099 
  61   2.0000      -0.582135       -15.8407 
  62   2.0000      -0.569045       -15.4845 
  63   2.0000      -0.561074       -15.2676 
  64   2.0000      -0.558639       -15.2014 
  65   2.0000      -0.547964       -14.9109 
  66   2.0000      -0.545224       -14.8363 
  67   2.0000      -0.542995       -14.7757 
  68   2.0000      -0.532901       -14.5010 
  69   2.0000      -0.524258       -14.2658 
  70   2.0000      -0.518957       -14.1215 
  71   2.0000      -0.515001       -14.0139 
  72   2.0000      -0.508946       -13.8491 
  73   2.0000      -0.503598       -13.7036 
  74   2.0000      -0.482533       -13.1304 
  75   2.0000      -0.478773       -13.0281 
  76   2.0000      -0.463018       -12.5994 
  77   2.0000      -0.458292       -12.4707 
  78   2.0000      -0.440228       -11.9792 
  79   2.0000      -0.424103       -11.5404 
  80   2.0000      -0.413330       -11.2473 
  81   2.0000      -0.398230       -10.8364 
  82   0.0000      -0.225505        -6.1363 
  83   0.0000      -0.170693        -4.6448 
  84   0.0000      -0.154406        -4.2016 
  85   0.0000      -0.085602        -2.3293 
  86   0.0000      -0.085102        -2.3158 
  87   0.0000      -0.080237        -2.1834 
  88   0.0000      -0.052848        -1.4381 
  89   0.0000      -0.048109        -1.3091 
  90   0.0000      -0.042668        -1.1611 
  91   0.0000      -0.021059        -0.5731 
  92   0.0000      -0.007040        -0.1916 
  93   0.0000       0.000995         0.0271 
  94   0.0000       0.002334         0.0635 
  95   0.0000       0.021914         0.5963 
  96   0.0000       0.031462         0.8561 
  97   0.0000       0.040514         1.1024 
  98   0.0000       0.057462         1.5636 
  99   0.0000       0.060570         1.6482 
 100   0.0000       0.068561         1.8656 
 101   0.0000       0.071502         1.9457 
 102   0.0000       0.074289         2.0215 
 103   0.0000       0.078211         2.1282 
 104   0.0000       0.082782         2.2526 
 105   0.0000       0.087425         2.3790 
 106   0.0000       0.092352         2.5130 
 107   0.0000       0.094750         2.5783 
 108   0.0000       0.105876         2.8810 
 109   0.0000       0.114813         3.1242 
 110   0.0000       0.115575         3.1449 
 111   0.0000       0.117901         3.2083 
 112   0.0000       0.124476         3.3872 
 113   0.0000       0.131775         3.5858 
 114   0.0000       0.136578         3.7165 
 115   0.0000       0.138372         3.7653 
 116   0.0000       0.150338         4.0909 
 117   0.0000       0.151181         4.1139 
 118   0.0000       0.163351         4.4450 
 119   0.0000       0.165924         4.5150 
 120   0.0000       0.171354         4.6628 
 121   0.0000       0.181191         4.9305 
 122   0.0000       0.186144         5.0652 
 123   0.0000       0.193154         5.2560 
 124   0.0000       0.209708         5.7064 
 125   0.0000       0.234807         6.3894 
 126   0.0000       0.248263         6.7556 
 127   0.0000       0.265949         7.2368 
 128   0.0000       0.294600         8.0165 
 129   0.0000       0.301135         8.1943 
 130   0.0000       0.304674         8.2906 
 131   0.0000       0.325891         8.8679 
 132   0.0000       0.331500         9.0206 
 133   0.0000       0.335512         9.1297 
 134   0.0000       0.354071         9.6348 
 135   0.0000       0.354669         9.6510 
 136   0.0000       0.373483        10.1630 
 137   0.0000       0.380143        10.3442 
 138   0.0000       0.383693        10.4408 
 139   0.0000       0.394803        10.7431 
 140   0.0000       0.409269        11.1368 
 141   0.0000       0.416016        11.3204 
 142   0.0000       0.428161        11.6508 
 143   0.0000       0.439787        11.9672 
 144   0.0000       0.442093        12.0300 
 145   0.0000       0.447736        12.1835 
 146   0.0000       0.458244        12.4695 
 147   0.0000       0.461750        12.5649 
 148   0.0000       0.473818        12.8933 
 149   0.0000       0.483066        13.1449 
 150   0.0000       0.495539        13.4843 
 151   0.0000       0.501545        13.6477 
 152   0.0000       0.506105        13.7718 
 153   0.0000       0.515149        14.0179 
 154   0.0000       0.519579        14.1385 
 155   0.0000       0.525935        14.3114 
 156   0.0000       0.530427        14.4336 
 157   0.0000       0.532498        14.4900 
 158   0.0000       0.543446        14.7879 
 159   0.0000       0.548068        14.9137 
 160   0.0000       0.557975        15.1833 
 161   0.0000       0.573650        15.6098 
 162   0.0000       0.578003        15.7283 
 163   0.0000       0.585683        15.9373 
 164   0.0000       0.591034        16.0828 
 165   0.0000       0.598006        16.2726 
 166   0.0000       0.606074        16.4921 
 167   0.0000       0.615799        16.7567 
 168   0.0000       0.619027        16.8446 
 169   0.0000       0.634859        17.2754 
 170   0.0000       0.648663        17.6510 
 171   0.0000       0.656004        17.8508 
 172   0.0000       0.671742        18.2790 
 173   0.0000       0.676145        18.3988 
 174   0.0000       0.689890        18.7729 
 175   0.0000       0.702758        19.1230 
 176   0.0000       0.705785        19.2054 
 177   0.0000       0.708832        19.2883 
 178   0.0000       0.722587        19.6626 
 179   0.0000       0.724772        19.7220 
 180   0.0000       0.727777        19.8038 
 181   0.0000       0.746922        20.3248 
 182   0.0000       0.761086        20.7102 
 183   0.0000       0.772888        21.0314 
 184   0.0000       0.778937        21.1960 
 185   0.0000       0.786023        21.3888 
 186   0.0000       0.790798        21.5187 
 187   0.0000       0.810671        22.0595 
 188   0.0000       0.820142        22.3172 
 189   0.0000       0.835331        22.7305 
 190   0.0000       0.845272        23.0010 
 191   0.0000       0.852564        23.1994 
 192   0.0000       0.863255        23.4904 
 193   0.0000       0.866533        23.5796 
 194   0.0000       0.887997        24.1636 
 195   0.0000       0.889156        24.1952 
 196   0.0000       0.892727        24.2923 
 197   0.0000       0.901051        24.5188 
 198   0.0000       0.910089        24.7648 
 199   0.0000       0.923689        25.1348 
 200   0.0000       0.926657        25.2156 
 201   0.0000       0.932565        25.3764 
 202   0.0000       0.937857        25.5204 
 203   0.0000       0.942300        25.6413 
 204   0.0000       0.951800        25.8998 
 205   0.0000       0.955792        26.0084 
 206   0.0000       0.962596        26.1936 
 207   0.0000       0.972108        26.4524 
 208   0.0000       0.977677        26.6039 
 209   0.0000       0.982070        26.7235 
 210   0.0000       0.987127        26.8611 
 211   0.0000       0.996904        27.1271 
 212   0.0000       1.006720        27.3943 
 213   0.0000       1.016344        27.6561 
 214   0.0000       1.030927        28.0529 
 215   0.0000       1.049157        28.5490 
 216   0.0000       1.050683        28.5905 
 217   0.0000       1.064561        28.9682 
 218   0.0000       1.074401        29.2359 
 219   0.0000       1.090280        29.6680 
 220   0.0000       1.100610        29.9491 
 221   0.0000       1.104811        30.0634 
 222   0.0000       1.114047        30.3148 
 223   0.0000       1.143435        31.1144 
 224   0.0000       1.151841        31.3432 
 225   0.0000       1.168484        31.7961 
 226   0.0000       1.170872        31.8611 
 227   0.0000       1.180630        32.1266 
 228   0.0000       1.193010        32.4634 
 229   0.0000       1.197339        32.5812 
 230   0.0000       1.209839        32.9214 
 231   0.0000       1.227693        33.4072 
 232   0.0000       1.240691        33.7609 
 233   0.0000       1.250145        34.0182 
 234   0.0000       1.256931        34.2028 
 235   0.0000       1.278232        34.7825 
 236   0.0000       1.301763        35.4228 
 237   0.0000       1.312459        35.7138 
 238   0.0000       1.329590        36.1800 
 239   0.0000       1.338735        36.4288 
 240   0.0000       1.348536        36.6955 
 241   0.0000       1.359184        36.9853 
 242   0.0000       1.370617        37.2964 
 243   0.0000       1.395997        37.9870 
 244   0.0000       1.401887        38.1473 
 245   0.0000       1.424644        38.7665 
 246   0.0000       1.437494        39.1162 
 247   0.0000       1.441004        39.2117 
 248   0.0000       1.462783        39.8043 
 249   0.0000       1.491846        40.5952 
 250   0.0000       1.511870        41.1401 
 251   0.0000       1.541548        41.9477 
 252   0.0000       1.552160        42.2364 
 253   0.0000       1.612866        43.8883 
 254   0.0000       1.628487        44.3134 
 255   0.0000       1.648169        44.8490 
 256   0.0000       1.653141        44.9843 
 257   0.0000       1.679047        45.6892 
 258   0.0000       1.696458        46.1630 
 259   0.0000       1.708417        46.4884 
 260   0.0000       1.721076        46.8329 
 261   0.0000       1.737555        47.2813 
 262   0.0000       1.748961        47.5917 
 263   0.0000       1.757269        47.8177 
 264   0.0000       1.780703        48.4554 
 265   0.0000       1.787417        48.6381 
 266   0.0000       1.799401        48.9642 
 267   0.0000       1.822320        49.5878 
 268   0.0000       1.840461        50.0815 
 269   0.0000       1.857076        50.5336 
 270   0.0000       1.873455        50.9793 
 271   0.0000       1.882037        51.2128 
 272   0.0000       1.885373        51.3036 
 273   0.0000       1.887588        51.3639 
 274   0.0000       1.902039        51.7571 
 275   0.0000       1.908524        51.9336 
 276   0.0000       1.921209        52.2787 
 277   0.0000       1.936909        52.7060 
 278   0.0000       1.941391        52.8279 
 279   0.0000       1.966322        53.5063 
 280   0.0000       1.976685        53.7883 
 281   0.0000       1.979755        53.8719 
 282   0.0000       1.992597        54.2213 
 283   0.0000       2.015478        54.8440 
 284   0.0000       2.030554        55.2542 
 285   0.0000       2.037171        55.4342 
 286   0.0000       2.045412        55.6585 
 287   0.0000       2.060036        56.0564 
 288   0.0000       2.079504        56.5862 
 289   0.0000       2.102060        57.2000 
 290   0.0000       2.106852        57.3304 
 291   0.0000       2.111719        57.4628 
 292   0.0000       2.135015        58.0967 
 293   0.0000       2.150954        58.5304 
 294   0.0000       2.174447        59.1697 
 295   0.0000       2.178061        59.2681 
 296   0.0000       2.201239        59.8988 
 297   0.0000       2.207480        60.0686 
 298   0.0000       2.212601        60.2079 
 299   0.0000       2.219531        60.3965 
 300   0.0000       2.222843        60.4866 
 301   0.0000       2.235645        60.8350 
 302   0.0000       2.245333        61.0986 
 303   0.0000       2.262802        61.5740 
 304   0.0000       2.286366        62.2152 
 305   0.0000       2.305509        62.7361 
 306   0.0000       2.325636        63.2838 
 307   0.0000       2.367377        64.4196 
 308   0.0000       2.373303        64.5809 
 309   0.0000       2.387076        64.9556 
 310   0.0000       2.407442        65.5098 
 311   0.0000       2.416922        65.7678 
 312   0.0000       2.424773        65.9814 
 313   0.0000       2.431918        66.1758 
 314   0.0000       2.449883        66.6647 
 315   0.0000       2.483586        67.5818 
 316   0.0000       2.525559        68.7240 
 317   0.0000       2.536012        69.0084 
 318   0.0000       2.544015        69.2262 
 319   0.0000       2.554820        69.5202 
 320   0.0000       2.559822        69.6563 
 321   0.0000       2.590048        70.4788 
 322   0.0000       2.614483        71.1437 
 323   0.0000       2.654954        72.2450 
 324   0.0000       2.670057        72.6560 
 325   0.0000       2.688646        73.1618 
 326   0.0000       2.753779        74.9341 
 327   0.0000       2.803392        76.2842 
 328   0.0000       2.809121        76.4401 
 329   0.0000       2.821595        76.7795 
 330   0.0000       2.829515        76.9950 
 331   0.0000       2.843429        77.3736 
 332   0.0000       2.861000        77.8518 
 333   0.0000       2.950880        80.2975 
 334   0.0000       2.996437        81.5372 
 335   0.0000       3.005791        81.7917 
 336   0.0000       3.143684        85.5440 
 337   0.0000       3.181080        86.5616 
 338   0.0000      13.296452       361.8148 
 339   0.0000      13.405057       364.7702 
 340   0.0000      13.504362       367.4724 
 341   0.0000      13.523599       367.9958 
 342   0.0000      13.600001       370.0748 
 343   0.0000      13.757421       374.3585 
 344   0.0000      13.765514       374.5787 
 345   0.0000      13.809487       375.7753 
 346   0.0000      13.819756       376.0547 
 347   0.0000      13.927495       378.9864 
 348   0.0000      14.022599       381.5743 
 349   0.0000      14.040942       382.0734 
 350   0.0000      14.119960       384.2236 
 351   0.0000      14.134146       384.6097 
 352   0.0000      14.256141       387.9293 
 353   0.0000      19.263059       524.1745 
 354   0.0000      25.645300       697.8441 
 355   0.0000      25.687967       699.0051 
 356   0.0000      57.154782      1555.2607 
 357   0.0000     359.471953      9781.7291 

                    ********************************
                    * MULLIKEN POPULATION ANALYSIS *
                    ********************************

-----------------------
MULLIKEN ATOMIC CHARGES
-----------------------
   0 Ir:    0.611650
   1 C :   -0.284397
   2 C :   -0.175186
   3 C :   -0.189225
   4 C :   -0.206742
   5 C :   -0.249881
   6 N :   -0.465798
   7 C :   -0.132413
   8 C :   -0.627451
   9 H :    0.247972
  10 H :    0.221885
  11 H :    0.267677
  12 C :   -0.664472
  13 H :    0.253751
  14 H :    0.267144
  15 H :    0.228165
  16 H :    0.240174
  17 C :    0.050041
  18 C :   -0.219104
  19 H :    0.272373
  20 C :   -0.259988
  21 C :   -0.142361
  22 S :    0.291957
  23 C :   -0.429523
  24 H :    0.372314
  25 H :    0.265418
  26 H :    0.294965
  27 H :    0.293661
  28 H :    0.306602
  29 H :    0.301861
  30 O :   -0.453749
  31 O :   -0.518626
  32 C :    0.613426
  33 C :   -0.765126
  34 H :    0.265912
  35 H :    0.269660
  36 H :    0.251602
  37 H :    0.301134
  38 H :    0.294699
Sum of atomic charges:    1.0000000

--------------------------------
MULLIKEN REDUCED ORBITAL CHARGES
--------------------------------
  0 Irs       :     2.566285  s :     2.566285
      pz      :     2.081138  p :     6.242896
      px      :     2.088369
      py      :     2.073389
      dz2     :     1.797383  d :     7.533086
      dxz     :     1.627021
      dyz     :     1.244726
      dx2y2   :     1.548276
      dxy     :     1.315680
      f0      :     0.004645  f :     0.046083
      f+1     :     0.003639
      f-1     :     0.007050
      f+2     :     0.007856
      f-2     :     0.007874
      f+3     :     0.006542
      f-3     :     0.008475
  1 C s       :     3.343330  s :     3.343330
      pz      :     0.898753  p :     2.891638
      px      :     1.052921
      py      :     0.939963
      dz2     :     0.010331  d :     0.049429
      dxz     :     0.012924
      dyz     :     0.009101
      dx2y2   :     0.007682
      dxy     :     0.009391
  2 C s       :     3.316315  s :     3.316315
      pz      :     1.015996  p :     2.809256
      px      :     0.900419
      py      :     0.892841
      dz2     :     0.011504  d :     0.049615
      dxz     :     0.013891
      dyz     :     0.009108
      dx2y2   :     0.007326
      dxy     :     0.007785
  3 C s       :     3.325405  s :     3.325405
      pz      :     0.981313  p :     2.814858
      px      :     0.979853
      py      :     0.853692
      dz2     :     0.011007  d :     0.048962
      dxz     :     0.013491
      dyz     :     0.006913
      dx2y2   :     0.008938
      dxy     :     0.008614
  4 C s       :     3.302684  s :     3.302684
      pz      :     1.007540  p :     2.857686
      px      :     0.905083
      py      :     0.945063
      dz2     :     0.010925  d :     0.046372
      dxz     :     0.011390
      dyz     :     0.008005
      dx2y2   :     0.007969
      dxy     :     0.008083
  5 C s       :     3.322962  s :     3.322962
      pz      :     0.910898  p :     2.878750
      px      :     0.999678
      py      :     0.968174
      dz2     :     0.010633  d :     0.048169
      dxz     :     0.012367
      dyz     :     0.008596
      dx2y2   :     0.007684
      dxy     :     0.008889
  6 N s       :     3.608400  s :     3.608400
      pz      :     1.224116  p :     3.818642
      px      :     1.287623
      py      :     1.306902
      dz2     :     0.011143  d :     0.038756
      dxz     :     0.008925
      dyz     :     0.008540
      dx2y2   :     0.005915
      dxy     :     0.004233
  7 C s       :     3.259810  s :     3.259810
      pz      :     1.050890  p :     2.811783
      px      :     0.737060
      py      :     1.023833
      dz2     :     0.009786  d :     0.060820
      dxz     :     0.011124
      dyz     :     0.013369
      dx2y2   :     0.016609
      dxy     :     0.009933
  8 C s       :     3.391312  s :     3.391312
      pz      :     1.137155  p :     3.200445
      px      :     1.130185
      py      :     0.933106
      dz2     :     0.005164  d :     0.035693
      dxz     :     0.006050
      dyz     :     0.010937
      dx2y2   :     0.009668
      dxy     :     0.003873
  9 H s       :     0.752028  s :     0.752028
 10 H s       :     0.778115  s :     0.778115
 11 H s       :     0.732323  s :     0.732323
 12 C s       :     3.391625  s :     3.391625
      pz      :     1.053698  p :     3.236742
      px      :     1.083818
      py      :     1.099226
      dz2     :     0.005466  d :     0.036105
      dxz     :     0.008178
      dyz     :     0.009212
      dx2y2   :     0.009223
      dxy     :     0.004026
 13 H s       :     0.746249  s :     0.746249
 14 H s       :     0.732856  s :     0.732856
 15 H s       :     0.771835  s :     0.771835
 16 H s       :     0.759826  s :     0.759826
 17 C s       :     3.222320  s :     3.222320
      pz      :     0.860275  p :     2.663497
      px      :     0.985788
      py      :     0.817434
      dz2     :     0.015720  d :     0.064141
      dxz     :     0.021815
      dyz     :     0.012633
      dx2y2   :     0.006485
      dxy     :     0.007488
 18 C s       :     3.242561  s :     3.242561
      pz      :     0.918784  p :     2.930036
      px      :     0.845386
      py      :     1.165866
      dz2     :     0.014216  d :     0.046508
      dxz     :     0.011333
      dyz     :     0.005979
      dx2y2   :     0.008247
      dxy     :     0.006733
 19 H s       :     0.727627  s :     0.727627
 20 C s       :     3.269953  s :     3.269953
      pz      :     1.152037  p :     2.945640
      px      :     0.865978
      py      :     0.927624
      dz2     :     0.009173  d :     0.044395
      dxz     :     0.012329
      dyz     :     0.005878
      dx2y2   :     0.006796
      dxy     :     0.010219
 21 C s       :     3.221848  s :     3.221848
      pz      :     0.862667  p :     2.878808
      px      :     1.010202
      py      :     1.005940
      dz2     :     0.010761  d :     0.041705
      dxz     :     0.012609
      dyz     :     0.006438
      dx2y2   :     0.007808
      dxy     :     0.004088
 22 S s       :     5.798803  s :     5.798803
      pz      :     3.077121  p :     9.788174
      px      :     3.088880
      py      :     3.622173
      dz2     :     0.043622  d :     0.121065
      dxz     :     0.015861
      dyz     :     0.017214
      dx2y2   :     0.024205
      dxy     :     0.020163
 23 C s       :     3.349764  s :     3.349764
      pz      :     1.083472  p :     3.037438
      px      :     0.932637
      py      :     1.021329
      dz2     :     0.012052  d :     0.042322
      dxz     :     0.011649
      dyz     :     0.005730
      dx2y2   :     0.006729
      dxy     :     0.006162
 24 H s       :     0.627686  s :     0.627686
 25 H s       :     0.734582  s :     0.734582
 26 H s       :     0.705035  s :     0.705035
 27 H s       :     0.706339  s :     0.706339
 28 H s       :     0.693398  s :     0.693398
 29 H s       :     0.698139  s :     0.698139
 30 O s       :     3.782081  s :     3.782081
      pz      :     1.449133  p :     4.644325
      px      :     1.481474
      py      :     1.713717
      dz2     :     0.008035  d :     0.027343
      dxz     :     0.007130
      dyz     :     0.003116
      dx2y2   :     0.004917
      dxy     :     0.004146
 31 O s       :     3.808220  s :     3.808220
      pz      :     1.676855  p :     4.683300
      px      :     1.597636
      py      :     1.408809
      dz2     :     0.003840  d :     0.027106
      dxz     :     0.004382
      dyz     :     0.006197
      dx2y2   :     0.005675
      dxy     :     0.007012
 32 C s       :     2.950313  s :     2.950313
      pz      :     0.752735  p :     2.285329
      px      :     0.746681
      py      :     0.785913
      dz2     :     0.026712  d :     0.150932
      dxz     :     0.023577
      dyz     :     0.029664
      dx2y2   :     0.034794
      dxy     :     0.036185
 33 C s       :     3.427484  s :     3.427484
      pz      :     1.146230  p :     3.304722
      px      :     1.182418
      py      :     0.976074
      dz2     :     0.001891  d :     0.032920
      dxz     :     0.009624
      dyz     :     0.009283
      dx2y2   :     0.010021
      dxy     :     0.002099
 34 H s       :     0.734088  s :     0.734088
 35 H s       :     0.730340  s :     0.730340
 36 H s       :     0.748398  s :     0.748398
 37 H s       :     0.698866  s :     0.698866
 38 H s       :     0.705301  s :     0.705301


                     *******************************
                     * LOEWDIN POPULATION ANALYSIS *
                     *******************************

----------------------
LOEWDIN ATOMIC CHARGES
----------------------
   0 Ir:   -0.124409
   1 C :   -0.028781
   2 C :   -0.013018
   3 C :    0.003163
   4 C :   -0.068280
   5 C :   -0.072162
   6 N :   -0.049932
   7 C :   -0.060690
   8 C :   -0.351070
   9 H :    0.147502
  10 H :    0.134481
  11 H :    0.150592
  12 C :   -0.359660
  13 H :    0.144601
  14 H :    0.154144
  15 H :    0.133618
  16 H :    0.137522
  17 C :    0.036739
  18 C :   -0.230668
  19 H :    0.156832
  20 C :   -0.134599
  21 C :   -0.172619
  22 S :    0.447904
  23 C :   -0.245506
  24 H :    0.201958
  25 H :    0.157436
  26 H :    0.167462
  27 H :    0.187464
  28 H :    0.192384
  29 H :    0.192920
  30 O :   -0.233091
  31 O :   -0.194504
  32 C :    0.120782
  33 C :   -0.383026
  34 H :    0.161972
  35 H :    0.166286
  36 H :    0.149324
  37 H :    0.188532
  38 H :    0.188396

-------------------------------
LOEWDIN REDUCED ORBITAL CHARGES
-------------------------------
  0 Irs       :     2.491824  s :     2.491824
      pz      :     2.220867  p :     6.684961
      px      :     2.201559
      py      :     2.262535
      dz2     :     1.833745  d :     7.872097
      dxz     :     1.704235
      dyz     :     1.337392
      dx2y2   :     1.605779
      dxy     :     1.390946
      f0      :     0.008139  f :     0.075527
      f+1     :     0.005898
      f-1     :     0.010871
      f+2     :     0.013537
      f-2     :     0.013415
      f+3     :     0.009882
      f-3     :     0.013785
  1 C s       :     2.878221  s :     2.878221
      pz      :     1.038030  p :     3.047511
      px      :     1.086095
      py      :     0.923386
      dz2     :     0.023807  d :     0.103049
      dxz     :     0.030804
      dyz     :     0.018889
      dx2y2   :     0.012754
      dxy     :     0.016796
  2 C s       :     2.879511  s :     2.879511
      pz      :     1.067996  p :     3.030076
      px      :     1.034495
      py      :     0.927585
      dz2     :     0.023084  d :     0.103431
      dxz     :     0.031402
      dyz     :     0.016132
      dx2y2   :     0.016384
      dxy     :     0.016429
  3 C s       :     2.885991  s :     2.885991
      pz      :     1.064503  p :     3.008877
      px      :     1.050976
      py      :     0.893398
      dz2     :     0.025499  d :     0.101969
      dxz     :     0.027947
      dyz     :     0.014282
      dx2y2   :     0.017081
      dxy     :     0.017160
  4 C s       :     2.875794  s :     2.875794
      pz      :     1.084681  p :     3.093211
      px      :     1.042054
      py      :     0.966476
      dz2     :     0.023472  d :     0.099275
      dxz     :     0.027321
      dyz     :     0.014762
      dx2y2   :     0.017381
      dxy     :     0.016340
  5 C s       :     2.871202  s :     2.871202
      pz      :     1.034714  p :     3.099143
      px      :     1.063228
      py      :     1.001201
      dz2     :     0.024509  d :     0.101818
      dxz     :     0.028646
      dyz     :     0.017944
      dx2y2   :     0.015055
      dxy     :     0.015664
  6 N s       :     3.128273  s :     3.128273
      pz      :     1.291978  p :     3.831069
      px      :     1.275036
      py      :     1.264055
      dz2     :     0.027145  d :     0.090591
      dxz     :     0.025902
      dyz     :     0.015914
      dx2y2   :     0.012159
      dxy     :     0.009471
  7 C s       :     2.869729  s :     2.869729
      pz      :     1.071065  p :     3.060445
      px      :     0.892084
      py      :     1.097296
      dz2     :     0.020456  d :     0.130516
      dxz     :     0.024733
      dyz     :     0.025713
      dx2y2   :     0.037633
      dxy     :     0.021981
  8 C s       :     2.958227  s :     2.958227
      pz      :     1.139026  p :     3.325748
      px      :     1.133743
      py      :     1.052980
      dz2     :     0.009168  d :     0.067095
      dxz     :     0.009747
      dyz     :     0.020763
      dx2y2   :     0.018939
      dxy     :     0.008477
  9 H s       :     0.852498  s :     0.852498
 10 H s       :     0.865519  s :     0.865519
 11 H s       :     0.849408  s :     0.849408
 12 C s       :     2.955093  s :     2.955093
      pz      :     1.109357  p :     3.336675
      px      :     1.110564
      py      :     1.116755
      dz2     :     0.010327  d :     0.067891
      dxz     :     0.016278
      dyz     :     0.017015
      dx2y2   :     0.016228
      dxy     :     0.008044
 13 H s       :     0.855399  s :     0.855399
 14 H s       :     0.845856  s :     0.845856
 15 H s       :     0.866382  s :     0.866382
 16 H s       :     0.862478  s :     0.862478
 17 C s       :     2.878799  s :     2.878799
      pz      :     1.023425  p :     2.941070
      px      :     1.073363
      py      :     0.844282
      dz2     :     0.036863  d :     0.143392
      dxz     :     0.052961
      dyz     :     0.025906
      dx2y2   :     0.012443
      dxy     :     0.015219
 18 C s       :     2.877694  s :     2.877694
      pz      :     1.012398  p :     3.242662
      px      :     1.098829
      py      :     1.131435
      dz2     :     0.035378  d :     0.110312
      dxz     :     0.029138
      dyz     :     0.011740
      dx2y2   :     0.020234
      dxy     :     0.013822
 19 H s       :     0.843168  s :     0.843168
 20 C s       :     2.885973  s :     2.885973
      pz      :     1.112840  p :     3.144782
      px      :     1.077755
      py      :     0.954188
      dz2     :     0.020810  d :     0.103843
      dxz     :     0.033647
      dyz     :     0.009194
      dx2y2   :     0.017694
      dxy     :     0.022499
 21 C s       :     2.890895  s :     2.890895
      pz      :     1.077230  p :     3.184805
      px      :     1.092045
      py      :     1.015531
      dz2     :     0.029048  d :     0.096918
      dxz     :     0.033389
      dyz     :     0.013755
      dx2y2   :     0.013793
      dxy     :     0.006934
 22 S s       :     5.507182  s :     5.507182
      pz      :     3.158293  p :     9.894321
      px      :     3.158537
      py      :     3.577491
      dz2     :     0.056836  d :     0.150592
      dxz     :     0.018778
      dyz     :     0.020344
      dx2y2   :     0.031962
      dxy     :     0.022672
 23 C s       :     2.963112  s :     2.963112
      pz      :     1.132316  p :     3.193801
      px      :     1.034979
      py      :     1.026506
      dz2     :     0.027867  d :     0.088592
      dxz     :     0.025360
      dyz     :     0.009814
      dx2y2   :     0.013520
      dxy     :     0.012031
 24 H s       :     0.798042  s :     0.798042
 25 H s       :     0.842564  s :     0.842564
 26 H s       :     0.832538  s :     0.832538
 27 H s       :     0.812536  s :     0.812536
 28 H s       :     0.807616  s :     0.807616
 29 H s       :     0.807080  s :     0.807080
 30 O s       :     3.488669  s :     3.488669
      pz      :     1.484697  p :     4.688856
      px      :     1.524497
      py      :     1.679662
      dz2     :     0.011203  d :     0.055566
      dxz     :     0.018085
      dyz     :     0.007869
      dx2y2   :     0.009897
      dxy     :     0.008512
 31 O s       :     3.447292  s :     3.447292
      pz      :     1.653264  p :     4.688655
      px      :     1.606888
      py      :     1.428503
      dz2     :     0.007819  d :     0.058556
      dxz     :     0.007979
      dyz     :     0.012512
      dx2y2   :     0.013011
      dxy     :     0.017235
 32 C s       :     2.800345  s :     2.800345
      pz      :     0.858147  p :     2.735607
      px      :     0.888978
      py      :     0.988482
      dz2     :     0.056692  d :     0.343266
      dxz     :     0.058882
      dyz     :     0.066548
      dx2y2   :     0.079575
      dxy     :     0.081570
 33 C s       :     2.964742  s :     2.964742
      pz      :     1.139940  p :     3.357257
      px      :     1.152082
      py      :     1.065234
      dz2     :     0.003267  d :     0.061027
      dxz     :     0.015865
      dyz     :     0.018212
      dx2y2   :     0.019344
      dxy     :     0.004338
 34 H s       :     0.838028  s :     0.838028
 35 H s       :     0.833714  s :     0.833714
 36 H s       :     0.850676  s :     0.850676
 37 H s       :     0.811468  s :     0.811468
 38 H s       :     0.811604  s :     0.811604


                      *****************************
                      * MAYER POPULATION ANALYSIS *
                      *****************************

  NA   - Mulliken gross atomic population
  ZA   - Total nuclear charge
  QA   - Mulliken gross atomic charge
  VA   - Mayer's total valence
  BVA  - Mayer's bonded valence
  FA   - Mayer's free valence

  ATOM       NA         ZA         QA         VA         BVA        FA
  0 Ir    16.3884    17.0000     0.6116     3.7879     3.7879    -0.0000
  1 C      6.2844     6.0000    -0.2844     3.7162     3.7162    -0.0000
  2 C      6.1752     6.0000    -0.1752     3.6845     3.6845    -0.0000
  3 C      6.1892     6.0000    -0.1892     3.6927     3.6927     0.0000
  4 C      6.2067     6.0000    -0.2067     3.6820     3.6820    -0.0000
  5 C      6.2499     6.0000    -0.2499     3.7069     3.7069    -0.0000
  6 N      7.4658     7.0000    -0.4658     3.2041     3.2041    -0.0000
  7 C      6.1324     6.0000    -0.1324     3.7180     3.7180     0.0000
  8 C      6.6275     6.0000    -0.6275     3.6596     3.6596    -0.0000
  9 H      0.7520     1.0000     0.2480     0.9020     0.9020     0.0000
 10 H      0.7781     1.0000     0.2219     0.9142     0.9142     0.0000
 11 H      0.7323     1.0000     0.2677     0.9052     0.9052     0.0000
 12 C      6.6645     6.0000    -0.6645     3.6828     3.6828     0.0000
 13 H      0.7462     1.0000     0.2538     0.8812     0.8812     0.0000
 14 H      0.7329     1.0000     0.2671     0.8971     0.8971     0.0000
 15 H      0.7718     1.0000     0.2282     0.9109     0.9109     0.0000
 16 H      0.7598     1.0000     0.2402     0.9069     0.9069     0.0000
 17 C      5.9500     6.0000     0.0500     3.6639     3.6639     0.0000
 18 C      6.2191     6.0000    -0.2191     3.7157     3.7157     0.0000
 19 H      0.7276     1.0000     0.2724     0.8971     0.8971    -0.0000
 20 C      6.2600     6.0000    -0.2600     3.6463     3.6463    -0.0000
 21 C      6.1424     6.0000    -0.1424     3.7204     3.7204     0.0000
 22 S     15.7080    16.0000     0.2920     2.5396     2.5396    -0.0000
 23 C      6.4295     6.0000    -0.4295     3.7681     3.7681     0.0000
 24 H      0.6277     1.0000     0.3723     0.8620     0.8620    -0.0000
 25 H      0.7346     1.0000     0.2654     0.8977     0.8977    -0.0000
 26 H      0.7050     1.0000     0.2950     0.8984     0.8984     0.0000
 27 H      0.7063     1.0000     0.2937     0.9073     0.9073    -0.0000
 28 H      0.6934     1.0000     0.3066     0.8941     0.8941     0.0000
 29 H      0.6981     1.0000     0.3019     0.8994     0.8994     0.0000
 30 O      8.4537     8.0000    -0.4537     2.1519     2.1519     0.0000
 31 O      8.5186     8.0000    -0.5186     2.1083     2.1083     0.0000
 32 C      5.3866     6.0000     0.6134     3.9317     3.9317     0.0000
 33 C      6.7651     6.0000    -0.7651     3.6676     3.6676    -0.0000
 34 H      0.7341     1.0000     0.2659     0.8958     0.8958    -0.0000
 35 H      0.7303     1.0000     0.2697     0.8931     0.8931    -0.0000
 36 H      0.7484     1.0000     0.2516     0.9013     0.9013    -0.0000
 37 H      0.6989     1.0000     0.3011     0.8992     0.8992    -0.0000
 38 H      0.7053     1.0000     0.2947     0.9028     0.9028     0.0000

  Mayer bond orders larger than 0.100000
B(  0-Ir,  1-C ) :   0.5728 B(  0-Ir,  2-C ) :   0.4594 B(  0-Ir,  3-C ) :   0.4709 
B(  0-Ir,  4-C ) :   0.3850 B(  0-Ir,  5-C ) :   0.4627 B(  0-Ir,  6-N ) :   0.4882 
B(  0-Ir, 30-O ) :   0.2233 B(  0-Ir, 31-O ) :   0.6021 B(  1-C ,  2-C ) :   1.1135 
B(  1-C ,  4-C ) :   1.1335 B(  1-C , 27-H ) :   0.9146 B(  2-C ,  5-C ) :   1.2166 
B(  2-C , 28-H ) :   0.9017 B(  3-C ,  4-C ) :   1.2356 B(  3-C ,  5-C ) :   1.1099 
B(  3-C , 37-H ) :   0.9020 B(  4-C , 38-H ) :   0.9088 B(  5-C , 29-H ) :   0.9060 
B(  6-N ,  7-C ) :   0.8764 B(  6-N , 17-C ) :   1.6558 B(  7-C ,  8-C ) :   0.9760 
B(  7-C , 12-C ) :   0.9827 B(  7-C , 13-H ) :   0.8933 B(  8-C ,  9-H ) :   0.9060 
B(  8-C , 10-H ) :   0.9176 B(  8-C , 11-H ) :   0.9015 B( 12-C , 14-H ) :   0.9039 
B( 12-C , 15-H ) :   0.9125 B( 12-C , 16-H ) :   0.9187 B( 17-C , 18-C ) :   1.0992 
B( 17-C , 19-H ) :   0.8784 B( 18-C , 20-C ) :   1.4221 B( 18-C , 22-S ) :   1.1426 
B( 20-C , 21-C ) :   1.3285 B( 20-C , 24-H ) :   0.7744 B( 21-C , 23-C ) :   1.4631 
B( 21-C , 25-H ) :   0.9045 B( 22-S , 23-C ) :   1.2802 B( 23-C , 26-H ) :   0.8927 
B( 30-O , 32-C ) :   1.6972 B( 31-O , 32-C ) :   1.2909 B( 32-C , 33-C ) :   0.9348 
B( 33-C , 34-H ) :   0.9040 B( 33-C , 35-H ) :   0.8990 B( 33-C , 36-H ) :   0.9115 



------------------
HIRSHFELD ANALYSIS
------------------

Total integrated alpha density =     81.999423519
Total integrated beta density  =     81.999423519

  ATOM     CHARGE      SPIN    
   0 Ir   0.255951    0.000000
   1 C    0.020425    0.000000
   2 C    0.027621    0.000000
   3 C    0.035359    0.000000
   4 C   -0.001058    0.000000
   5 C   -0.004027    0.000000
   6 N   -0.091413    0.000000
   7 C    0.054564    0.000000
   8 C   -0.072836    0.000000
   9 H    0.047444    0.000000
  10 H    0.035585    0.000000
  11 H    0.037709    0.000000
  12 C   -0.073344    0.000000
  13 H    0.038005    0.000000
  14 H    0.051103    0.000000
  15 H    0.037868    0.000000
  16 H    0.035910    0.000000
  17 C    0.099852    0.000000
  18 C   -0.033322    0.000000
  19 H    0.070220    0.000000
  20 C   -0.041015    0.000000
  21 C   -0.046535    0.000000
  22 S    0.096074    0.000000
  23 C   -0.016109    0.000000
  24 H    0.044169    0.000000
  25 H    0.067206    0.000000
  26 H    0.078641    0.000000
  27 H    0.092142    0.000000
  28 H    0.096435    0.000000
  29 H    0.092835    0.000000
  30 O   -0.282401    0.000000
  31 O   -0.252503    0.000000
  32 C    0.228893    0.000000
  33 C   -0.067099    0.000000
  34 H    0.054713    0.000000
  35 H    0.057366    0.000000
  36 H    0.046857    0.000000
  37 H    0.089585    0.000000
  38 H    0.090283    0.000000

  TOTAL   1.001153    0.000000

-------
TIMINGS
-------

Total SCF time: 0 days 0 hours 20 min 36 sec 

Total time                  ....    1236.945 sec
Sum of individual times     ....    1234.785 sec  ( 99.8%)

Fock matrix formation       ....    1223.904 sec  ( 98.9%)
  Split-RI-J                ....     175.959 sec  ( 14.4% of F)
  Chain of spheres X        ....     954.829 sec  ( 78.0% of F)
  XC integration            ....      92.999 sec  (  7.6% of F)
    Basis function eval.    ....      28.295 sec  ( 30.4% of XC)
    Density eval.           ....      26.384 sec  ( 28.4% of XC)
    XC-Functional eval.     ....       4.016 sec  (  4.3% of XC)
    XC-Potential eval.      ....      29.028 sec  ( 31.2% of XC)
Diagonalization             ....       0.790 sec  (  0.1%)
Density matrix formation    ....       0.126 sec  (  0.0%)
Population analysis         ....       1.584 sec  (  0.1%)
Initial guess               ....       0.035 sec  (  0.0%)
Orbital Transformation      ....       0.467 sec  (  0.0%)
Orbital Orthonormalization  ....       0.000 sec  (  0.0%)
DIIS solution               ....       0.281 sec  (  0.0%)
Grid generation             ....       7.597 sec  (  0.6%)

Maximum memory used throughout the entire SCF-calculation: 169.6 MB


-------------------------------------------------------------------------------
                          DFT DISPERSION CORRECTION                            
                                                                               
                              DFTD3 V3.1  Rev 1                                
                          USING Becke-Johnson damping                          
-------------------------------------------------------------------------------
The PBEh-3c composite method is recognized
Using three-body term ABC
Active option DFTDOPT                   ...         4   

molecular C6(AA) [au] = 19688.090354 


            DFT-D V3
 parameters
 s6 scaling factor         :     1.0000 
 a1 scaling factor         :     0.4860 
 s8 scaling factor         :     0.0000 
 a2 scaling factor         :     4.5000 
 Damping factor alpha9(ATM):    16.0000 
 ad hoc parameters k1-k3   :    16.0000     1.3333    -4.0000 

 Edisp/kcal,au: -18.298540258140  -0.029160576952 
 E6   /kcal   : -18.600279033 
 E8   /kcal   :  -0.000000000 
 E6(ABC)      :   0.301738775 
 % E8         :   0.000000000 
 % E6(ABC)    :  -1.648977299 

-------------------------   ----------------
Dispersion correction           -0.029160577
-------------------------   ----------------

 ** NOTE ** -> element ir will be treated as co
NOTIFICATION: Different basis set in ORCA and otool_gcp:
ORCA: 358  gCP: 357 
If you are NOT using ECPs, check your basis set inputs!
------------------   -----------------
gCP correction             0.073883315
------------------   -----------------

-------------------------   --------------------
FINAL SINGLE POINT ENERGY     -1288.375923481665
-------------------------   --------------------

------------------------------------------------------------------------------
                         ORCA SCF GRADIENT CALCULATION
------------------------------------------------------------------------------

 ... reading COSX grid (gridx3)
Gradient of the Kohn-Sham DFT energy:
Kohn-Sham wavefunction type      ... RKS
Hartree-Fock exchange scaling    ...    0.420
Number of operators              ...    1
Number of atoms                  ...   39
Basis set dimensions             ...  358
Integral neglect threshold       ... 2.5e-11
Integral primitive cutoff        ... 2.5e-12
SHARK Integral package           ... ON

Nuc. rep. gradient       (SHARK) ... done (  0.0 sec)
HCore & Overlap gradient (SHARK) ... done (  2.0 sec)
ECP gradient             (SHARK) ... done (  4.1 sec)
RI-J gradient            (SHARK) ... done (  9.8 sec)
COSX-gradient                    ... done ( 90.1 sec)
Exchange-correlation gradient    ... done
Dispersion correction            ... done
gCP correction                   ... done

------------------
CARTESIAN GRADIENT
------------------

   1   Ir  :   -0.000172697    0.005453417    0.002005410
   2   C   :    0.002033946   -0.003097742   -0.011142805
   3   C   :   -0.003265819    0.000698483    0.016744652
   4   C   :    0.017194234   -0.001809132    0.002897276
   5   C   :   -0.010474568   -0.000129324    0.006403410
   6   C   :   -0.010065419   -0.002107448   -0.014411990
   7   N   :   -0.007529725    0.002301226   -0.010591055
   8   C   :    0.001400154    0.004320194   -0.008209721
   9   C   :   -0.009079183   -0.001923409   -0.000505332
  10   H   :   -0.000341230   -0.000240992   -0.000488326
  11   H   :   -0.000522811    0.000549452   -0.002659308
  12   H   :    0.003735189    0.001717227    0.006405634
  13   C   :   -0.007615918    0.005654396    0.008697294
  14   H   :   -0.001019906   -0.004649245    0.007352353
  15   H   :    0.004333813    0.000645996   -0.002883537
  16   H   :   -0.000443931    0.001476828   -0.001663257
  17   H   :    0.001777473   -0.006498976   -0.001891377
  18   C   :    0.013344376   -0.005654855    0.000968300
  19   C   :    0.037404499   -0.007334360    0.036706278
  20   H   :   -0.015392835    0.003842896   -0.005286535
  21   C   :   -0.028221962   -0.003199031   -0.064569397
  22   C   :   -0.000617989   -0.011344770    0.030849895
  23   S   :    0.004885477    0.008841970    0.007988539
  24   C   :   -0.007161757    0.005059832    0.004992935
  25   H   :    0.004232898    0.012837713    0.002973203
  26   H   :   -0.010364239   -0.001243968   -0.002247115
  27   H   :    0.005095995    0.003712096    0.000419868
  28   H   :    0.004996051   -0.011574204    0.003924882
  29   H   :    0.002278720   -0.005546571   -0.010538494
  30   H   :    0.006462106    0.000496720    0.003870626
  31   O   :   -0.026623221    0.015811482    0.021903585
  32   O   :    0.023743852    0.030174967   -0.014457752
  33   C   :    0.009971788   -0.033570116   -0.018116929
  34   C   :    0.009341776   -0.003442624   -0.004149593
  35   H   :    0.000808859    0.005119289    0.000012193
  36   H   :   -0.000538902    0.002439814   -0.000799096
  37   H   :   -0.007405920    0.004812790    0.005623902
  38   H   :   -0.004194079   -0.005320674    0.006056843
  39   H   :   -0.001877394   -0.007450618   -0.001987029

Difference to translation invariance:
           :    0.0001116986   -0.0001712691    0.0001984300

Difference to rotation invariance:
           :    0.0012020929    0.0038331341    0.0014286883

Norm of the cartesian gradient     ...    0.1318869911
RMS gradient                       ...    0.0121929566
MAX gradient                       ...    0.0645693973

-------
TIMINGS
-------

Total SCF gradient time            ...      121.677 sec

One electron gradient       ....       6.063 sec  (  5.0%)
RI-J Coulomb gradient       ....       9.813 sec  (  8.1%)
COSX gradient               ....      90.114 sec  ( 74.1%)
XC gradient                 ....      13.375 sec  ( 11.0%)

Maximum memory used throughout the entire SCFGRAD-calculation: 136.3 MB

                            ***************************************
                            *     ORCA property calculations      *
                            ***************************************

                                    ---------------------
                                    Active property flags
                                    ---------------------
   (+) Dipole Moment


------------------------------------------------------------------------------
                       ORCA ELECTRIC PROPERTIES CALCULATION
------------------------------------------------------------------------------

Dipole Moment Calculation                       ... on
Quadrupole Moment Calculation                   ... off
Polarizability Calculation                      ... off
GBWName                                         ... 4_5_orca.gbw
Electron density                                ... 4_5_orca.scfp
The origin for moment calculation is the CENTER OF MASS  = ( 0.723030, -0.588016  0.291657)

-------------
DIPOLE MOMENT
-------------
                                X             Y             Z
Electronic contribution:     22.75920     -69.99774     118.51151
Nuclear contribution   :    -23.03768      68.43766    -118.66051
                        -----------------------------------------
Total Dipole Moment    :     -0.27848      -1.56008      -0.14901
                        -----------------------------------------
Magnitude (a.u.)       :      1.59173
Magnitude (Debye)      :      4.04585



--------------------
Rotational spectrum 
--------------------
 
Rotational constants in cm-1:     0.010789     0.007691     0.007071 
Rotational constants in MHz :   323.459924   230.566184   211.968925 

 Dipole components along the rotational axes: 
x,y,z [a.u.] :     0.130350    -0.684128     1.431285 
x,y,z [Debye]:     0.331324    -1.738916     3.638037 

 

Timings for individual modules:

Sum of individual times         ...     1360.364 sec (=  22.673 min)
GTO integral calculation        ...        1.674 sec (=   0.028 min)   0.1 %
SCF iterations                  ...     1236.982 sec (=  20.616 min)  90.9 %
SCF Gradient evaluation         ...      121.709 sec (=   2.028 min)   8.9 %
                             ****ORCA TERMINATED NORMALLY****
TOTAL RUN TIME: 0 days 0 hours 22 minutes 40 seconds 796 msec
