
                                 *****************
                                 * O   R   C   A *
                                 *****************

                                            #,                                       
                                            ###                                      
                                            ####                                     
                                            #####                                    
                                            ######                                   
                                           ########,                                 
                                     ,,################,,,,,                         
                               ,,#################################,,                 
                          ,,##########################################,,             
                       ,#########################################, ''#####,          
                    ,#############################################,,   '####,        
                  ,##################################################,,,,####,       
                ,###########''''           ''''###############################       
              ,#####''   ,,,,##########,,,,          '''####'''          '####       
            ,##' ,,,,###########################,,,                        '##       
           ' ,,###''''                  '''############,,,                           
         ,,##''                                '''############,,,,        ,,,,,,###''
      ,#''                                            '''#######################'''  
     '                                                          ''''####''''         
             ,#######,   #######,   ,#######,      ##                                
            ,#'     '#,  ##    ##  ,#'     '#,    #''#        ######   ,####,        
            ##       ##  ##   ,#'  ##            #'  '#       #        #'  '#        
            ##       ##  #######   ##           ,######,      #####,   #    #        
            '#,     ,#'  ##    ##  '#,     ,#' ,#      #,         ##   #,  ,#        
             '#######'   ##     ##  '#######'  #'      '#     #####' # '####'        



                  #######################################################
                  #                        -***-                        #
                  #          Department of theory and spectroscopy      #
                  #    Directorship and core code : Frank Neese         #
                  #        Max Planck Institute fuer Kohlenforschung    #
                  #                Kaiser Wilhelm Platz 1               #
                  #                 D-45470 Muelheim/Ruhr               #
                  #                      Germany                        #
                  #                                                     #
                  #                  All rights reserved                #
                  #                        -***-                        #
                  #######################################################


                         Program Version 5.0.4 -  RELEASE  -


 With contributions from (in alphabetic order):
   Daniel Aravena         : Magnetic Suceptibility
   Michael Atanasov       : Ab Initio Ligand Field Theory (pilot matlab implementation)
   Alexander A. Auer      : GIAO ZORA, VPT2 properties, NMR spectrum
   Ute Becker             : Parallelization
   Giovanni Bistoni       : ED, misc. LED, open-shell LED, HFLD
   Martin Brehm           : Molecular dynamics
   Dmytro Bykov           : SCF Hessian
   Vijay G. Chilkuri      : MRCI spin determinant printing, contributions to CSF-ICE
   Dipayan Datta          : RHF DLPNO-CCSD density
   Achintya Kumar Dutta   : EOM-CC, STEOM-CC
   Dmitry Ganyushin       : Spin-Orbit,Spin-Spin,Magnetic field MRCI
   Miquel Garcia          : C-PCM and meta-GGA Hessian, CC/C-PCM, Gaussian charge scheme
   Yang Guo               : DLPNO-NEVPT2, F12-NEVPT2, CIM, IAO-localization
   Andreas Hansen         : Spin unrestricted coupled pair/coupled cluster methods
   Benjamin Helmich-Paris : MC-RPA, TRAH-SCF, COSX integrals
   Lee Huntington         : MR-EOM, pCC
   Robert Izsak           : Overlap fitted RIJCOSX, COSX-SCS-MP3, EOM
   Marcus Kettner         : VPT2
   Christian Kollmar      : KDIIS, OOCD, Brueckner-CCSD(T), CCSD density, CASPT2, CASPT2-K
   Simone Kossmann        : Meta GGA functionals, TD-DFT gradient, OOMP2, MP2 Hessian
   Martin Krupicka        : Initial AUTO-CI
   Lucas Lang             : DCDCAS
   Marvin Lechner         : AUTO-CI (C++ implementation), FIC-MRCC
   Dagmar Lenk            : GEPOL surface, SMD
   Dimitrios Liakos       : Extrapolation schemes; Compound Job, initial MDCI parallelization
   Dimitrios Manganas     : Further ROCIS development; embedding schemes
   Dimitrios Pantazis     : SARC Basis sets
   Anastasios Papadopoulos: AUTO-CI, single reference methods and gradients
   Taras Petrenko         : DFT Hessian,TD-DFT gradient, ASA, ECA, R-Raman, ABS, FL, XAS/XES, NRVS
   Peter Pinski           : DLPNO-MP2, DLPNO-MP2 Gradient
   Christoph Reimann      : Effective Core Potentials
   Marius Retegan         : Local ZFS, SOC
   Christoph Riplinger    : Optimizer, TS searches, QM/MM, DLPNO-CCSD(T), (RO)-DLPNO pert. Triples
   Tobias Risthaus        : Range-separated hybrids, TD-DFT gradient, RPA, STAB
   Michael Roemelt        : Original ROCIS implementation
   Masaaki Saitow         : Open-shell DLPNO-CCSD energy and density
   Barbara Sandhoefer     : DKH picture change effects
   Avijit Sen             : IP-ROCIS
   Kantharuban Sivalingam : CASSCF convergence, NEVPT2, FIC-MRCI
   Bernardo de Souza      : ESD, SOC TD-DFT
   Georgi Stoychev        : AutoAux, RI-MP2 NMR, DLPNO-MP2 response
   Willem Van den Heuvel  : Paramagnetic NMR
   Boris Wezisla          : Elementary symmetry handling
   Frank Wennmohs         : Technical directorship


 We gratefully acknowledge several colleagues who have allowed us to
 interface, adapt or use parts of their codes:
   Stefan Grimme, W. Hujo, H. Kruse, P. Pracht,  : VdW corrections, initial TS optimization,
                  C. Bannwarth, S. Ehlert          DFT functionals, gCP, sTDA/sTD-DF
   Ed Valeev, F. Pavosevic, A. Kumar             : LibInt (2-el integral package), F12 methods
   Garnet Chan, S. Sharma, J. Yang, R. Olivares  : DMRG
   Ulf Ekstrom                                   : XCFun DFT Library
   Mihaly Kallay                                 : mrcc  (arbitrary order and MRCC methods)
   Jiri Pittner, Ondrej Demel                    : Mk-CCSD
   Frank Weinhold                                : gennbo (NPA and NBO analysis)
   Christopher J. Cramer and Donald G. Truhlar   : smd solvation model
   Lars Goerigk                                  : TD-DFT with DH, B97 family of functionals
   V. Asgeirsson, H. Jonsson                     : NEB implementation
   FAccTs GmbH                                   : IRC, NEB, NEB-TS, DLPNO-Multilevel, CI-OPT
                                                   MM, QMMM, 2- and 3-layer-ONIOM, Crystal-QMMM,
                                                   LR-CPCM, SF, NACMEs, symmetry and pop. for TD-DFT,
                                                   nearIR, NL-DFT gradient (VV10), updates on ESD,
                                                   ML-optimized integration grids
   S Lehtola, MJT Oliveira, MAL Marques          : LibXC Library
   Liviu Ungur et al                             : ANISO software


 Your calculation uses the libint2 library for the computation of 2-el integrals
 For citations please refer to: http://libint.valeyev.net

 Your ORCA version has been built with support for libXC version: 5.1.0
 For citations please refer to: https://tddft.org/programs/libxc/

 This ORCA versions uses:
   CBLAS   interface :  Fast vector & matrix operations
   LAPACKE interface :  Fast linear algebra routines
   SCALAPACK package :  Parallel linear algebra routines
   Shared memory     :  Shared parallel matrices
   BLAS/LAPACK       :  OpenBLAS 0.3.15  USE64BITINT DYNAMIC_ARCH NO_AFFINITY SkylakeX SINGLE_THREADED
        Core in use  :  SkylakeX
   Copyright (c) 2011-2014, The OpenBLAS Project




***************************************
The coordinates will be read from file: DHSGS_ts_guess.xyz
***************************************




################################################################################


                                COMPOUND JOB MainJOB 
Basename: reaction-2-dhsgs_optts_Compound_0

################################################################################

================================================================================
                                       INPUT FILE
================================================================================
NAME = reaction-2-dhsgs_optts_Compound_0.inp
|  1> %pal nprocs 8 end 
|  2>   
|  3>  *xyzfile -1 1 DHSGS_ts_guess.xyz 
|  4>   
|  5> 
|  6>                          ****END OF INPUT****
================================================================================


***************************************
The coordinates will be read from file: DHSGS_ts_guess.xyz
***************************************


================================================================================

cite the ECPs for Pd [Def2-ECP] as follows:
Ce-Yb(ecp-28): M. Dolg, H. Stoll, H.Preuss, J. Chem. Phys., 1989, 90, 1730-1734.
Y-Cd(ecp-28), Hf-Hg(ecp-46): D. Andrae,U. Haeussermann, M. Dolg, H. Stoll, H. Preuss, Theor. Chim. Acta, 1990, 77, 123-141.
In-Sb(ecp-28), Tl-Bi(ecp-46): B. Metz, H. Stoll, M. Dolg, J. Chem. Phys., 2000, 113, 2563-2569.
Te-Xe(ecp-28), Po-Rn(ecp-46): K. A. Peterson, D. Figgen, E. Goll, H. Stoll, M. Dolg, J. Chem. Phys., 2003, 119, 11113-11123.
Rb(ecp-28), Cs(ecp-46): T. Leininger, A. Nicklass, W. Kuechle, H. Stoll, M. Dolg, A. Bergner, Chem. Phys. Lett., 1996, 255, 274-280.
Sr(ecp-28), Ba(ecp-46): M. Kaupp, P. V. Schleyer, H. Stoll and H. Preuss, J. Chem. Phys., 1991, 94, 1360-1366.
La(ecp-46): M. Dolg, H. Stoll, A. Savin, H. Preuss, Theor. Chim. Acta, 1989, 75, 173-194.
Lu(ecp-28): X. Cao, M. Dolg, J. Chem. Phys., 2001, 115, 7348-7355.

ECP parameters for Pd [Def2-ECP] have been obtained from:
TURBOMOLE (7.0.2)

----- Orbital basis set information -----
Your calculation utilizes the basis: def2-SVP
   F. Weigend and R. Ahlrichs, Phys. Chem. Chem. Phys. 7, 3297 (2005).



################################################################################


                                COMPOUND JOB  1 
Basename: reaction-2-dhsgs_optts_Compound_1
NOTE: please remember that MaxCore and PAL settings will be ignored.

################################################################################

================================================================================
                                       INPUT FILE
================================================================================
NAME = reaction-2-dhsgs_optts_Compound_1.inp
|  1>   
|  2>    
|  3>   ! PBEh-3c OptTS Freq pal8 
|  4>    
|  5>   %geom 
|  6>    calc_hess true 
|  7>    recalc_hess 20 
|  8>    maxiter 600 
|  9>   end  
| 10>    
| 11> 
| 12>                          ****END OF INPUT****
================================================================================
Your calculation utilizes the geometrical counterpoise correction gCP
Please cite in your paper:
H.Kruse, S. Grimme J.Chem.Phys., 136, (2012), 154101 
   

Your calculation utilizes the atom-pairwise dispersion correction
with the Becke-Johnson damping scheme (D3BJ)
Cite in your paper:
S.Grimme, S.Ehrlich, L.Goerigk, J Comput Chem, (2011), 32, 1456–1465 
S.Grimme, J.Antony, S.Ehrlich and H.Krieg, J.Chem.Phys., 132, (2010), 154104 
   

Your calculation employs the composite approach PBEh-3c.
Please cite in your paper:
S. Grimme, J. G. Brandenburg, C. Bannwarth, A. Hansen J.Chem.Phys., 143, (2015), 054107 
   

================================================================================

cite the ECPs for Pd [Def2-ECP] as follows:
Ce-Yb(ecp-28): M. Dolg, H. Stoll, H.Preuss, J. Chem. Phys., 1989, 90, 1730-1734.
Y-Cd(ecp-28), Hf-Hg(ecp-46): D. Andrae,U. Haeussermann, M. Dolg, H. Stoll, H. Preuss, Theor. Chim. Acta, 1990, 77, 123-141.
In-Sb(ecp-28), Tl-Bi(ecp-46): B. Metz, H. Stoll, M. Dolg, J. Chem. Phys., 2000, 113, 2563-2569.
Te-Xe(ecp-28), Po-Rn(ecp-46): K. A. Peterson, D. Figgen, E. Goll, H. Stoll, M. Dolg, J. Chem. Phys., 2003, 119, 11113-11123.
Rb(ecp-28), Cs(ecp-46): T. Leininger, A. Nicklass, W. Kuechle, H. Stoll, M. Dolg, A. Bergner, Chem. Phys. Lett., 1996, 255, 274-280.
Sr(ecp-28), Ba(ecp-46): M. Kaupp, P. V. Schleyer, H. Stoll and H. Preuss, J. Chem. Phys., 1991, 94, 1360-1366.
La(ecp-46): M. Dolg, H. Stoll, A. Savin, H. Preuss, Theor. Chim. Acta, 1989, 75, 173-194.
Lu(ecp-28): X. Cao, M. Dolg, J. Chem. Phys., 2001, 115, 7348-7355.

ECP parameters for Pd [Def2-ECP] have been obtained from:
TURBOMOLE (7.0.2)

----- Orbital basis set information -----
Your calculation utilizes the basis: def2-mSVP

----- AuxJ basis set information -----
Your calculation utilizes the auxiliary basis: def2/J
   F. Weigend, Phys. Chem. Chem. Phys. 8, 1057 (2006).

================================================================================
                                        WARNINGS
                       Please study these warnings very carefully!
================================================================================


WARNING: Geometry Optimization
  ===> : Switching off AutoStart
         For restart on a previous wavefunction, please use MOREAD

INFO   : the flag for use of the SHARK integral package has been found!


                       *****************************
                       * Geometry Optimization Run *
                       *****************************

Geometry optimization settings:
Update method            Update   .... Bofill
Choice of coordinates    CoordSys .... Z-matrix Internals
Initial Hessian          InHess   .... Almoef's Model

Convergence Tolerances:
Energy Change            TolE     ....  5.0000e-06 Eh
Max. Gradient            TolMAXG  ....  3.0000e-04 Eh/bohr
RMS Gradient             TolRMSG  ....  1.0000e-04 Eh/bohr
Max. Displacement        TolMAXD  ....  4.0000e-03 bohr
RMS Displacement         TolRMSD  ....  2.0000e-03 bohr
Strict Convergence                ....  False
------------------------------------------------------------------------------
                        ORCA OPTIMIZATION COORDINATE SETUP
------------------------------------------------------------------------------

The optimization will be done in new redundant internal coordinates
Making redundant internal coordinates   ...  (new redundants) done
Following TS mode number                ...     0
Evaluating the initial hessian          ...  (Is done on the fly) done
Evaluating the coordinates              ...  done
Calculating the B-matrix                .... done
Calculating the G-matrix                .... done
Diagonalizing the G-matrix              .... done
The first mode is                       ....  112
The number of degrees of freedom        ....   75

    -----------------------------------------------------------------
                    Redundant Internal Coordinates


    -----------------------------------------------------------------
         Definition                    Initial Value    d2E/dq (diagonal element)
    -----------------------------------------------------------------
      1. B(Cl  1,Pd  0)                  2.2706         0.000000   
      2. B(Cl  2,Pd  0)                  3.0790         0.000000   
      3. B(Cl  3,Pd  0)                  2.2931         0.000000   
      4. B(N   4,Pd  0)                  2.0561         0.000000   
      5. B(C   5,N   4)                  1.3154         0.000000   
      6. B(C   6,C   5)                  1.3963         0.000000   
      7. B(C   7,C   6)                  1.3717         0.000000   
      8. B(C   8,N   4)                  1.3518         0.000000   
      9. B(C   9,C   8)                  1.4047         0.000000   
     10. B(C   9,C   7)                  1.4011         0.000000   
     11. B(H  10,C   7)                  1.0833         0.000000   
     12. B(H  11,C   5)                  1.0804         0.000000   
     13. B(H  12,C   6)                  1.0800         0.000000   
     14. B(C  13,C   8)                  1.4305         0.000000   
     15. B(C  14,C   9)                  1.4297         0.000000   
     16. B(C  15,C  14)                  1.3529         0.000000   
     17. B(C  16,C  15)                  1.4310         0.000000   
     18. B(C  16,C  13)                  1.4052         0.000000   
     19. B(H  17,C  14)                  1.0831         0.000000   
     20. B(H  18,C  15)                  1.0842         0.000000   
     21. B(C  19,C  13)                  1.4122         0.000000   
     22. B(C  19,Pd  0)                  2.3034         0.000000   
     23. B(C  20,C  16)                  1.4047         0.000000   
     24. B(C  21,C  19)                  1.3808         0.000000   
     25. B(C  22,C  21)                  1.4000         0.000000   
     26. B(C  22,C  20)                  1.3773         0.000000   
     27. B(H  23,C  20)                  1.0829         0.000000   
     28. B(H  24,C  22)                  1.0828         0.000000   
     29. B(H  25,C  19)                  1.1805         0.000000   
     30. B(H  25,Pd  0)                  1.9663         0.000000   
     31. B(H  26,C  21)                  1.0819         0.000000   
     32. A(Cl  1,Pd  0,C  19)           96.2354         0.000000   
     33. A(Cl  1,Pd  0,Cl  2)           98.3226         0.000000   
     34. A(Cl  2,Pd  0,C  19)           68.1279         0.000000   
     35. A(Cl  2,Pd  0,Cl  3)          129.8391         0.000000   
     36. A(Cl  3,Pd  0,H  25)          167.7053         0.000000   
     37. A(Cl  3,Pd  0,N   4)           91.9496         0.000000   
     38. A(N   4,Pd  0,C  19)           78.9078         0.000000   
     39. A(Cl  1,Pd  0,H  25)           92.7760         0.000000   
     40. A(Cl  2,Pd  0,N   4)           80.5242         0.000000   
     41. A(Cl  2,Pd  0,H  25)           38.1979         0.000000   
     42. A(Cl  3,Pd  0,C  19)          158.6106         0.000000   
     43. A(Cl  1,Pd  0,Cl  3)           92.4191         0.000000   
     44. A(N   4,Pd  0,H  25)           83.3720         0.000000   
     45. A(C  19,Pd  0,H  25)           30.8297         0.000000   
     46. A(C   5,N   4,C   8)          119.8819         0.000000   
     47. A(Pd  0,N   4,C   8)          115.2084         0.000000   
     48. A(Pd  0,N   4,C   5)          124.6807         0.000000   
     49. A(N   4,C   5,C   6)          121.9428         0.000000   
     50. A(C   6,C   5,H  11)          121.6138         0.000000   
     51. A(N   4,C   5,H  11)          116.3961         0.000000   
     52. A(C   7,C   6,H  12)          121.3487         0.000000   
     53. A(C   5,C   6,H  12)          119.2602         0.000000   
     54. A(C   5,C   6,C   7)          119.3423         0.000000   
     55. A(C   6,C   7,H  10)          120.7598         0.000000   
     56. A(C   6,C   7,C   9)          119.3192         0.000000   
     57. A(C   9,C   7,H  10)          119.9159         0.000000   
     58. A(N   4,C   8,C   9)          121.3980         0.000000   
     59. A(C   9,C   8,C  13)          120.5493         0.000000   
     60. A(N   4,C   8,C  13)          117.9271         0.000000   
     61. A(C   7,C   9,C   8)          117.7729         0.000000   
     62. A(C   8,C   9,C  14)          118.4469         0.000000   
     63. A(C   7,C   9,C  14)          123.7391         0.000000   
     64. A(C   8,C  13,C  16)          119.2266         0.000000   
     65. A(C  16,C  13,C  19)          120.9888         0.000000   
     66. A(C   8,C  13,C  19)          119.7821         0.000000   
     67. A(C  15,C  14,H  17)          120.5316         0.000000   
     68. A(C   9,C  14,H  17)          118.4253         0.000000   
     69. A(C   9,C  14,C  15)          121.0213         0.000000   
     70. A(C  16,C  15,H  18)          118.6560         0.000000   
     71. A(C  14,C  15,H  18)          119.9153         0.000000   
     72. A(C  14,C  15,C  16)          121.4206         0.000000   
     73. A(C  13,C  16,C  15)          118.7959         0.000000   
     74. A(C  15,C  16,C  20)          122.8927         0.000000   
     75. A(C  13,C  16,C  20)          118.3058         0.000000   
     76. A(C  21,C  19,H  25)          116.8614         0.000000   
     77. A(C  13,C  19,H  25)          117.5026         0.000000   
     78. A(Pd  0,C  19,H  25)           58.6037         0.000000   
     79. A(C  13,C  19,C  21)          118.6072         0.000000   
     80. A(Pd  0,C  19,C  21)          128.4852         0.000000   
     81. A(Pd  0,C  19,C  13)          103.2533         0.000000   
     82. A(C  22,C  20,H  23)          120.1580         0.000000   
     83. A(C  16,C  20,H  23)          119.3659         0.000000   
     84. A(C  16,C  20,C  22)          120.4760         0.000000   
     85. A(C  22,C  21,H  26)          120.9588         0.000000   
     86. A(C  19,C  21,H  26)          118.4994         0.000000   
     87. A(C  19,C  21,C  22)          120.5032         0.000000   
     88. A(C  21,C  22,H  24)          119.8320         0.000000   
     89. A(C  20,C  22,H  24)          119.5552         0.000000   
     90. A(C  20,C  22,C  21)          120.5595         0.000000   
     91. A(Pd  0,H  25,C  19)           90.5666         0.000000   
     92. D(C   5,N   4,Pd  0,Cl  2)   -101.4418         0.000000   
     93. D(C   5,N   4,Pd  0,Cl  3)     28.6632         0.000000   
     94. D(C   5,N   4,Pd  0,H  25)   -139.9318         0.000000   
     95. D(C   8,N   4,Pd  0,H  25)     45.5969         0.000000   
     96. D(C   8,N   4,Pd  0,Cl  2)     84.0868         0.000000   
     97. D(C   5,N   4,Pd  0,C  19)   -170.8225         0.000000   
     98. D(C   8,N   4,Pd  0,Cl  3)   -145.8082         0.000000   
     99. D(C   8,N   4,Pd  0,C  19)     14.7061         0.000000   
    100. D(H  11,C   5,N   4,C   8)    179.4652         0.000000   
    101. D(C   6,C   5,N   4,Pd  0)   -172.3004         0.000000   
    102. D(C   6,C   5,N   4,C   8)      1.9297         0.000000   
    103. D(H  11,C   5,N   4,Pd  0)      5.2350         0.000000   
    104. D(H  12,C   6,C   5,N   4)   -179.8224         0.000000   
    105. D(C   7,C   6,C   5,H  11)   -174.7230         0.000000   
    106. D(H  12,C   6,C   5,H  11)      2.7700         0.000000   
    107. D(C   7,C   6,C   5,N   4)      2.6846         0.000000   
    108. D(H  10,C   7,C   6,C   5)    176.3391         0.000000   
    109. D(C   9,C   7,C   6,C   5)     -2.8419         0.000000   
    110. D(H  10,C   7,C   6,H  12)     -1.0999         0.000000   
    111. D(C   9,C   7,C   6,H  12)    179.7191         0.000000   
    112. D(C   9,C   8,N   4,C   5)     -6.3408         0.000000   
    113. D(C  13,C   8,N   4,C   5)    177.7130         0.000000   
    114. D(C  13,C   8,N   4,Pd  0)     -7.5296         0.000000   
    115. D(C   9,C   8,N   4,Pd  0)    168.4165         0.000000   
    116. D(C   7,C   9,C   8,N   4)      5.9889         0.000000   
    117. D(C   7,C   9,C   8,C  13)   -178.1704         0.000000   
    118. D(C  14,C   9,C   7,H  10)     -2.8723         0.000000   
    119. D(C  14,C   9,C   7,C   6)    176.3158         0.000000   
    120. D(C   8,C   9,C   7,H  10)    179.4977         0.000000   
    121. D(C   8,C   9,C   7,C   6)     -1.3142         0.000000   
    122. D(C  14,C   9,C   8,N   4)   -171.7697         0.000000   
    123. D(C  14,C   9,C   8,C  13)      4.0710         0.000000   
    124. D(C  19,C  13,C   8,C   9)    171.9799         0.000000   
    125. D(C  19,C  13,C   8,N   4)    -12.0380         0.000000   
    126. D(C  16,C  13,C   8,C   9)     -8.5825         0.000000   
    127. D(C  16,C  13,C   8,N   4)    167.3996         0.000000   
    128. D(H  17,C  14,C   9,C   8)   -179.9027         0.000000   
    129. D(H  17,C  14,C   9,C   7)      2.4822         0.000000   
    130. D(C  15,C  14,C   9,C   8)      1.7892         0.000000   
    131. D(C  15,C  14,C   9,C   7)   -175.8259         0.000000   
    132. D(H  18,C  15,C  14,H  17)     -0.3392         0.000000   
    133. D(H  18,C  15,C  14,C   9)    177.9333         0.000000   
    134. D(C  16,C  15,C  14,H  17)    178.6092         0.000000   
    135. D(C  16,C  15,C  14,C   9)     -3.1182         0.000000   
    136. D(C  20,C  16,C  15,H  18)     -1.6339         0.000000   
    137. D(C  20,C  16,C  15,C  14)    179.4047         0.000000   
    138. D(C  13,C  16,C  15,H  18)    177.4954         0.000000   
    139. D(C  13,C  16,C  15,C  14)     -1.4660         0.000000   
    140. D(C  20,C  16,C  13,C  19)      5.7983         0.000000   
    141. D(C  20,C  16,C  13,C   8)   -173.6323         0.000000   
    142. D(C  15,C  16,C  13,C  19)   -173.3713         0.000000   
    143. D(C  15,C  16,C  13,C   8)      7.1980         0.000000   
    144. D(C  21,C  19,Pd  0,H  25)    101.0128         0.000000   
    145. D(C  21,C  19,Pd  0,N   4)   -163.3065         0.000000   
    146. D(C  21,C  19,Pd  0,Cl  3)    -97.2276         0.000000   
    147. D(C  21,C  19,Pd  0,Cl  2)    112.5523         0.000000   
    148. D(C  21,C  19,Pd  0,Cl  1)     16.0616         0.000000   
    149. D(C  13,C  19,Pd  0,H  25)   -114.3341         0.000000   
    150. D(C  13,C  19,Pd  0,N   4)    -18.6534         0.000000   
    151. D(C  13,C  19,Pd  0,Cl  3)     47.4255         0.000000   
    152. D(C  13,C  19,Pd  0,Cl  2)   -102.7946         0.000000   
    153. D(H  25,C  19,Pd  0,Cl  1)    -84.9512         0.000000   
    154. D(C  13,C  19,Pd  0,Cl  1)    160.7147         0.000000   
    155. D(H  25,C  19,C  13,C  16)    141.0091         0.000000   
    156. D(C  21,C  19,C  13,C  16)     -8.7795         0.000000   
    157. D(C  21,C  19,C  13,C   8)    170.6481         0.000000   
    158. D(Pd  0,C  19,C  13,C  16)   -157.7270         0.000000   
    159. D(Pd  0,C  19,C  13,C   8)     21.7005         0.000000   
    160. D(H  25,C  19,Pd  0,N   4)     95.6807         0.000000   
    161. D(H  25,C  19,C  13,C   8)    -39.5633         0.000000   
    162. D(H  25,C  19,Pd  0,Cl  3)    161.7596         0.000000   
    163. D(H  25,C  19,Pd  0,Cl  2)     11.5395         0.000000   
    164. D(H  23,C  20,C  16,C  15)     -0.2554         0.000000   
    165. D(H  23,C  20,C  16,C  13)   -179.3887         0.000000   
    166. D(C  22,C  20,C  16,C  15)    179.8929         0.000000   
    167. D(C  22,C  20,C  16,C  13)      0.7595         0.000000   
    168. D(H  26,C  21,C  19,H  25)     33.0009         0.000000   
    169. D(H  26,C  21,C  19,C  13)   -177.0195         0.000000   
    170. D(H  26,C  21,C  19,Pd  0)    -36.9173         0.000000   
    171. D(C  22,C  21,C  19,H  25)   -144.7602         0.000000   
    172. D(C  22,C  21,C  19,C  13)      5.2194         0.000000   
    173. D(C  22,C  21,C  19,Pd  0)    145.3216         0.000000   
    174. D(H  24,C  22,C  21,H  26)      0.8351         0.000000   
    175. D(H  24,C  22,C  21,C  19)    178.5406         0.000000   
    176. D(C  20,C  22,C  21,H  26)   -176.4992         0.000000   
    177. D(C  20,C  22,C  21,C  19)      1.2063         0.000000   
    178. D(H  24,C  22,C  20,H  23)     -1.4623         0.000000   
    179. D(H  24,C  22,C  20,C  16)    178.3882         0.000000   
    180. D(C  21,C  22,C  20,H  23)    175.8793         0.000000   
    181. D(C  21,C  22,C  20,C  16)     -4.2701         0.000000   
    182. D(Pd  0,H  25,C  19,C  21)   -120.5389         0.000000   
    183. D(Pd  0,H  25,C  19,C  13)     89.1437         0.000000   
    184. D(C  19,H  25,Pd  0,N   4)    -79.4420         0.000000   
    185. D(C  19,H  25,Pd  0,Cl  3)   -147.5823         0.000000   
    186. D(C  19,H  25,Pd  0,Cl  2)   -162.5298         0.000000   
    187. D(C  19,H  25,Pd  0,Cl  1)     97.5238         0.000000   
    -----------------------------------------------------------------

Number of atoms                         .... 27
Number of degrees of freedom            .... 187

         *************************************************************
         *                GEOMETRY OPTIMIZATION CYCLE   1            *
         *************************************************************
---------------------------------
CARTESIAN COORDINATES (ANGSTROEM)
---------------------------------
  Pd    -2.131480   -1.585030    0.360850
  Cl    -3.092910   -3.275890   -0.810560
  Cl     0.128100   -3.195740    1.695150
  Cl    -4.147030   -0.898940    1.212380
  N     -1.133240   -0.052980    1.300900
  C     -1.516270    0.510710    2.425950
  C     -0.886770    1.648940    2.933680
  C      0.126150    2.233190    2.216580
  C     -0.076870    0.447890    0.622150
  C      0.548610    1.641500    1.018830
  H      0.590480    3.149860    2.559520
  H     -2.371890    0.070180    2.916930
  H     -1.235080    2.074510    3.863170
  C      0.334680   -0.227290   -0.569890
  C      1.540720    2.208640    0.159670
  C      1.847700    1.633470   -1.025730
  C      1.242760    0.403570   -1.437020
  H      2.023900    3.128090    0.466620
  H      2.578860    2.097070   -1.678440
  C     -0.182990   -1.507600   -0.865190
  C      1.529430   -0.214170   -2.665620
  C      0.073020   -2.053890   -2.107210
  C      0.919390   -1.399820   -3.010460
  H      2.234330    0.251990   -3.342670
  H      1.131420   -1.849570   -3.972340
  H     -0.315060   -2.262620    0.032680
  H     -0.364980   -3.012980   -2.349530

----------------------------
CARTESIAN COORDINATES (A.U.)
----------------------------
  NO LB      ZA    FRAG     MASS         X           Y           Z
   0 Pd   18.0000*   0   106.400   -4.027913   -2.995273    0.681908
   1 Cl   17.0000    0    35.453   -5.844753   -6.190535   -1.531736
   2 Cl   17.0000    0    35.453    0.242074   -6.039073    3.203369
   3 Cl   17.0000    0    35.453   -7.836751   -1.698750    2.291066
   4 N     7.0000    0    14.007   -2.141513   -0.100118    2.458345
   5 C     6.0000    0    12.011   -2.865335    0.965102    4.584381
   6 C     6.0000    0    12.011   -1.675752    3.116045    5.543852
   7 C     6.0000    0    12.011    0.238389    4.220118    4.188729
   8 C     6.0000    0    12.011   -0.145263    0.846389    1.175693
   9 C     6.0000    0    12.011    1.036723    3.101985    1.925310
  10 H     1.0000    0     1.008    1.115845    5.952373    4.836792
  11 H     1.0000    0     1.008   -4.482223    0.132621    5.512199
  12 H     1.0000    0     1.008   -2.333963    3.920256    7.300333
  13 C     6.0000    0    12.011    0.632454   -0.429516   -1.076936
  14 C     6.0000    0    12.011    2.911539    4.173725    0.301733
  15 C     6.0000    0    12.011    3.491647    3.086811   -1.938349
  16 C     6.0000    0    12.011    2.348476    0.762637   -2.715574
  17 H     1.0000    0     1.008    3.824617    5.911233    0.881784
  18 H     1.0000    0     1.008    4.873339    3.962888   -3.171792
  19 C     6.0000    0    12.011   -0.345801   -2.848951   -1.634972
  20 C     6.0000    0    12.011    2.890204   -0.404723   -5.037292
  21 C     6.0000    0    12.011    0.137988   -3.881290   -3.982050
  22 C     6.0000    0    12.011    1.737395   -2.645276   -5.688945
  23 H     1.0000    0     1.008    4.222272    0.476192   -6.316731
  24 H     1.0000    0     1.008    2.138074   -3.495181   -7.506635
  25 H     1.0000    0     1.008   -0.595377   -4.275732    0.061756
  26 H     1.0000    0     1.008   -0.689712   -5.693707   -4.439968
* core charge reduced due to ECP

--------------------------------
INTERNAL COORDINATES (ANGSTROEM)
--------------------------------
 Pd     0   0   0     0.000000000000     0.00000000     0.00000000
 Cl     1   0   0     2.270585072751     0.00000000     0.00000000
 Cl     1   2   0     3.079033122670    98.32262104     0.00000000
 Cl     1   2   3     2.293090628715    92.41905960   229.14028518
 N      1   2   3     2.056053088468   175.10319703    76.01441274
 C      5   1   2     1.315369111504   124.68067529   181.79814433
 C      6   5   1     1.396290634431   121.94276058   187.69958622
 C      7   6   5     1.371709662757   119.34233897     2.68457127
 C      5   1   2     1.351846846466   115.20841700     7.32676136
 C      8   7   6     1.401133316355   119.31921859   357.15814906
 H      8   7   6     1.083279318274   120.75978413   176.33914997
 H      6   5   1     1.080376612899   116.39614815     5.23503151
 H      7   6   5     1.079991361586   119.26016462   180.17760799
 C      9   5   1     1.430454751644   117.92705398   352.47037696
 C     10   8   7     1.429715334359   123.73913809   176.31577500
 C     15  10   8     1.352860084894   121.02126126   184.17411644
 C     14   9   5     1.405171897990   119.22661733   167.39962001
 H     15  10   8     1.083083338160   118.42527985     2.48222540
 H     16  15  10     1.084227950986   119.91527422   177.93332860
 C     14   9   5     1.412224491715   119.78213569   347.96196414
 C     17  14   9     1.404720739685   118.30584576   186.36767845
 C     20  14   9     1.380792368389   118.60724890   170.64808054
 C     21  17  14     1.377254279245   120.47596740     0.75951979
 H     21  17  14     1.082860036247   119.36585459   180.61125795
 H     23  21  17     1.082794956490   119.55522232   178.38821374
 H     20  14   9     1.180537259980   117.50261885   320.43667281
 H     22  20  14     1.081857943771   118.49935906   182.98046157

---------------------------
INTERNAL COORDINATES (A.U.)
---------------------------
 Pd     0   0   0     0.000000000000     0.00000000     0.00000000
 Cl     1   0   0     4.290783951269     0.00000000     0.00000000
 Cl     1   2   0     5.818529359119    98.32262104     0.00000000
 Cl     1   2   3     4.333313288532    92.41905960   229.14028518
 N      1   2   3     3.885377254008   175.10319703    76.01441274
 C      5   1   2     2.485687385763   124.68067529   181.79814433
 C      6   5   1     2.638606902434   121.94276058   187.69958622
 C      7   6   5     2.592155597864   119.34233897     2.68457127
 C      5   1   2     2.554620314826   115.20841700     7.32676136
 C      8   7   6     2.647758245024   119.31921859   357.15814906
 H      8   7   6     2.047101238079   120.75978413   176.33914997
 H      6   5   1     2.041615919873   116.39614815     5.23503151
 H      7   6   5     2.040887900398   119.26016462   180.17760799
 C      9   5   1     2.703167727573   117.92705398   352.47037696
 C     10   8   7     2.701770431405   123.73913809   176.31577500
 C     15  10   8     2.556535057964   121.02126126   184.17411644
 C     14   9   5     2.655390058283   119.22661733   167.39962001
 H     15  10   8     2.046730889336   118.42527985     2.48222540
 H     16  15  10     2.048893894107   119.91527422   177.93332860
 C     14   9   5     2.668717528958   119.78213569   347.96196414
 C     17  14   9     2.654537492643   118.30584576   186.36767845
 C     20  14   9     2.609319424063   118.60724890   170.64808054
 C     21  17  14     2.602633404545   120.47596740     0.75951979
 H     21  17  14     2.046308909874   119.36585459   180.61125795
 H     23  21  17     2.046185926957   119.55522232   178.38821374
 H     20  14   9     2.230892112251   117.50261885   320.43667281
 H     22  20  14     2.044415229534   118.49935906   182.98046157

---------------------
BASIS SET INFORMATION
---------------------
There are 5 groups of distinct atoms

 Group   1 Type Pd  : 7s6p5d1f contracted to 5s3p2d1f pattern {31111/411/41/1}
 Group   2 Type Cl  : 10s7p1d contracted to 4s3p1d pattern {5311/511/1}
 Group   3 Type N   : 8s4p1d contracted to 4s2p1d pattern {5111/31/1}
 Group   4 Type C   : 8s4p1d contracted to 4s2p1d pattern {5111/31/1}
 Group   5 Type H   : 4s contracted to 2s pattern {31}

Atom   0Pd   basis set group =>   1
Atom   1Cl   basis set group =>   2
Atom   2Cl   basis set group =>   2
Atom   3Cl   basis set group =>   2
Atom   4N    basis set group =>   3
Atom   5C    basis set group =>   4
Atom   6C    basis set group =>   4
Atom   7C    basis set group =>   4
Atom   8C    basis set group =>   4
Atom   9C    basis set group =>   4
Atom  10H    basis set group =>   5
Atom  11H    basis set group =>   5
Atom  12H    basis set group =>   5
Atom  13C    basis set group =>   4
Atom  14C    basis set group =>   4
Atom  15C    basis set group =>   4
Atom  16C    basis set group =>   4
Atom  17H    basis set group =>   5
Atom  18H    basis set group =>   5
Atom  19C    basis set group =>   4
Atom  20C    basis set group =>   4
Atom  21C    basis set group =>   4
Atom  22C    basis set group =>   4
Atom  23H    basis set group =>   5
Atom  24H    basis set group =>   5
Atom  25H    basis set group =>   5
Atom  26H    basis set group =>   5
---------------------------------
AUXILIARY/J BASIS SET INFORMATION
---------------------------------
There are 5 groups of distinct atoms

 Group   1 Type Pd  : 11s5p5d3f3g contracted to 8s5p5d2f3g pattern {41111111/11111/11111/21/111}
 Group   2 Type Cl  : 14s5p5d2f1g contracted to 8s4p3d1f1g pattern {71111111/2111/311/2/1}
 Group   3 Type N   : 12s5p4d2f1g contracted to 6s4p3d1f1g pattern {711111/2111/211/2/1}
 Group   4 Type C   : 12s5p4d2f1g contracted to 6s4p3d1f1g pattern {711111/2111/211/2/1}
 Group   5 Type H   : 5s2p1d contracted to 3s1p1d pattern {311/2/1}

Atom   0Pd   basis set group =>   1
Atom   1Cl   basis set group =>   2
Atom   2Cl   basis set group =>   2
Atom   3Cl   basis set group =>   2
Atom   4N    basis set group =>   3
Atom   5C    basis set group =>   4
Atom   6C    basis set group =>   4
Atom   7C    basis set group =>   4
Atom   8C    basis set group =>   4
Atom   9C    basis set group =>   4
Atom  10H    basis set group =>   5
Atom  11H    basis set group =>   5
Atom  12H    basis set group =>   5
Atom  13C    basis set group =>   4
Atom  14C    basis set group =>   4
Atom  15C    basis set group =>   4
Atom  16C    basis set group =>   4
Atom  17H    basis set group =>   5
Atom  18H    basis set group =>   5
Atom  19C    basis set group =>   4
Atom  20C    basis set group =>   4
Atom  21C    basis set group =>   4
Atom  22C    basis set group =>   4
Atom  23H    basis set group =>   5
Atom  24H    basis set group =>   5
Atom  25H    basis set group =>   5
Atom  26H    basis set group =>   5
-------------------------
ECP PARAMETER INFORMATION
-------------------------

 Group 1, Type Pd ECP Def2-ECP (replacing 28 core electrons, lmax=3)

Atom   0Pd   ECP group =>   1



           ************************************************************
           *        Program running with 8 parallel MPI-processes     *
           *              working on a common directory               *
           ************************************************************
------------------------------------------------------------------------------
                           ORCA GTO INTEGRAL CALCULATION
                           -- RI-GTO INTEGRALS CHOSEN --
------------------------------------------------------------------------------
------------------------------------------------------------------------------
                   ___                                                        
                  /   \      - P O W E R E D   B Y -                         
                 /     \                                                     
                 |  |  |   _    _      __       _____    __    __             
                 |  |  |  | |  | |    /  \     |  _  \  |  |  /  |          
                  \  \/   | |  | |   /    \    | | | |  |  | /  /          
                 / \  \   | |__| |  /  /\  \   | |_| |  |  |/  /          
                |  |  |   |  __  | /  /__\  \  |    /   |      \           
                |  |  |   | |  | | |   __   |  |    \   |  |\   \          
                \     /   | |  | | |  |  |  |  | |\  \  |  | \   \       
                 \___/    |_|  |_| |__|  |__|  |_| \__\ |__|  \__/        
                                                                              
                      - O R C A' S   B I G   F R I E N D -                    
                                      &                                       
                       - I N T E G R A L  F E E D E R -                       
                                                                              
 v1 FN, 2020, v2 2021                                                         
------------------------------------------------------------------------------


Reading SHARK input file reaction-2-dhsgs_optts_Compound_1.SHARKINP.tmp ... ok
----------------------
SHARK INTEGRAL PACKAGE
----------------------

Number of atoms                             ...     27
Number of basis functions                   ...    313
Number of shells                            ...    151
Maximum angular momentum                    ...      3
Integral batch strategy                     ... SHARK/LIBINT Hybrid
RI-J (if used) integral strategy            ... SPLIT-RIJ (Revised 2003 algorithm where possible)
Printlevel                                  ...      1
Contraction scheme used                     ... SEGMENTED contraction
Coulomb Range Separation                    ... NOT USED
Exchange Range Separation                   ... NOT USED
Finite Nucleus Model                        ... NOT USED
Auxiliary Coulomb fitting basis             ... AVAILABLE
   # of basis functions in Aux-J            ...   1027
   # of shells in Aux-J                     ...    329
   Maximum angular momentum in Aux-J        ...      4
Auxiliary J/K fitting basis                 ... NOT available
Auxiliary Correlation fitting basis         ... NOT available
Auxiliary 'external' fitting basis          ... NOT available
Integral threshold                          ...     2.500000e-11
Primitive cut-off                           ...     2.500000e-12
Primitive pair pre-selection threshold      ...     2.500000e-12

Calculating pre-screening integrals         ... done (  0.0 sec) Dimension = 151
Organizing shell pair data                  ... done (  0.1 sec)
Shell pair information
Total number of shell pairs                 ...     11476
Shell pairs after pre-screening             ...      8749
Total number of primitive shell pairs       ...     42779
Primitive shell pairs kept                  ...     20684
          la=0 lb=0:   2859 shell pairs
          la=1 lb=0:   2983 shell pairs
          la=1 lb=1:    752 shell pairs
          la=2 lb=0:   1238 shell pairs
          la=2 lb=1:    654 shell pairs
          la=2 lb=2:    152 shell pairs
          la=3 lb=0:     59 shell pairs
          la=3 lb=1:     37 shell pairs
          la=3 lb=2:     14 shell pairs
          la=3 lb=3:      1 shell pairs

Calculating one electron integrals          ... done (  0.0 sec)
Calculating ECP integrals                   ... done (  0.3 sec)
Calculating RI/J V-Matrix + Cholesky decomp.... done (  0.1 sec)
Calculating Nuclear repulsion               ... done (  0.0 sec) ENN=   1869.376517126509 Eh

SHARK setup successfully completed in   0.6 seconds

Maximum memory used throughout the entire GTOINT-calculation: 21.2 MB


           ************************************************************
           *        Program running with 8 parallel MPI-processes     *
           *              working on a common directory               *
           ************************************************************
-------------------------------------------------------------------------------
                                 ORCA SCF
-------------------------------------------------------------------------------

------------
SCF SETTINGS
------------
Hamiltonian:
 Density Functional     Method          .... DFT(GTOs)
 Exchange Functional    Exchange        .... PBE
   PBE kappa parameter   XKappa         ....  1.024500
   PBE mue parameter    XMuePBE         ....  0.123457
 Correlation Functional Correlation     .... PBE
   PBE beta parameter  CBetaPBE         ....  0.030000
 LDA part of GGA corr.  LDAOpt          .... PW91-LDA
 Gradients option       PostSCFGGA      .... off
 Hybrid DFT is turned on
   Fraction HF Exchange ScalHFX         ....  0.420000
   Scaling of DF-GGA-X  ScalDFX         ....  0.580000
   Scaling of DF-GGA-C  ScalDFC         ....  1.000000
   Scaling of DF-LDA-C  ScalLDAC        ....  1.000000
   Perturbative correction              ....  0.000000
   Density functional embedding theory  .... OFF
 RI-approximation to the Coulomb term is turned on
   Number of AuxJ basis functions       .... 1027
   RIJ-ON(X) (HFX calculated with O(N)) .... on
   Number of AuxJ basis functions       .... 1027
   RIJ-COSX (HFX calculated with COS-X)).... on


General Settings:
 Integral files         IntName         .... reaction-2-dhsgs_optts_Compound_1
 Hartree-Fock type      HFTyp           .... RHF
 Total Charge           Charge          ....   -1
 Multiplicity           Mult            ....    1
 Number of Electrons    NEL             ....  164
 Basis Dimension        Dim             ....  313
 Nuclear Repulsion      ENuc            ....   1869.3765171265 Eh

Convergence Acceleration:
 DIIS                   CNVDIIS         .... on
   Start iteration      DIISMaxIt       ....    12
   Startup error        DIISStart       ....  0.200000
   # of expansion vecs  DIISMaxEq       ....     5
   Bias factor          DIISBfac        ....   1.050
   Max. coefficient     DIISMaxC        ....  10.000
 Trust-Rad. Augm. Hess. CNVTRAH         .... auto
   Auto Start mean grad. ratio tolernc. ....  1.125000
   Auto Start start iteration           ....    20
   Auto Start num. interpolation iter.  ....    10
   Max. Number of Micro iterations      ....    16
   Max. Number of Macro iterations      .... Maxiter - #DIIS iter
   Number of Davidson start vectors     ....     2
   Converg. threshold I  (grad. norm)   ....   1.000e-05
   Converg. threshold II (energy diff.) ....   1.000e-08
   Grad. Scal. Fac. for Micro threshold ....   0.100
   Minimum threshold for Micro iter.    ....   0.010
   NR start threshold (gradient norm)   ....   0.001
   Initial trust radius                 ....   0.400
   Minimum AH scaling param. (alpha)    ....   1.000
   Maximum AH scaling param. (alpha)    .... 1000.000
   Orbital update algorithm             .... Taylor
   White noise on init. David. guess    .... on
   Maximum white noise                  ....   0.010
   Quad. conv. algorithm                .... NR
   COSX micro iterations for RIJONX calc.... off
 SOSCF                  CNVSOSCF        .... off
 Level Shifting         CNVShift        .... on
   Level shift para.    LevelShift      ....    0.2500
   Turn off err/grad.   ShiftErr        ....    0.0010
 Zerner damping         CNVZerner       .... off
 Static damping         CNVDamp         .... on
   Fraction old density DampFac         ....    0.7000
   Max. Damping (<1)    DampMax         ....    0.9800
   Min. Damping (>=0)   DampMin         ....    0.0000
   Turn off err/grad.   DampErr         ....    0.1000
 Fernandez-Rico         CNVRico         .... off

SCF Procedure:
 Maximum # iterations   MaxIter         ....   125
 SCF integral mode      SCFMode         .... Direct
   Integral package                     .... SHARK and LIBINT hybrid scheme
 Reset frequency        DirectResetFreq ....    20
 Integral Threshold     Thresh          ....  2.500e-11 Eh
 Primitive CutOff       TCut            ....  2.500e-12 Eh

Convergence Tolerance:
 Convergence Check Mode ConvCheckMode   .... Total+1el-Energy
 Convergence forced     ConvForced      .... 0
 Energy Change          TolE            ....  1.000e-08 Eh
 1-El. energy change                    ....  1.000e-05 Eh
 DIIS Error             TolErr          ....  5.000e-07


Diagonalization of the overlap matrix:
Smallest eigenvalue                        ... 2.944e-04
Time for diagonalization                   ...    0.023 sec
Threshold for overlap eigenvalues          ... 1.000e-08
Number of eigenvalues below threshold      ... 0
Time for construction of square roots      ...    0.010 sec
Total time needed                          ...    0.034 sec

--------------------------------
INITIAL GUESS: MINIMAL BASIS EHT
--------------------------------
The minimal basis has 119 functions
EHT matrix was diagonalized
Basis set overlap was calculated now projecting the orbitals
Using GuessMode=FMatrix for the initial guess
C*T matrix was formed
Effective Fockian was calculated
Effective Fockian was diagonalized
Initial density was built
                      ------------------
                      INITIAL GUESS DONE
                      ------------------
-------------------
DFT GRID GENERATION
-------------------

General Integration Accuracy     IntAcc      ... 4.159
Radial Grid Type                 RadialGrid  ... OptM3 with GC (2021)
Angular Grid (max. ang.)         AngularGrid ... 3 (Lebedev-194)
Angular grid pruning method      GridPruning ... 4 (adaptive)
Weight generation scheme         WeightScheme... Becke
Basis function cutoff            BFCut       ... 1.0000e-11
Integration weight cutoff        WCut        ... 1.0000e-14
Angular grids for H and He will be reduced by one unit
Partially contracted basis set               ... off
Rotationally invariant grid construction     ... off

Total number of grid points                  ...    76149
Total number of batches                      ...     1203
Average number of points per batch           ...       63
Average number of grid points per atom       ...     2820
Time for grid setup =    0.289 sec

--------------------
COSX GRID GENERATION
--------------------

GRIDX 1
-------
General Integration Accuracy     IntAcc      ... 3.816
Radial Grid Type                 RadialGrid  ... OptM3 with GC (2021)
Angular Grid (max. ang.)         AngularGrid ... 1 (Lebedev-50)
Angular grid pruning method      GridPruning ... 4 (adaptive)
Weight generation scheme         WeightScheme... Becke
Basis function cutoff            BFCut       ... 1.0000e-11
Integration weight cutoff        WCut        ... 1.0000e-14
Angular grids for H and He will be reduced by one unit
Partially contracted basis set               ... on
Rotationally invariant grid construction     ... off

Total number of grid points                  ...    17868
Total number of batches                      ...      290
Average number of points per batch           ...       61
Average number of grid points per atom       ...      662
UseSFitting                                  ... on

GRIDX 2
-------
General Integration Accuracy     IntAcc      ... 4.020
Radial Grid Type                 RadialGrid  ... OptM3 with GC (2021)
Angular Grid (max. ang.)         AngularGrid ... 2 (Lebedev-110)
Angular grid pruning method      GridPruning ... 4 (adaptive)
Weight generation scheme         WeightScheme... Becke
Basis function cutoff            BFCut       ... 1.0000e-11
Integration weight cutoff        WCut        ... 1.0000e-14
Angular grids for H and He will be reduced by one unit
Partially contracted basis set               ... on
Rotationally invariant grid construction     ... off

Total number of grid points                  ...    39817
Total number of batches                      ...      635
Average number of points per batch           ...       62
Average number of grid points per atom       ...     1475
UseSFitting                                  ... on

GRIDX 3
-------
General Integration Accuracy     IntAcc      ... 4.338
Radial Grid Type                 RadialGrid  ... OptM3 with GC (2021)
Angular Grid (max. ang.)         AngularGrid ... 3 (Lebedev-194)
Angular grid pruning method      GridPruning ... 4 (adaptive)
Weight generation scheme         WeightScheme... Becke
Basis function cutoff            BFCut       ... 1.0000e-11
Integration weight cutoff        WCut        ... 1.0000e-14
Angular grids for H and He will be reduced by one unit
Partially contracted basis set               ... on
Rotationally invariant grid construction     ... off

Total number of grid points                  ...    88337
Total number of batches                      ...     1394
Average number of points per batch           ...       63
Average number of grid points per atom       ...     3272
UseSFitting                                  ... on

Time for X-Grid setup             =    0.645 sec

--------------
SCF ITERATIONS
--------------
ITER       Energy         Delta-E        Max-DP      RMS-DP      [F,P]     Damp
               ***  Starting incremental Fock matrix formation  ***
  0  -2049.7917027203   0.000000000000 3.35257984  0.05766318  5.2934691 0.7000
  1  -2043.4560208110   6.335681909308 5.04123772  0.07189896  3.9698811 0.7000
  2  -2041.8710087741   1.585012036871 2.95936176  0.03057541  2.6424984 0.7000
  3  -2043.7418412983  -1.870832524141 3.65116247  0.03892103  1.9628429 0.7000
  4  -2043.6921375849   0.049703713395 2.23557690  0.02826592  1.2528439 0.7000
  5  -2045.8571769040  -2.165039319135 3.02371145  0.03067007  0.9808323 0.7000
  6  -2045.7778989422   0.079277961817 2.47802182  0.02654779  0.5804016 0.7000
  7  -2048.9778803082  -3.199981365975 1.57401918  0.01922526  0.5026388 0.7000
  8  -2051.8818440021  -2.903963693956 1.20741897  0.01439090  0.2825251 0.7000
  9  -2054.7734514242  -2.891607422104 0.85397117  0.01042107  0.2703901 0.7000
 10  -2056.5510794241  -1.777627999813 0.59539052  0.00754503  0.2267596 0.7000
                               ***Turning on DIIS***
 11  -2057.9828486071  -1.431769183040 0.43258250  0.00534858  0.1510709 0.7000
 12  -2059.0106455609  -1.027796953828 1.04640963  0.01252792  0.0945891 0.0000
 13  -2061.4958064301  -2.485160869168 0.05486357  0.00096947  0.0179369 0.0000
 14  -2061.5085828205  -0.012776390388 0.02343098  0.00039581  0.0097326 0.0000
 15  -2061.5123074363  -0.003724615790 0.01703442  0.00023009  0.0055009 0.0000
 16  -2061.5139921481  -0.001684711808 0.01393770  0.00017943  0.0036546 0.0000
 17  -2061.5147719653  -0.000779817189 0.01009326  0.00012125  0.0030023 0.0000
 18  -2061.5151502253  -0.000378260076 0.01066291  0.00010246  0.0024638 0.0000
 19  -2061.5153608959  -0.000210670552 0.00756806  0.00007685  0.0018929 0.0000
               *** Restarting incremental Fock matrix formation ***
                                   *** Resetting DIIS ***
 20  -2061.5158011805  -0.000440284561 0.00385995  0.00010939  0.0019768 0.0000
 21  -2061.5158465145  -0.000045334085 0.00294445  0.00003836  0.0011459 0.0000
 22  -2061.5158735151  -0.000027000534 0.00590359  0.00006558  0.0009752 0.0000
               *** Restarting incremental Fock matrix formation ***
                                   *** Resetting DIIS ***
 23  -2061.5158528797   0.000020635346 0.00445475  0.00011338  0.0018889 0.0000
 24  -2061.5158776591  -0.000024779353 0.00331977  0.00004378  0.0005919 0.0000
 25  -2061.5158882004  -0.000010541267 0.00126698  0.00001222  0.0003821 0.0000
 26  -2061.5158913148  -0.000003114467 0.00214724  0.00001961  0.0003070 0.0000
 27  -2061.5158941591  -0.000002844275 0.00139357  0.00001255  0.0001632 0.0000
 28  -2061.5158950152  -0.000000856135 0.00060520  0.00000525  0.0000642 0.0000
 29  -2061.5158951691  -0.000000153857 0.00021001  0.00000157  0.0000413 0.0000
 30  -2061.5158951762  -0.000000007159 0.00008101  0.00000062  0.0000229 0.0000
 31  -2061.5158951776  -0.000000001357 0.00001042  0.00000019  0.0000083 0.0000
 32  -2061.5158951751   0.000000002493 0.00000540  0.00000009  0.0000032 0.0000
 33  -2061.5158951822  -0.000000007090 0.00000263  0.00000004  0.0000015 0.0000
                            ***DIIS convergence achieved***

               *****************************************************
               *                     SUCCESS                       *
               *           SCF CONVERGED AFTER  34 CYCLES          *
               *****************************************************

Old exchange energy                            =    -72.238705651 Eh
New exchange energy                            =    -72.238738984 Eh
Exchange energy change after final integration =     -0.000033333 Eh
Total energy after final integration           =  -2061.515928521 Eh
Final COS-X integration done in                =     4.606 sec

----------------
TOTAL SCF ENERGY
----------------

Total Energy       :        -2061.51592852 Eh          -56096.70032 eV

Components:
Nuclear Repulsion  :         1869.37651713 Eh           50868.32113 eV
Electronic Energy  :        -3930.89244565 Eh         -106965.02144 eV
One Electron Energy:        -6627.64638934 Eh         -180347.42694 eV
Two Electron Energy:         2696.75394369 Eh           73382.40550 eV
Max COSX asymmetry :            0.00001333 Eh               0.00036 eV

Virial components:
Potential Energy   :        -4036.99098210 Eh         -109852.10940 eV
Kinetic Energy     :         1975.47505358 Eh           53755.40908 eV
Virial Ratio       :            2.04355452


DFT components:
N(Alpha)           :       81.999376889725 electrons
N(Beta)            :       81.999376889725 electrons
N(Total)           :      163.998753779450 electrons
E(X)               :      -96.397956564254 Eh       
E(C)               :       -7.776600772447 Eh       
E(XC)              :     -104.174557336702 Eh       
DFET-embed. en.    :        0.000000000000 Eh       

---------------
SCF CONVERGENCE
---------------

  Last Energy change         ...   -6.3969e-09  Tolerance :   1.0000e-08
  Last MAX-Density change    ...    0.0000e+00  Tolerance :   1.0000e-07
  Last RMS-Density change    ...    0.0000e+00  Tolerance :   5.0000e-09
  Last DIIS Error            ...    5.1108e-07  Tolerance :   5.0000e-07

             **** THE GBW FILE WAS UPDATED (reaction-2-dhsgs_optts_Compound_1.gbw) ****
             **** DENSITY reaction-2-dhsgs_optts_Compound_1.scfp WAS UPDATED ****
             **** ENERGY FILE WAS UPDATED (reaction-2-dhsgs_optts_Compound_1.en.tmp) ****
             **** THE GBW FILE WAS UPDATED (reaction-2-dhsgs_optts_Compound_1.gbw) ****
             **** DENSITY reaction-2-dhsgs_optts_Compound_1.scfp WAS UPDATED ****
----------------
ORBITAL ENERGIES
----------------

  NO   OCC          E(Eh)            E(eV) 
   0   2.0000    -102.105353     -2778.4279 
   1   2.0000    -102.092955     -2778.0905 
   2   2.0000    -102.014755     -2775.9626 
   3   2.0000     -14.604148      -397.3991 
   4   2.0000     -10.418850      -283.5113 
   5   2.0000     -10.409695      -283.2622 
   6   2.0000     -10.399219      -282.9771 
   7   2.0000     -10.394086      -282.8375 
   8   2.0000     -10.384973      -282.5895 
   9   2.0000     -10.384337      -282.5722 
  10   2.0000     -10.384195      -282.5683 
  11   2.0000     -10.383447      -282.5480 
  12   2.0000     -10.377077      -282.3746 
  13   2.0000     -10.373139      -282.2675 
  14   2.0000     -10.369346      -282.1642 
  15   2.0000     -10.359440      -281.8947 
  16   2.0000     -10.357315      -281.8369 
  17   2.0000      -9.569410      -260.3969 
  18   2.0000      -9.557568      -260.0746 
  19   2.0000      -9.478658      -257.9274 
  20   2.0000      -7.255560      -197.4338 
  21   2.0000      -7.250243      -197.2892 
  22   2.0000      -7.250043      -197.2837 
  23   2.0000      -7.243770      -197.1130 
  24   2.0000      -7.238256      -196.9629 
  25   2.0000      -7.238152      -196.9601 
  26   2.0000      -7.162409      -194.8990 
  27   2.0000      -7.161089      -194.8631 
  28   2.0000      -7.160682      -194.8521 
  29   2.0000      -3.533388       -96.1484 
  30   2.0000      -2.183262       -59.4096 
  31   2.0000      -2.176931       -59.2373 
  32   2.0000      -2.142126       -58.2902 
  33   2.0000      -0.999689       -27.2029 
  34   2.0000      -0.898984       -24.4626 
  35   2.0000      -0.858846       -23.3704 
  36   2.0000      -0.824355       -22.4319 
  37   2.0000      -0.794014       -21.6062 
  38   2.0000      -0.755258       -20.5516 
  39   2.0000      -0.739867       -20.1328 
  40   2.0000      -0.696769       -18.9601 
  41   2.0000      -0.683119       -18.5886 
  42   2.0000      -0.657804       -17.8997 
  43   2.0000      -0.651697       -17.7336 
  44   2.0000      -0.626036       -17.0353 
  45   2.0000      -0.612626       -16.6704 
  46   2.0000      -0.591948       -16.1077 
  47   2.0000      -0.544815       -14.8252 
  48   2.0000      -0.529388       -14.4054 
  49   2.0000      -0.506361       -13.7788 
  50   2.0000      -0.476844       -12.9756 
  51   2.0000      -0.471019       -12.8171 
  52   2.0000      -0.442887       -12.0516 
  53   2.0000      -0.424747       -11.5580 
  54   2.0000      -0.419451       -11.4138 
  55   2.0000      -0.417038       -11.3482 
  56   2.0000      -0.406024       -11.0485 
  57   2.0000      -0.400490       -10.8979 
  58   2.0000      -0.381470       -10.3803 
  59   2.0000      -0.359775        -9.7900 
  60   2.0000      -0.355595        -9.6762 
  61   2.0000      -0.331984        -9.0337 
  62   2.0000      -0.325770        -8.8647 
  63   2.0000      -0.310461        -8.4481 
  64   2.0000      -0.306363        -8.3366 
  65   2.0000      -0.278864        -7.5883 
  66   2.0000      -0.272915        -7.4264 
  67   2.0000      -0.263191        -7.1618 
  68   2.0000      -0.249430        -6.7873 
  69   2.0000      -0.236798        -6.4436 
  70   2.0000      -0.229591        -6.2475 
  71   2.0000      -0.226981        -6.1765 
  72   2.0000      -0.197511        -5.3745 
  73   2.0000      -0.187148        -5.0926 
  74   2.0000      -0.180305        -4.9064 
  75   2.0000      -0.170025        -4.6266 
  76   2.0000      -0.165144        -4.4938 
  77   2.0000      -0.154121        -4.1938 
  78   2.0000      -0.150195        -4.0870 
  79   2.0000      -0.113919        -3.0999 
  80   2.0000      -0.112292        -3.0556 
  81   2.0000      -0.103527        -2.8171 
  82   0.0000       0.039117         1.0644 
  83   0.0000       0.042717         1.1624 
  84   0.0000       0.069261         1.8847 
  85   0.0000       0.100037         2.7221 
  86   0.0000       0.129046         3.5115 
  87   0.0000       0.176551         4.8042 
  88   0.0000       0.185731         5.0540 
  89   0.0000       0.209630         5.7043 
  90   0.0000       0.219376         5.9695 
  91   0.0000       0.228117         6.2074 
  92   0.0000       0.243195         6.6177 
  93   0.0000       0.244036         6.6406 
  94   0.0000       0.246712         6.7134 
  95   0.0000       0.258861         7.0440 
  96   0.0000       0.276457         7.5228 
  97   0.0000       0.286297         7.7905 
  98   0.0000       0.309924         8.4335 
  99   0.0000       0.316505         8.6125 
 100   0.0000       0.320929         8.7329 
 101   0.0000       0.334220         9.0946 
 102   0.0000       0.343470         9.3463 
 103   0.0000       0.350717         9.5435 
 104   0.0000       0.359008         9.7691 
 105   0.0000       0.382589        10.4108 
 106   0.0000       0.391238        10.6461 
 107   0.0000       0.400794        10.9062 
 108   0.0000       0.408845        11.1252 
 109   0.0000       0.415116        11.2959 
 110   0.0000       0.419396        11.4124 
 111   0.0000       0.451204        12.2779 
 112   0.0000       0.455278        12.3887 
 113   0.0000       0.488802        13.3010 
 114   0.0000       0.505773        13.7628 
 115   0.0000       0.521372        14.1873 
 116   0.0000       0.547017        14.8851 
 117   0.0000       0.571281        15.5453 
 118   0.0000       0.572797        15.5866 
 119   0.0000       0.581857        15.8331 
 120   0.0000       0.589312        16.0360 
 121   0.0000       0.595997        16.2179 
 122   0.0000       0.603391        16.4191 
 123   0.0000       0.608893        16.5688 
 124   0.0000       0.617354        16.7991 
 125   0.0000       0.631497        17.1839 
 126   0.0000       0.635774        17.3003 
 127   0.0000       0.646800        17.6003 
 128   0.0000       0.655696        17.8424 
 129   0.0000       0.661606        18.0032 
 130   0.0000       0.672410        18.2972 
 131   0.0000       0.677779        18.4433 
 132   0.0000       0.682798        18.5799 
 133   0.0000       0.691795        18.8247 
 134   0.0000       0.699864        19.0443 
 135   0.0000       0.707859        19.2618 
 136   0.0000       0.711009        19.3475 
 137   0.0000       0.717207        19.5162 
 138   0.0000       0.725131        19.7318 
 139   0.0000       0.730760        19.8850 
 140   0.0000       0.737430        20.0665 
 141   0.0000       0.747490        20.3402 
 142   0.0000       0.754382        20.5278 
 143   0.0000       0.762820        20.7574 
 144   0.0000       0.774761        21.0823 
 145   0.0000       0.785920        21.3860 
 146   0.0000       0.803241        21.8573 
 147   0.0000       0.812926        22.1208 
 148   0.0000       0.822850        22.3909 
 149   0.0000       0.841568        22.9002 
 150   0.0000       0.855722        23.2854 
 151   0.0000       0.861013        23.4293 
 152   0.0000       0.876048        23.8385 
 153   0.0000       0.883904        24.0522 
 154   0.0000       0.893105        24.3026 
 155   0.0000       0.914395        24.8820 
 156   0.0000       0.922800        25.1107 
 157   0.0000       0.930508        25.3204 
 158   0.0000       0.949765        25.8444 
 159   0.0000       0.964371        26.2419 
 160   0.0000       0.985075        26.8053 
 161   0.0000       0.995948        27.1011 
 162   0.0000       1.001124        27.2420 
 163   0.0000       1.017710        27.6933 
 164   0.0000       1.023796        27.8589 
 165   0.0000       1.034871        28.1603 
 166   0.0000       1.039629        28.2897 
 167   0.0000       1.045877        28.4598 
 168   0.0000       1.047783        28.5116 
 169   0.0000       1.049344        28.5541 
 170   0.0000       1.059011        28.8172 
 171   0.0000       1.063515        28.9397 
 172   0.0000       1.067444        29.0466 
 173   0.0000       1.072624        29.1876 
 174   0.0000       1.079041        29.3622 
 175   0.0000       1.083947        29.4957 
 176   0.0000       1.086744        29.5718 
 177   0.0000       1.090786        29.6818 
 178   0.0000       1.097909        29.8756 
 179   0.0000       1.108328        30.1591 
 180   0.0000       1.111343        30.2412 
 181   0.0000       1.112991        30.2860 
 182   0.0000       1.118980        30.4490 
 183   0.0000       1.125307        30.6212 
 184   0.0000       1.142485        31.0886 
 185   0.0000       1.147263        31.2186 
 186   0.0000       1.156524        31.4706 
 187   0.0000       1.164025        31.6747 
 188   0.0000       1.175751        31.9938 
 189   0.0000       1.188116        32.3303 
 190   0.0000       1.198926        32.6244 
 191   0.0000       1.209535        32.9131 
 192   0.0000       1.225216        33.3398 
 193   0.0000       1.227406        33.3994 
 194   0.0000       1.242635        33.8138 
 195   0.0000       1.248865        33.9833 
 196   0.0000       1.266479        34.4626 
 197   0.0000       1.270252        34.5653 
 198   0.0000       1.288910        35.0730 
 199   0.0000       1.290657        35.1206 
 200   0.0000       1.303601        35.4728 
 201   0.0000       1.310005        35.6470 
 202   0.0000       1.327601        36.1258 
 203   0.0000       1.337407        36.3927 
 204   0.0000       1.351619        36.7794 
 205   0.0000       1.372731        37.3539 
 206   0.0000       1.381198        37.5843 
 207   0.0000       1.408266        38.3209 
 208   0.0000       1.426615        38.8202 
 209   0.0000       1.471953        40.0539 
 210   0.0000       1.479081        40.2478 
 211   0.0000       1.488095        40.4931 
 212   0.0000       1.514434        41.2098 
 213   0.0000       1.526640        41.5420 
 214   0.0000       1.531766        41.6815 
 215   0.0000       1.537348        41.8334 
 216   0.0000       1.566827        42.6355 
 217   0.0000       1.577978        42.9390 
 218   0.0000       1.578904        42.9642 
 219   0.0000       1.587200        43.1899 
 220   0.0000       1.602054        43.5941 
 221   0.0000       1.613848        43.9150 
 222   0.0000       1.622259        44.1439 
 223   0.0000       1.629684        44.3460 
 224   0.0000       1.648240        44.8509 
 225   0.0000       1.657978        45.1159 
 226   0.0000       1.683227        45.8029 
 227   0.0000       1.699431        46.2439 
 228   0.0000       1.747287        47.5461 
 229   0.0000       1.800916        49.0054 
 230   0.0000       1.837151        49.9914 
 231   0.0000       1.860389        50.6238 
 232   0.0000       1.898203        51.6527 
 233   0.0000       1.900250        51.7084 
 234   0.0000       1.945139        52.9299 
 235   0.0000       1.949905        53.0596 
 236   0.0000       1.977257        53.8039 
 237   0.0000       1.985034        54.0155 
 238   0.0000       2.030843        55.2620 
 239   0.0000       2.037458        55.4421 
 240   0.0000       2.062404        56.1209 
 241   0.0000       2.087709        56.8095 
 242   0.0000       2.094137        56.9844 
 243   0.0000       2.115860        57.5755 
 244   0.0000       2.128744        57.9261 
 245   0.0000       2.151386        58.5422 
 246   0.0000       2.168338        59.0035 
 247   0.0000       2.197679        59.8019 
 248   0.0000       2.251994        61.2799 
 249   0.0000       2.262742        61.5723 
 250   0.0000       2.273783        61.8728 
 251   0.0000       2.299287        62.5668 
 252   0.0000       2.344624        63.8005 
 253   0.0000       2.348604        63.9088 
 254   0.0000       2.363417        64.3118 
 255   0.0000       2.373946        64.5984 
 256   0.0000       2.385534        64.9137 
 257   0.0000       2.395707        65.1905 
 258   0.0000       2.410762        65.6002 
 259   0.0000       2.422147        65.9100 
 260   0.0000       2.432706        66.1973 
 261   0.0000       2.452642        66.7398 
 262   0.0000       2.473699        67.3128 
 263   0.0000       2.494101        67.8679 
 264   0.0000       2.515315        68.4452 
 265   0.0000       2.559866        69.6575 
 266   0.0000       2.571483        69.9736 
 267   0.0000       2.577657        70.1416 
 268   0.0000       2.578691        70.1697 
 269   0.0000       2.595152        70.6177 
 270   0.0000       2.607471        70.9529 
 271   0.0000       2.612107        71.0791 
 272   0.0000       2.648009        72.0560 
 273   0.0000       2.672190        72.7140 
 274   0.0000       2.683779        73.0293 
 275   0.0000       2.723009        74.0968 
 276   0.0000       2.764620        75.2291 
 277   0.0000       2.786174        75.8156 
 278   0.0000       2.789519        75.9067 
 279   0.0000       2.794568        76.0441 
 280   0.0000       2.802984        76.2731 
 281   0.0000       2.808477        76.4225 
 282   0.0000       2.839948        77.2789 
 283   0.0000       2.862293        77.8870 
 284   0.0000       2.882564        78.4386 
 285   0.0000       2.906443        79.0883 
 286   0.0000       2.935546        79.8803 
 287   0.0000       2.957349        80.4736 
 288   0.0000       2.972383        80.8827 
 289   0.0000       2.999376        81.6172 
 290   0.0000       3.027509        82.3827 
 291   0.0000       3.042619        82.7939 
 292   0.0000       3.125671        85.0538 
 293   0.0000       3.168356        86.2154 
 294   0.0000       3.197160        86.9991 
 295   0.0000       3.500570        95.2553 
 296   0.0000       3.582077        97.4733 
 297   0.0000       3.687477       100.3413 
 298   0.0000      13.327317       362.6547 
 299   0.0000      13.549041       368.6881 
 300   0.0000      13.632224       370.9517 
 301   0.0000      13.841586       376.6487 
 302   0.0000      13.880577       377.7097 
 303   0.0000      13.909133       378.4868 
 304   0.0000      14.114049       384.0628 
 305   0.0000      14.242407       387.5556 
 306   0.0000      14.254196       387.8764 
 307   0.0000      14.338244       390.1634 
 308   0.0000      14.420655       392.4060 
 309   0.0000      14.583342       396.8329 
 310   0.0000      14.636743       398.2860 
 311   0.0000      19.635825       534.3180 
 312   0.0000      51.753036      1408.2717 

                    ********************************
                    * MULLIKEN POPULATION ANALYSIS *
                    ********************************

-----------------------
MULLIKEN ATOMIC CHARGES
-----------------------
   0 Pd:    0.213916
   1 Cl:   -0.333377
   2 Cl:   -0.631994
   3 Cl:   -0.359531
   4 N :   -0.573919
   5 C :    0.058623
   6 C :   -0.326441
   7 C :   -0.156327
   8 C :    0.399094
   9 C :    0.041643
  10 H :    0.213108
  11 H :    0.288575
  12 H :    0.223709
  13 C :    0.083681
  14 C :   -0.293673
  15 C :   -0.300958
  16 C :    0.139284
  17 H :    0.199049
  18 H :    0.199815
  19 C :   -0.359378
  20 C :   -0.300512
  21 C :   -0.227241
  22 C :   -0.206239
  23 H :    0.196142
  24 H :    0.204957
  25 H :    0.354628
  26 H :    0.253368
Sum of atomic charges:   -1.0000000

--------------------------------
MULLIKEN REDUCED ORBITAL CHARGES
--------------------------------
  0 Pds       :     2.485796  s :     2.485796
      pz      :     2.151559  p :     6.462618
      px      :     2.146370
      py      :     2.164689
      dz2     :     1.985370  d :     8.833719
      dxz     :     1.652844
      dyz     :     1.825649
      dx2y2   :     1.723685
      dxy     :     1.646171
      f0      :     0.000505  f :     0.003952
      f+1     :     0.000279
      f-1     :     0.000258
      f+2     :     0.000670
      f-2     :     0.000926
      f+3     :     0.000820
      f-3     :     0.000495
  1 Cls       :     5.929057  s :     5.929057
      pz      :     3.812408  p :    11.389574
      px      :     3.885710
      py      :     3.691456
      dz2     :     0.002257  d :     0.014746
      dxz     :     0.002039
      dyz     :     0.003972
      dx2y2   :     0.002905
      dxy     :     0.003573
  2 Cls       :     5.966788  s :     5.966788
      pz      :     3.826993  p :    11.662212
      px      :     3.914168
      py      :     3.921050
      dz2     :     0.000807  d :     0.002995
      dxz     :     0.000469
      dyz     :     0.001118
      dx2y2   :     0.000201
      dxy     :     0.000400
  3 Cls       :     5.941075  s :     5.941075
      pz      :     3.865498  p :    11.404154
      px      :     3.650008
      py      :     3.888648
      dz2     :     0.002024  d :     0.014303
      dxz     :     0.003890
      dyz     :     0.001082
      dx2y2   :     0.004028
      dxy     :     0.003279
  4 N s       :     3.650083  s :     3.650083
      pz      :     1.212421  p :     3.878511
      px      :     1.255051
      py      :     1.411040
      dz2     :     0.010562  d :     0.045325
      dxz     :     0.008593
      dyz     :     0.010099
      dx2y2   :     0.008578
      dxy     :     0.007493
  5 C s       :     3.148622  s :     3.148622
      pz      :     0.892101  p :     2.732680
      px      :     0.962224
      py      :     0.878354
      dz2     :     0.014164  d :     0.060076
      dxz     :     0.013518
      dyz     :     0.013864
      dx2y2   :     0.009084
      dxy     :     0.009445
  6 C s       :     3.286194  s :     3.286194
      pz      :     1.077059  p :     3.001551
      px      :     0.954579
      py      :     0.969912
      dz2     :     0.007995  d :     0.038696
      dxz     :     0.007595
      dyz     :     0.008704
      dx2y2   :     0.007077
      dxy     :     0.007325
  7 C s       :     3.258363  s :     3.258363
      pz      :     0.926153  p :     2.856913
      px      :     0.949017
      py      :     0.981743
      dz2     :     0.009748  d :     0.041051
      dxz     :     0.007681
      dyz     :     0.008839
      dx2y2   :     0.006807
      dxy     :     0.007977
  8 C s       :     3.145795  s :     3.145795
      pz      :     0.811688  p :     2.391278
      px      :     0.798000
      py      :     0.781590
      dz2     :     0.012900  d :     0.063833
      dxz     :     0.013039
      dyz     :     0.011951
      dx2y2   :     0.012812
      dxy     :     0.013131
  9 C s       :     3.220384  s :     3.220384
      pz      :     0.868047  p :     2.692249
      px      :     0.952503
      py      :     0.871698
      dz2     :     0.010152  d :     0.045725
      dxz     :     0.008965
      dyz     :     0.010065
      dx2y2   :     0.008289
      dxy     :     0.008253
 10 H s       :     0.786892  s :     0.786892
 11 H s       :     0.711425  s :     0.711425
 12 H s       :     0.776291  s :     0.776291
 13 C s       :     3.235474  s :     3.235474
      pz      :     0.864425  p :     2.635242
      px      :     0.927669
      py      :     0.843148
      dz2     :     0.009466  d :     0.045603
      dxz     :     0.006847
      dyz     :     0.012150
      dx2y2   :     0.008060
      dxy     :     0.009080
 14 C s       :     3.282075  s :     3.282075
      pz      :     0.958777  p :     2.971531
      px      :     0.992060
      py      :     1.020693
      dz2     :     0.009757  d :     0.040068
      dxz     :     0.008544
      dyz     :     0.009015
      dx2y2   :     0.005558
      dxy     :     0.007193
 15 C s       :     3.301971  s :     3.301971
      pz      :     0.984958  p :     2.958463
      px      :     1.000745
      py      :     0.972760
      dz2     :     0.008375  d :     0.040525
      dxz     :     0.009456
      dyz     :     0.009578
      dx2y2   :     0.005618
      dxy     :     0.007498
 16 C s       :     3.230946  s :     3.230946
      pz      :     0.839891  p :     2.583042
      px      :     0.909030
      py      :     0.834121
      dz2     :     0.010580  d :     0.046728
      dxz     :     0.008918
      dyz     :     0.011307
      dx2y2   :     0.007923
      dxy     :     0.008001
 17 H s       :     0.800951  s :     0.800951
 18 H s       :     0.800185  s :     0.800185
 19 C s       :     3.320142  s :     3.320142
      pz      :     1.066280  p :     2.999033
      px      :     1.001780
      py      :     0.930974
      dz2     :     0.009929  d :     0.040203
      dxz     :     0.005855
      dyz     :     0.012140
      dx2y2   :     0.005967
      dxy     :     0.006313
 20 C s       :     3.296025  s :     3.296025
      pz      :     0.970201  p :     2.964709
      px      :     1.022510
      py      :     0.971998
      dz2     :     0.007719  d :     0.039778
      dxz     :     0.008649
      dyz     :     0.010144
      dx2y2   :     0.005867
      dxy     :     0.007399
 21 C s       :     3.299618  s :     3.299618
      pz      :     0.919047  p :     2.887271
      px      :     0.915001
      py      :     1.053223
      dz2     :     0.010225  d :     0.040352
      dxz     :     0.007783
      dyz     :     0.009991
      dx2y2   :     0.006085
      dxy     :     0.006268
 22 C s       :     3.245072  s :     3.245072
      pz      :     1.013965  p :     2.920775
      px      :     0.967720
      py      :     0.939090
      dz2     :     0.009593  d :     0.040392
      dxz     :     0.005956
      dyz     :     0.010414
      dx2y2   :     0.007481
      dxy     :     0.006948
 23 H s       :     0.803858  s :     0.803858
[...]
 ** NOTE ** -> element pd will be treated as ni
 ** NOTE ** -> element pd will be treated as ni
 ** NOTE ** -> element pd will be treated as ni
 ** NOTE ** -> element pd will be treated as ni
 ** NOTE ** -> element pd will be treated as ni
 ** NOTE ** -> element pd will be treated as ni
   74     -2061.539289   -30.324224    0.002693  0.000607
 ** NOTE ** -> element pd will be treated as ni
 ** NOTE ** -> element pd will be treated as ni
 ** NOTE ** -> element pd will be treated as ni
 ** NOTE ** -> element pd will be treated as ni
   75     -2061.539365   -30.372038    0.002651  0.000539
 ** NOTE ** -> element pd will be treated as ni
 ** NOTE ** -> element pd will be treated as ni
 ** NOTE ** -> element pd will be treated as ni
 ** NOTE ** -> element pd will be treated as ni
   76     -2061.539447   -30.423531    0.002600  0.000534
 ** NOTE ** -> element pd will be treated as ni
 ** NOTE ** -> element pd will be treated as ni
 ** NOTE ** -> element pd will be treated as ni
 ** NOTE ** -> element pd will be treated as ni
   77     -2061.539528   -30.474495    0.002548  0.000529
 ** NOTE ** -> element pd will be treated as ni
 ** NOTE ** -> element pd will be treated as ni
 ** NOTE ** -> element pd will be treated as ni
 ** NOTE ** -> element pd will be treated as ni
   78     -2061.539609   -30.524944    0.002491  0.000525
 ** NOTE ** -> element pd will be treated as ni
 ** NOTE ** -> element pd will be treated as ni
 ** NOTE ** -> element pd will be treated as ni
 ** NOTE ** -> element pd will be treated as ni
   79     -2061.539689   -30.574966    0.002433  0.000520
 ** NOTE ** -> element pd will be treated as ni
 ** NOTE ** -> element pd will be treated as ni
 ** NOTE ** -> element pd will be treated as ni
 ** NOTE ** -> element pd will be treated as ni
   80     -2061.539767   -30.624402    0.002382  0.000515
 ** NOTE ** -> element pd will be treated as ni
 ** NOTE ** -> element pd will be treated as ni
 ** NOTE ** -> element pd will be treated as ni
 ** NOTE ** -> element pd will be treated as ni
   81     -2061.539846   -30.673466    0.002381  0.000510
 ** NOTE ** -> element pd will be treated as ni
 ** NOTE ** -> element pd will be treated as ni
 ** NOTE ** -> element pd will be treated as ni
 ** NOTE ** -> element pd will be treated as ni
   82     -2061.539923   -30.721892    0.002381  0.000504
 ** NOTE ** -> element pd will be treated as ni
 ** NOTE ** -> element pd will be treated as ni
 ** NOTE ** -> element pd will be treated as ni
 ** NOTE ** -> element pd will be treated as ni
   83     -2061.539999   -30.769973    0.002379  0.000499
 ** NOTE ** -> element pd will be treated as ni
 ** NOTE ** -> element pd will be treated as ni
 ** NOTE ** -> element pd will be treated as ni
 ** NOTE ** -> element pd will be treated as ni
   84     -2061.540075   -30.817528    0.002378  0.000494
 ** NOTE ** -> element pd will be treated as ni
 ** NOTE ** -> element pd will be treated as ni
 ** NOTE ** -> element pd will be treated as ni
 ** NOTE ** -> element pd will be treated as ni
   85     -2061.540150   -30.864669    0.002374  0.000488
 ** NOTE ** -> element pd will be treated as ni
 ** NOTE ** -> element pd will be treated as ni
 ** NOTE ** -> element pd will be treated as ni
 ** NOTE ** -> element pd will be treated as ni
   86     -2061.540224   -30.911249    0.002371  0.000482
 ** NOTE ** -> element pd will be treated as ni
 ** NOTE ** -> element pd will be treated as ni
 ** NOTE ** -> element pd will be treated as ni
 ** NOTE ** -> element pd will be treated as ni
   87     -2061.540298   -30.957434    0.002365  0.000478
 ** NOTE ** -> element pd will be treated as ni
 ** NOTE ** -> element pd will be treated as ni
 ** NOTE ** -> element pd will be treated as ni
 ** NOTE ** -> element pd will be treated as ni
   88     -2061.540371   -31.002949    0.002359  0.000471
 ** NOTE ** -> element pd will be treated as ni
 ** NOTE ** -> element pd will be treated as ni
 ** NOTE ** -> element pd will be treated as ni
 ** NOTE ** -> element pd will be treated as ni
   89     -2061.540443   -31.048120    0.002350  0.000465
 ** NOTE ** -> element pd will be treated as ni
 ** NOTE ** -> element pd will be treated as ni
 ** NOTE ** -> element pd will be treated as ni
 ** NOTE ** -> element pd will be treated as ni
   90     -2061.540514   -31.092714    0.002340  0.000459
 ** NOTE ** -> element pd will be treated as ni
 ** NOTE ** -> element pd will be treated as ni
 ** NOTE ** -> element pd will be treated as ni
 ** NOTE ** -> element pd will be treated as ni
   91     -2061.540584   -31.136909    0.002326  0.000454
 ** NOTE ** -> element pd will be treated as ni
 ** NOTE ** -> element pd will be treated as ni
 ** NOTE ** -> element pd will be treated as ni
 ** NOTE ** -> element pd will be treated as ni
   92     -2061.540653   -31.180383    0.002312  0.000447
 ** NOTE ** -> element pd will be treated as ni
 ** NOTE ** -> element pd will be treated as ni
 ** NOTE ** -> element pd will be treated as ni
 ** NOTE ** -> element pd will be treated as ni
   93     -2061.540722   -31.223473    0.002295  0.000441
 ** NOTE ** -> element pd will be treated as ni
 ** NOTE ** -> element pd will be treated as ni
 ** NOTE ** -> element pd will be treated as ni
 ** NOTE ** -> element pd will be treated as ni
   94     -2061.540790   -31.265974    0.002276  0.000434
 ** NOTE ** -> element pd will be treated as ni
 ** NOTE ** -> element pd will be treated as ni
 ** NOTE ** -> element pd will be treated as ni
 ** NOTE ** -> element pd will be treated as ni
   95     -2061.540857   -31.308019    0.002254  0.000429
 ** NOTE ** -> element pd will be treated as ni
 ** NOTE ** -> element pd will be treated as ni
 ** NOTE ** -> element pd will be treated as ni
 ** NOTE ** -> element pd will be treated as ni
   96     -2061.540923   -31.349295    0.002231  0.000420
 ** NOTE ** -> element pd will be treated as ni
 ** NOTE ** -> element pd will be treated as ni
 ** NOTE ** -> element pd will be treated as ni
 ** NOTE ** -> element pd will be treated as ni
   97     -2061.540988   -31.390229    0.002204  0.000415
 ** NOTE ** -> element pd will be treated as ni
 ** NOTE ** -> element pd will be treated as ni
 ** NOTE ** -> element pd will be treated as ni
 ** NOTE ** -> element pd will be treated as ni
   98     -2061.541052   -31.430415    0.002176  0.000407
 ** NOTE ** -> element pd will be treated as ni
 ** NOTE ** -> element pd will be treated as ni
 ** NOTE ** -> element pd will be treated as ni
 ** NOTE ** -> element pd will be treated as ni
   99     -2061.541115   -31.470104    0.002145  0.000400
 ** NOTE ** -> element pd will be treated as ni
 ** NOTE ** -> element pd will be treated as ni
 ** NOTE ** -> element pd will be treated as ni
 ** NOTE ** -> element pd will be treated as ni
  100     -2061.541177   -31.509250    0.002112  0.000393
 ** NOTE ** -> element pd will be treated as ni
 ** NOTE ** -> element pd will be treated as ni
 ** NOTE ** -> element pd will be treated as ni
 ** NOTE ** -> element pd will be treated as ni
  101     -2061.541239   -31.547830    0.002076  0.000386
 ** NOTE ** -> element pd will be treated as ni
 ** NOTE ** -> element pd will be treated as ni
 ** NOTE ** -> element pd will be treated as ni
 ** NOTE ** -> element pd will be treated as ni
  102     -2061.541299   -31.585793    0.002040  0.000378
 ** NOTE ** -> element pd will be treated as ni
 ** NOTE ** -> element pd will be treated as ni
 ** NOTE ** -> element pd will be treated as ni
 ** NOTE ** -> element pd will be treated as ni
  103     -2061.541359   -31.623199    0.001999  0.000372

                      ***********************HURRAY********************
                      ***            THE IRC HAS CONVERGED          ***
                      *************************************************


---------------------------------------------------------------
                       IRC PATH SUMMARY              
---------------------------------------------------------------
All gradients are in Eh/Bohr.

Step        E(Eh)      dE(kcal/mol)  max(|G|)   RMS(G) 
   1     -2061.541359   -31.623199    0.001999  0.000372
   2     -2061.541299   -31.585793    0.002040  0.000378
   3     -2061.541239   -31.547830    0.002076  0.000386
   4     -2061.541177   -31.509250    0.002112  0.000393
   5     -2061.541115   -31.470104    0.002145  0.000400
   6     -2061.541052   -31.430415    0.002176  0.000407
   7     -2061.540988   -31.390229    0.002204  0.000415
   8     -2061.540923   -31.349295    0.002231  0.000420
   9     -2061.540857   -31.308019    0.002254  0.000429
  10     -2061.540790   -31.265974    0.002276  0.000434
  11     -2061.540722   -31.223473    0.002295  0.000441
  12     -2061.540653   -31.180383    0.002312  0.000447
  13     -2061.540584   -31.136909    0.002326  0.000454
  14     -2061.540514   -31.092714    0.002340  0.000459
  15     -2061.540443   -31.048120    0.002350  0.000465
  16     -2061.540371   -31.002949    0.002359  0.000471
  17     -2061.540298   -30.957434    0.002365  0.000478
  18     -2061.540224   -30.911249    0.002371  0.000482
  19     -2061.540150   -30.864669    0.002374  0.000488
  20     -2061.540075   -30.817528    0.002378  0.000494
  21     -2061.539999   -30.769973    0.002379  0.000499
  22     -2061.539923   -30.721892    0.002381  0.000504
  23     -2061.539846   -30.673466    0.002381  0.000510
  24     -2061.539767   -30.624402    0.002382  0.000515
  25     -2061.539689   -30.574966    0.002433  0.000520
  26     -2061.539609   -30.524944    0.002491  0.000525
  27     -2061.539528   -30.474495    0.002548  0.000529
  28     -2061.539447   -30.423531    0.002600  0.000534
  29     -2061.539365   -30.372038    0.002651  0.000539
  30     -2061.539289   -30.324224    0.002693  0.000607
  31     -2061.539234   -30.289611    0.002717  0.000703
  32     -2061.539090   -30.199608    0.002791  0.000636
  33     -2061.538936   -30.102651    0.002850  0.000613
  34     -2061.538768   -29.997367    0.002903  0.000589
  35     -2061.538593   -29.887566    0.002938  0.000586
  36     -2061.538411   -29.773561    0.002960  0.000586
  37     -2061.538225   -29.656468    0.002967  0.000591
  38     -2061.538034   -29.536422    0.002962  0.000597
  39     -2061.537838   -29.413627    0.002946  0.000605
  40     -2061.537638   -29.288062    0.002922  0.000613
  41     -2061.537433   -29.159620    0.002980  0.000621
  42     -2061.537224   -29.028586    0.003109  0.000632
  43     -2061.537011   -28.894617    0.003253  0.000643
  44     -2061.536793   -28.758191    0.003407  0.000658
  45     -2061.536572   -28.619108    0.003572  0.000672
  46     -2061.536347   -28.477915    0.003743  0.000690
  47     -2061.536117   -28.333856    0.003921  0.000707
  48     -2061.535884   -28.187638    0.004098  0.000727
  49     -2061.535647   -28.038871    0.004278  0.000747
  50     -2061.535407   -27.888132    0.004451  0.000769
  51     -2061.535161   -27.733776    0.004625  0.000786
  52     -2061.534912   -27.577483    0.004787  0.000810
  53     -2061.534657   -27.417558    0.004944  0.000827
  54     -2061.534398   -27.255103    0.005086  0.000849
  55     -2061.534133   -27.089099    0.005218  0.000866
  56     -2061.533864   -26.920043    0.005332  0.000885
  57     -2061.533589   -26.747344    0.005432  0.000902
  58     -2061.533308   -26.571172    0.005513  0.000918
  59     -2061.533021   -26.391230    0.005580  0.000933
  60     -2061.532729   -26.207491    0.005630  0.000948
  61     -2061.532430   -26.019881    0.005669  0.000960
  62     -2061.532123   -25.827832    0.005693  0.000973
  63     -2061.531836   -25.647366    0.005709  0.001088
  64     -2061.531638   -25.523103    0.005720  0.001179
  65     -2061.531047   -25.152361    0.005723  0.001106
  66     -2061.530443   -24.773292    0.005719  0.001145
  67     -2061.529783   -24.358980    0.005703  0.001108
  68     -2061.529096   -23.928187    0.005687  0.001128
  69     -2061.528370   -23.472294    0.005677  0.001128
  70     -2061.527615   -22.998762    0.005680  0.001150
  71     -2061.526830   -22.506404    0.005704  0.001172
  72     -2061.526017   -21.995658    0.005749  0.001199
  73     -2061.525175   -21.467801    0.005824  0.001232
  74     -2061.524303   -20.920268    0.005921  0.001265
  75     -2061.523406   -20.357265    0.006044  0.001310
  76     -2061.522474   -19.772794    0.006182  0.001345
  77     -2061.521515   -19.170924    0.006338  0.001392
  78     -2061.520523   -18.548599    0.006497  0.001435
  79     -2061.519503   -17.908353    0.006664  0.001486
  80     -2061.518444   -17.243936    0.006818  0.001526
  81     -2061.517357   -16.561860    0.006966  0.001582
  82     -2061.516232   -15.855704    0.007086  0.001629
  83     -2061.515075   -15.129844    0.007185  0.001687
  84     -2061.513881   -14.380675    0.007242  0.001740
  85     -2061.512653   -13.610107    0.007265  0.001794
  86     -2061.511393   -12.819051    0.007240  0.001847
  87     -2061.510101   -12.008599    0.007531  0.001889
  88     -2061.508790   -11.185727    0.007938  0.001931
  89     -2061.507460   -10.351359    0.008271  0.001950
  90     -2061.506128   -9.515151    0.008454  0.001959
  91     -2061.504805   -8.685067    0.008514  0.001951
  92     -2061.503504   -7.868826    0.008399  0.001921
  93     -2061.502243   -7.077392    0.008211  0.001876
  94     -2061.501033   -6.318540    0.007806  0.001813
  95     -2061.499897   -5.605518    0.007496  0.001755
  96     -2061.498840   -4.941927    0.006854  0.001681
  97     -2061.497874   -4.336130    0.006603  0.001622
  98     -2061.496993   -3.782914    0.006139  0.001539
  99     -2061.496192   -3.280452    0.005838  0.001461
 100     -2061.495461   -2.821601    0.005374  0.001366
 101     -2061.494775   -2.391080    0.005201  0.001239
 102     -2061.494123   -1.982483    0.004692  0.001143
 103     -2061.493522   -1.605115    0.005831  0.001251
 104     -2061.493214   -1.412113    0.006580  0.001771
 105     -2061.490964    0.000000    0.000157  0.000059 <= TS
 106     -2061.491810   -0.530673    0.006574  0.001359
 107     -2061.491997   -0.648394    0.003875  0.000946
 108     -2061.492126   -0.728951    0.003926  0.000790
 109     -2061.492316   -0.848569    0.003902  0.000665
 110     -2061.492515   -0.972943    0.003770  0.000651
 111     -2061.492718   -1.100532    0.003876  0.000672
 112     -2061.492934   -1.235891    0.003970  0.000723
 113     -2061.493169   -1.383690    0.004253  0.000786
 114     -2061.493433   -1.549535    0.004521  0.000879
 115     -2061.493732   -1.737092    0.004911  0.000984
 116     -2061.494077   -1.953420    0.005788  0.001133
 117     -2061.494470   -2.200175    0.006884  0.001287
 118     -2061.494928   -2.487152    0.008154  0.001492
 119     -2061.495448   -2.813976    0.009542  0.001689
 120     -2061.496050   -3.191443    0.011058  0.001939
 121     -2061.496725   -3.614799    0.012586  0.002156
 122     -2061.497485   -4.092016    0.014083  0.002408
 123     -2061.498312   -4.611142    0.015389  0.002593
 124     -2061.499209   -5.173473    0.016456  0.002776
 125     -2061.500148   -5.763167    0.017207  0.002885
 126     -2061.501126   -6.376501    0.017656  0.002973
 127     -2061.502120   -7.000457    0.017787  0.003004
 128     -2061.503121   -7.628350    0.017601  0.003002
 129     -2061.504117   -8.253249    0.017062  0.002966
 130     -2061.505094   -8.866448    0.016226  0.002895
 131     -2061.506042   -9.461484    0.015145  0.002799
 132     -2061.506955   -10.034572    0.013912  0.002689
 133     -2061.507830   -10.583699    0.012640  0.002577
 134     -2061.508668   -11.109510    0.011443  0.002469
 135     -2061.509470   -11.612697    0.010394  0.002368
 136     -2061.510239   -12.095051    0.009522  0.002278
 137     -2061.510973   -12.556030    0.008807  0.002201
 138     -2061.511675   -12.996487    0.008245  0.002110
 139     -2061.512351   -13.420690    0.007740  0.002031
 140     -2061.513002   -13.829189    0.007298  0.001957
 141     -2061.513628   -14.221602    0.006900  0.001879
 142     -2061.514233   -14.601207    0.006532  0.001819
 143     -2061.514812   -14.965018    0.006201  0.001744
 144     -2061.515376   -15.318553    0.005884  0.001698
 145     -2061.515914   -15.656524    0.005602  0.001624
 146     -2061.516440   -15.986615    0.005325  0.001583
 147     -2061.516943   -16.301848    0.005082  0.001515
 148     -2061.517434   -16.610089    0.004932  0.001479
 149     -2061.517904   -16.904854    0.004783  0.001417
 150     -2061.518363   -17.193197    0.004637  0.001384
 151     -2061.518803   -17.469143    0.004494  0.001326
 152     -2061.519233   -17.739226    0.004354  0.001296
 153     -2061.519646   -17.997832    0.004217  0.001243
 154     -2061.520049   -18.251193    0.004083  0.001214
 155     -2061.520436   -18.493818    0.003954  0.001165
 156     -2061.520815   -18.731529    0.003825  0.001139
 157     -2061.521178   -18.959161    0.003702  0.001092
 158     -2061.521533   -19.182476    0.003580  0.001067
 159     -2061.521875   -19.396520    0.003463  0.001024
 160     -2061.522209   -19.606123    0.003347  0.001002
 161     -2061.522528   -19.806769    0.003236  0.000960
 162     -2061.522841   -20.003148    0.003125  0.000934
 163     -2061.523143   -20.192425    0.003019  0.000898
 164     -2061.523437   -20.376879    0.002913  0.000872
 165     -2061.523720   -20.554854    0.002812  0.000840
 166     -2061.523997   -20.728082    0.002710  0.000814
 167     -2061.524263   -20.895417    0.002613  0.000784
 168     -2061.524522   -21.058049    0.002515  0.000759
 169     -2061.524773   -21.215283    0.002422  0.000731
 170     -2061.525016   -21.367933    0.002328  0.000706
 171     -2061.525251   -21.515498    0.002238  0.000680
 172     -2061.525480   -21.658822    0.002146  0.000657
 173     -2061.525700   -21.797242    0.002061  0.000632
 174     -2061.525915   -21.931718    0.001971  0.000611
 175     -2061.526121   -22.061396    0.001892  0.000587
 176     -2061.526323   -22.187685    0.001798  0.000571
 177     -2061.526515   -22.308671    0.001732  0.000545
 178     -2061.526704   -22.427153    0.001624  0.000529
 179     -2061.526885   -22.540584    0.001588  0.000509
 180     -2061.527061   -22.651062    0.001446  0.000493

Timings for individual modules:

Sum of individual times         ...    26161.312 sec (= 436.022 min)
GTO integral calculation        ...      723.775 sec (=  12.063 min)   2.8 %
SCF iterations                  ...    21750.626 sec (= 362.510 min)  83.1 %
SCF Gradient evaluation         ...     3686.911 sec (=  61.449 min)  14.1 %
================================================================================

cite the ECPs for Pd [Def2-ECP] as follows:
Ce-Yb(ecp-28): M. Dolg, H. Stoll, H.Preuss, J. Chem. Phys., 1989, 90, 1730-1734.
Y-Cd(ecp-28), Hf-Hg(ecp-46): D. Andrae,U. Haeussermann, M. Dolg, H. Stoll, H. Preuss, Theor. Chim. Acta, 1990, 77, 123-141.
In-Sb(ecp-28), Tl-Bi(ecp-46): B. Metz, H. Stoll, M. Dolg, J. Chem. Phys., 2000, 113, 2563-2569.
Te-Xe(ecp-28), Po-Rn(ecp-46): K. A. Peterson, D. Figgen, E. Goll, H. Stoll, M. Dolg, J. Chem. Phys., 2003, 119, 11113-11123.
Rb(ecp-28), Cs(ecp-46): T. Leininger, A. Nicklass, W. Kuechle, H. Stoll, M. Dolg, A. Bergner, Chem. Phys. Lett., 1996, 255, 274-280.
Sr(ecp-28), Ba(ecp-46): M. Kaupp, P. V. Schleyer, H. Stoll and H. Preuss, J. Chem. Phys., 1991, 94, 1360-1366.
La(ecp-46): M. Dolg, H. Stoll, A. Savin, H. Preuss, Theor. Chim. Acta, 1989, 75, 173-194.
Lu(ecp-28): X. Cao, M. Dolg, J. Chem. Phys., 2001, 115, 7348-7355.

ECP parameters for Pd [Def2-ECP] have been obtained from:
TURBOMOLE (7.0.2)

----- Orbital basis set information -----
Your calculation utilizes the basis: def2-SVP
   F. Weigend and R. Ahlrichs, Phys. Chem. Chem. Phys. 7, 3297 (2005).

                             ****ORCA TERMINATED NORMALLY****
TOTAL RUN TIME: 0 days 7 hours 36 minutes 16 seconds 731 msec
