
                                 *****************
                                 * O   R   C   A *
                                 *****************

                                            #,                                       
                                            ###                                      
                                            ####                                     
                                            #####                                    
                                            ######                                   
                                           ########,                                 
                                     ,,################,,,,,                         
                               ,,#################################,,                 
                          ,,##########################################,,             
                       ,#########################################, ''#####,          
                    ,#############################################,,   '####,        
                  ,##################################################,,,,####,       
                ,###########''''           ''''###############################       
              ,#####''   ,,,,##########,,,,          '''####'''          '####       
            ,##' ,,,,###########################,,,                        '##       
           ' ,,###''''                  '''############,,,                           
         ,,##''                                '''############,,,,        ,,,,,,###''
      ,#''                                            '''#######################'''  
     '                                                          ''''####''''         
             ,#######,   #######,   ,#######,      ##                                
            ,#'     '#,  ##    ##  ,#'     '#,    #''#        ######   ,####,        
            ##       ##  ##   ,#'  ##            #'  '#       #        #'  '#        
            ##       ##  #######   ##           ,######,      #####,   #    #        
            '#,     ,#'  ##    ##  '#,     ,#' ,#      #,         ##   #,  ,#        
             '#######'   ##     ##  '#######'  #'      '#     #####' # '####'        



                  #######################################################
                  #                        -***-                        #
                  #          Department of theory and spectroscopy      #
                  #    Directorship and core code : Frank Neese         #
                  #        Max Planck Institute fuer Kohlenforschung    #
                  #                Kaiser Wilhelm Platz 1               #
                  #                 D-45470 Muelheim/Ruhr               #
                  #                      Germany                        #
                  #                                                     #
                  #                  All rights reserved                #
                  #                        -***-                        #
                  #######################################################


                         Program Version 5.0.3 -  RELEASE  -


 With contributions from (in alphabetic order):
   Daniel Aravena         : Magnetic Suceptibility
   Michael Atanasov       : Ab Initio Ligand Field Theory (pilot matlab implementation)
   Alexander A. Auer      : GIAO ZORA, VPT2 properties, NMR spectrum
   Ute Becker             : Parallelization
   Giovanni Bistoni       : ED, misc. LED, open-shell LED, HFLD
   Martin Brehm           : Molecular dynamics
   Dmytro Bykov           : SCF Hessian
   Vijay G. Chilkuri      : MRCI spin determinant printing, contributions to CSF-ICE
   Dipayan Datta          : RHF DLPNO-CCSD density
   Achintya Kumar Dutta   : EOM-CC, STEOM-CC
   Dmitry Ganyushin       : Spin-Orbit,Spin-Spin,Magnetic field MRCI
   Miquel Garcia          : C-PCM and meta-GGA Hessian, CC/C-PCM, Gaussian charge scheme
   Yang Guo               : DLPNO-NEVPT2, F12-NEVPT2, CIM, IAO-localization
   Andreas Hansen         : Spin unrestricted coupled pair/coupled cluster methods
   Benjamin Helmich-Paris : MC-RPA, TRAH-SCF, COSX integrals
   Lee Huntington         : MR-EOM, pCC
   Robert Izsak           : Overlap fitted RIJCOSX, COSX-SCS-MP3, EOM
   Marcus Kettner         : VPT2
   Christian Kollmar      : KDIIS, OOCD, Brueckner-CCSD(T), CCSD density, CASPT2, CASPT2-K
   Simone Kossmann        : Meta GGA functionals, TD-DFT gradient, OOMP2, MP2 Hessian
   Martin Krupicka        : Initial AUTO-CI
   Lucas Lang             : DCDCAS
   Marvin Lechner         : AUTO-CI (C++ implementation), FIC-MRCC
   Dagmar Lenk            : GEPOL surface, SMD
   Dimitrios Liakos       : Extrapolation schemes; Compound Job, initial MDCI parallelization
   Dimitrios Manganas     : Further ROCIS development; embedding schemes
   Dimitrios Pantazis     : SARC Basis sets
   Anastasios Papadopoulos: AUTO-CI, single reference methods and gradients
   Taras Petrenko         : DFT Hessian,TD-DFT gradient, ASA, ECA, R-Raman, ABS, FL, XAS/XES, NRVS
   Peter Pinski           : DLPNO-MP2, DLPNO-MP2 Gradient
   Christoph Reimann      : Effective Core Potentials
   Marius Retegan         : Local ZFS, SOC
   Christoph Riplinger    : Optimizer, TS searches, QM/MM, DLPNO-CCSD(T), (RO)-DLPNO pert. Triples
   Tobias Risthaus        : Range-separated hybrids, TD-DFT gradient, RPA, STAB
   Michael Roemelt        : Original ROCIS implementation
   Masaaki Saitow         : Open-shell DLPNO-CCSD energy and density
   Barbara Sandhoefer     : DKH picture change effects
   Avijit Sen             : IP-ROCIS
   Kantharuban Sivalingam : CASSCF convergence, NEVPT2, FIC-MRCI
   Bernardo de Souza      : ESD, SOC TD-DFT
   Georgi Stoychev        : AutoAux, RI-MP2 NMR, DLPNO-MP2 response
   Willem Van den Heuvel  : Paramagnetic NMR
   Boris Wezisla          : Elementary symmetry handling
   Frank Wennmohs         : Technical directorship


 We gratefully acknowledge several colleagues who have allowed us to
 interface, adapt or use parts of their codes:
   Stefan Grimme, W. Hujo, H. Kruse, P. Pracht,  : VdW corrections, initial TS optimization,
                  C. Bannwarth, S. Ehlert          DFT functionals, gCP, sTDA/sTD-DF
   Ed Valeev, F. Pavosevic, A. Kumar             : LibInt (2-el integral package), F12 methods
   Garnet Chan, S. Sharma, J. Yang, R. Olivares  : DMRG
   Ulf Ekstrom                                   : XCFun DFT Library
   Mihaly Kallay                                 : mrcc  (arbitrary order and MRCC methods)
   Jiri Pittner, Ondrej Demel                    : Mk-CCSD
   Frank Weinhold                                : gennbo (NPA and NBO analysis)
   Christopher J. Cramer and Donald G. Truhlar   : smd solvation model
   Lars Goerigk                                  : TD-DFT with DH, B97 family of functionals
   V. Asgeirsson, H. Jonsson                     : NEB implementation
   FAccTs GmbH                                   : IRC, NEB, NEB-TS, DLPNO-Multilevel, CI-OPT
                                                   MM, QMMM, 2- and 3-layer-ONIOM, Crystal-QMMM,
                                                   LR-CPCM, SF, NACMEs, symmetry and pop. for TD-DFT,
                                                   nearIR, NL-DFT gradient (VV10), updates on ESD,
                                                   ML-optimized integration grids
   S Lehtola, MJT Oliveira, MAL Marques          : LibXC Library
   Liviu Ungur et al                             : ANISO software


 Your calculation uses the libint2 library for the computation of 2-el integrals
 For citations please refer to: http://libint.valeyev.net

 Your ORCA version has been built with support for libXC version: 5.1.0
 For citations please refer to: https://tddft.org/programs/libxc/

 This ORCA versions uses:
   CBLAS   interface :  Fast vector & matrix operations
   LAPACKE interface :  Fast linear algebra routines
   SCALAPACK package :  Parallel linear algebra routines
   Shared memory     :  Shared parallel matrices
   BLAS/LAPACK       :  OpenBLAS 0.3.15  USE64BITINT DYNAMIC_ARCH NO_AFFINITY SkylakeX SINGLE_THREADED
        Core in use  :  SkylakeX
   Copyright (c) 2011-2014, The OpenBLAS Project


Your calculation utilizes the geometrical counterpoise correction gCP
Please cite in your paper:
H.Kruse, S. Grimme J.Chem.Phys., 136, (2012), 154101 
   

Your calculation utilizes the atom-pairwise dispersion correction
with the Becke-Johnson damping scheme (D3BJ)
Cite in your paper:
S.Grimme, S.Ehrlich, L.Goerigk, J Comput Chem, (2011), 32, 1456–1465 
S.Grimme, J.Antony, S.Ehrlich and H.Krieg, J.Chem.Phys., 132, (2010), 154104 
   

Your calculation employs the composite approach PBEh-3c.
Please cite in your paper:
S. Grimme, J. G. Brandenburg, C. Bannwarth, A. Hansen J.Chem.Phys., 143, (2015), 054107 
   

================================================================================

cite the ECPs for Pd [Def2-ECP] as follows:
Ce-Yb(ecp-28): M. Dolg, H. Stoll, H.Preuss, J. Chem. Phys., 1989, 90, 1730-1734.
Y-Cd(ecp-28), Hf-Hg(ecp-46): D. Andrae,U. Haeussermann, M. Dolg, H. Stoll, H. Preuss, Theor. Chim. Acta, 1990, 77, 123-141.
In-Sb(ecp-28), Tl-Bi(ecp-46): B. Metz, H. Stoll, M. Dolg, J. Chem. Phys., 2000, 113, 2563-2569.
Te-Xe(ecp-28), Po-Rn(ecp-46): K. A. Peterson, D. Figgen, E. Goll, H. Stoll, M. Dolg, J. Chem. Phys., 2003, 119, 11113-11123.
Rb(ecp-28), Cs(ecp-46): T. Leininger, A. Nicklass, W. Kuechle, H. Stoll, M. Dolg, A. Bergner, Chem. Phys. Lett., 1996, 255, 274-280.
Sr(ecp-28), Ba(ecp-46): M. Kaupp, P. V. Schleyer, H. Stoll and H. Preuss, J. Chem. Phys., 1991, 94, 1360-1366.
La(ecp-46): M. Dolg, H. Stoll, A. Savin, H. Preuss, Theor. Chim. Acta, 1989, 75, 173-194.
Lu(ecp-28): X. Cao, M. Dolg, J. Chem. Phys., 2001, 115, 7348-7355.

ECP parameters for Pd [Def2-ECP] have been obtained from:
TURBOMOLE (7.0.2)

----- Orbital basis set information -----
Your calculation utilizes the basis: def2-mSVP

----- AuxJ basis set information -----
Your calculation utilizes the auxiliary basis: def2/J
   F. Weigend, Phys. Chem. Chem. Phys. 8, 1057 (2006).

================================================================================
                                        WARNINGS
                       Please study these warnings very carefully!
================================================================================


INFO   : the flag for use of the SHARK integral package has been found!

================================================================================
                                       INPUT FILE
================================================================================
NAME = 1_8_orca.inp
|  1> ! EnGrad PBEh-3c
|  2> %output 
|  3> xyzfile=True 
|  4> end 
|  5> %scf 
|  6> maxiter 250 
|  7> end
|  8> %output
|  9> Print[P_Hirshfeld] = 1
| 10> end
| 11> % maxcore
| 12> 4000
| 13> *xyz 0 1
| 14> C   -1.90504374   0.15517351  -0.15097945 
| 15> C   -1.63458379  -0.62387270  -1.25260694 
| 16> C   -0.87662147  -1.77252859  -1.13349527 
| 17> C   -0.34763399  -2.13242686   0.09065414 
| 18> C   -1.39100620  -0.23736392   1.08460618 
| 19> C   -0.58918152  -1.37006268   1.21004408 
| 20> H   -2.49862374   1.04607646  -0.25135385 
| 21> H   -2.02364611  -0.33573452  -2.19437734 
| 22> H   -0.70666512  -2.40657417  -2.01090874 
| 23> H   -0.15594979  -1.63929568   2.15554714 
| 24> H    0.23991181  -3.00850601   0.18368028 
| 25> Pd   1.46183055   1.27548463   0.05411457 
| 26> O    2.29502162   0.68047156  -1.69819356 
| 27> O    2.60823377  -0.40765483   0.13377769 
| 28> O    0.32086430   2.94196987  -0.08955832 
| 29> C    0.17112286   2.95557967   1.16335695 
| 30> O    0.71830276   2.05141231   1.83086857 
| 31> H   -1.63059063   0.33164465   1.96708853 
| 32> C    2.84424533  -0.28024277  -1.09467454 
| 33> H    3.51377701  -0.97537874  -1.62077698 
| 34> H   -0.42591713   3.74984441   1.62802540 
| 35> *
| 36> 
| 37>                          ****END OF INPUT****
================================================================================

                     *******************************
                     * Energy+Gradient Calculation *
                     *******************************

---------------------------------
CARTESIAN COORDINATES (ANGSTROEM)
---------------------------------
  C     -1.905044    0.155174   -0.150979
  C     -1.634584   -0.623873   -1.252607
  C     -0.876621   -1.772529   -1.133495
  C     -0.347634   -2.132427    0.090654
  C     -1.391006   -0.237364    1.084606
  C     -0.589182   -1.370063    1.210044
  H     -2.498624    1.046076   -0.251354
  H     -2.023646   -0.335735   -2.194377
  H     -0.706665   -2.406574   -2.010909
  H     -0.155950   -1.639296    2.155547
  H      0.239912   -3.008506    0.183680
  Pd     1.461831    1.275485    0.054115
  O      2.295022    0.680472   -1.698194
  O      2.608234   -0.407655    0.133778
  O      0.320864    2.941970   -0.089558
  C      0.171123    2.955580    1.163357
  O      0.718303    2.051412    1.830869
  H     -1.630591    0.331645    1.967089
  C      2.844245   -0.280243   -1.094675
  H      3.513777   -0.975379   -1.620777
  H     -0.425917    3.749844    1.628025

----------------------------
CARTESIAN COORDINATES (A.U.)
----------------------------
  NO LB      ZA    FRAG     MASS         X           Y           Z
   0 C     6.0000    0    12.011   -3.600011    0.293235   -0.285310
   1 C     6.0000    0    12.011   -3.088916   -1.178949   -2.367084
   2 C     6.0000    0    12.011   -1.656575   -3.349594   -2.141996
   3 C     6.0000    0    12.011   -0.656933   -4.029703    0.171311
   4 C     6.0000    0    12.011   -2.628621   -0.448553    2.049609
   5 C     6.0000    0    12.011   -1.113392   -2.589043    2.286652
   6 H     1.0000    0     1.008   -4.721715    1.976798   -0.474990
   7 H     1.0000    0     1.008   -3.824137   -0.634446   -4.146772
   8 H     1.0000    0     1.008   -1.335404   -4.547766   -3.800067
   9 H     1.0000    0     1.008   -0.294702   -3.097820    4.073394
  10 H     1.0000    0     1.008    0.453368   -5.685252    0.347105
  11 Pd   18.0000*   0   106.400    2.762459    2.410317    0.102262
  12 O     8.0000    0    15.999    4.336962    1.285905   -3.209121
  13 O     8.0000    0    15.999    4.928848   -0.770356    0.252803
  14 O     8.0000    0    15.999    0.606346    5.559517   -0.169241
  15 C     6.0000    0    12.011    0.323375    5.585236    2.198426
  16 O     8.0000    0    15.999    1.357395    3.876607    3.459840
  17 H     1.0000    0     1.008   -3.081370    0.626718    3.717259
  18 C     6.0000    0    12.011    5.374845   -0.529582   -2.068635
  19 H     1.0000    0     1.008    6.640076   -1.843199   -3.062825
  20 H     1.0000    0     1.008   -0.804867    7.086179    3.076522
* core charge reduced due to ECP

--------------------------------
INTERNAL COORDINATES (ANGSTROEM)
--------------------------------
 C      0   0   0     0.000000000000     0.00000000     0.00000000
 C      1   0   0     1.376097637740     0.00000000     0.00000000
 C      2   1   0     1.381341674642   120.63575350     0.00000000
 C      3   2   1     1.381266193298   120.21389855   358.12685562
 C      1   2   3     1.394629727040   118.51991211     0.34312056
 C      4   3   2     1.375710067554   120.63012266     1.31441264
 H      1   2   3     1.075230348760   120.18833520   180.20756444
 H      2   1   3     1.058926147535   119.05952774   179.43174183
 H      3   2   1     1.095788919345   119.81576819   177.29086990
 H      6   4   3     1.074314747473   120.42681809   181.53991294
 H      4   3   2     1.058951654650   120.39132719   180.46225421
 Pd     5   1   2     3.389587174815    85.13818906    82.40880198
 O     12   5   1     2.029490501348   118.50087907   304.08057506
 O     12   5   1     2.038024778388    95.33308764   240.91303160
 O     12   5   1     2.024751574415    85.10356551    59.12456374
 C     15  12   5     1.261905067471    90.30319292    66.55204970
 O     16  15  12     1.249998488274   118.06418223   359.75154218
 H      5   1   2     1.077008147552   119.68583298   182.96331763
 C     14  12   5     1.257390222198    89.06648613   120.26403376
 H     19  14  12     1.099213566458   121.18808698   177.62843993
 H     16  15  12     1.096918408676   119.53736475   179.68304370

---------------------------
INTERNAL COORDINATES (A.U.)
---------------------------
 C      0   0   0     0.000000000000     0.00000000     0.00000000
 C      1   0   0     2.600447668864     0.00000000     0.00000000
 C      2   1   0     2.610357462445   120.63575350     0.00000000
 C      3   2   1     2.610214823378   120.21389855   358.12685562
 C      1   2   3     2.635468242330   118.51991211     0.34312056
 C      4   3   2     2.599715267355   120.63012266     1.31441264
 H      1   2   3     2.031890890037   120.18833520   180.20756444
 H      2   1   3     2.001080414890   119.05952774   179.43174183
 H      3   2   1     2.070740958148   119.81576819   177.29086990
 H      6   4   3     2.030160654356   120.42681809   181.53991294
 H      4   3   2     2.001128616351   120.39132719   180.46225421
 Pd     5   1   2     6.405391467452    85.13818906    82.40880198
 O     12   5   1     3.835181238943   118.50087907   304.08057506
 O     12   5   1     3.851308685299    95.33308764   240.91303160
 O     12   5   1     3.826225964871    85.10356551    59.12456374
 C     15  12   5     2.384654984527    90.30319292    66.55204970
 O     16  15  12     2.362154810654   118.06418223   359.75154218
 H      5   1   2     2.035250442875   119.68583298   182.96331763
 C     14  12   5     2.376123163425    89.06648613   120.26403376
 H     19  14  12     2.077212603297   121.18808698   177.62843993
 H     16  15  12     2.072875383654   119.53736475   179.68304370

---------------------
BASIS SET INFORMATION
---------------------
There are 4 groups of distinct atoms

 Group   1 Type C   : 8s4p1d contracted to 4s2p1d pattern {5111/31/1}
 Group   2 Type H   : 4s contracted to 2s pattern {31}
 Group   3 Type Pd  : 7s6p5d1f contracted to 5s3p2d1f pattern {31111/411/41/1}
 Group   4 Type O   : 8s4p1d contracted to 4s2p1d pattern {5111/31/1}

Atom   0C    basis set group =>   1
Atom   1C    basis set group =>   1
Atom   2C    basis set group =>   1
Atom   3C    basis set group =>   1
Atom   4C    basis set group =>   1
Atom   5C    basis set group =>   1
Atom   6H    basis set group =>   2
Atom   7H    basis set group =>   2
Atom   8H    basis set group =>   2
Atom   9H    basis set group =>   2
Atom  10H    basis set group =>   2
Atom  11Pd   basis set group =>   3
Atom  12O    basis set group =>   4
Atom  13O    basis set group =>   4
Atom  14O    basis set group =>   4
Atom  15C    basis set group =>   1
Atom  16O    basis set group =>   4
Atom  17H    basis set group =>   2
Atom  18C    basis set group =>   1
Atom  19H    basis set group =>   2
Atom  20H    basis set group =>   2
---------------------------------
AUXILIARY/J BASIS SET INFORMATION
---------------------------------
There are 4 groups of distinct atoms

 Group   1 Type C   : 12s5p4d2f1g contracted to 6s4p3d1f1g pattern {711111/2111/211/2/1}
 Group   2 Type H   : 5s2p1d contracted to 3s1p1d pattern {311/2/1}
 Group   3 Type Pd  : 11s5p5d3f3g contracted to 8s5p5d2f3g pattern {41111111/11111/11111/21/111}
 Group   4 Type O   : 12s5p4d2f1g contracted to 6s4p3d1f1g pattern {711111/2111/211/2/1}

Atom   0C    basis set group =>   1
Atom   1C    basis set group =>   1
Atom   2C    basis set group =>   1
Atom   3C    basis set group =>   1
Atom   4C    basis set group =>   1
Atom   5C    basis set group =>   1
Atom   6H    basis set group =>   2
Atom   7H    basis set group =>   2
Atom   8H    basis set group =>   2
Atom   9H    basis set group =>   2
Atom  10H    basis set group =>   2
Atom  11Pd   basis set group =>   3
Atom  12O    basis set group =>   4
Atom  13O    basis set group =>   4
Atom  14O    basis set group =>   4
Atom  15C    basis set group =>   1
Atom  16O    basis set group =>   4
Atom  17H    basis set group =>   2
Atom  18C    basis set group =>   1
Atom  19H    basis set group =>   2
Atom  20H    basis set group =>   2
-------------------------
ECP PARAMETER INFORMATION
-------------------------

 Group 1, Type Pd ECP Def2-ECP (replacing 28 core electrons, lmax=3)

Atom  11Pd   ECP group =>   1

------------------------------------------------------------------------------
                           ORCA GTO INTEGRAL CALCULATION
                           -- RI-GTO INTEGRALS CHOSEN --
------------------------------------------------------------------------------
------------------------------------------------------------------------------
                   ___                                                        
                  /   \      - P O W E R E D   B Y -                         
                 /     \                                                     
                 |  |  |   _    _      __       _____    __    __             
                 |  |  |  | |  | |    /  \     |  _  \  |  |  /  |          
                  \  \/   | |  | |   /    \    | | | |  |  | /  /          
                 / \  \   | |__| |  /  /\  \   | |_| |  |  |/  /          
                |  |  |   |  __  | /  /__\  \  |    /   |      \           
                |  |  |   | |  | | |   __   |  |    \   |  |\   \          
                \     /   | |  | | |  |  |  |  | |\  \  |  | \   \       
                 \___/    |_|  |_| |__|  |__|  |_| \__\ |__|  \__/        
                                                                              
                      - O R C A' S   B I G   F R I E N D -                    
                                      &                                       
                       - I N T E G R A L  F E E D E R -                       
                                                                              
 v1 FN, 2020, v2 2021                                                         
------------------------------------------------------------------------------


Reading SHARK input file 1_8_orca.SHARKINP.tmp ... ok
----------------------
SHARK INTEGRAL PACKAGE
----------------------

Number of atoms                             ...     21
Number of basis functions                   ...    227
Number of shells                            ...    111
Maximum angular momentum                    ...      3
Integral batch strategy                     ... SHARK/LIBINT Hybrid
RI-J (if used) integral strategy            ... SPLIT-RIJ (Revised 2003 algorithm where possible)
Printlevel                                  ...      1
Contraction scheme used                     ... SEGMENTED contraction
Coulomb Range Separation                    ... NOT USED
Exchange Range Separation                   ... NOT USED
Finite Nucleus Model                        ... NOT USED
Auxiliary Coulomb fitting basis             ... AVAILABLE
   # of basis functions in Aux-J            ...    765
   # of shells in Aux-J                     ...    243
   Maximum angular momentum in Aux-J        ...      4
Auxiliary J/K fitting basis                 ... NOT available
Auxiliary Correlation fitting basis         ... NOT available
Auxiliary 'external' fitting basis          ... NOT available
Integral threshold                          ...     2.500000e-11
Primitive cut-off                           ...     2.500000e-12
Primitive pair pre-selection threshold      ...     2.500000e-12

Calculating pre-screening integrals         ... done (  0.1 sec) Dimension = 111
Organizing shell pair data                  ... done (  0.0 sec)
Shell pair information
Total number of shell pairs                 ...      6216
Shell pairs after pre-screening             ...      5104
Total number of primitive shell pairs       ...     21723
Primitive shell pairs kept                  ...     11972
          la=0 lb=0:   1774 shell pairs
          la=1 lb=0:   1653 shell pairs
          la=1 lb=1:    373 shell pairs
          la=2 lb=0:    742 shell pairs
          la=2 lb=1:    365 shell pairs
          la=2 lb=2:     99 shell pairs
          la=3 lb=0:     56 shell pairs
          la=3 lb=1:     27 shell pairs
          la=3 lb=2:     14 shell pairs
          la=3 lb=3:      1 shell pairs

Calculating one electron integrals          ... done (  0.0 sec)
Calculating ECP integrals                   ... done (  0.2 sec)
Calculating RI/J V-Matrix + Cholesky decomp.... done (  0.0 sec)
Calculating Nuclear repulsion               ... done (  0.0 sec) ENN=    947.090142040978 Eh

SHARK setup successfully completed in   0.5 seconds

Maximum memory used throughout the entire GTOINT-calculation: 46.5 MB
-------------------------------------------------------------------------------
                                 ORCA SCF
-------------------------------------------------------------------------------

------------
SCF SETTINGS
------------
Hamiltonian:
 Density Functional     Method          .... DFT(GTOs)
 Exchange Functional    Exchange        .... PBE
   PBE kappa parameter   XKappa         ....  1.024500
   PBE mue parameter    XMuePBE         ....  0.123457
 Correlation Functional Correlation     .... PBE
   PBE beta parameter  CBetaPBE         ....  0.030000
 LDA part of GGA corr.  LDAOpt          .... PW91-LDA
 Gradients option       PostSCFGGA      .... off
 Hybrid DFT is turned on
   Fraction HF Exchange ScalHFX         ....  0.420000
   Scaling of DF-GGA-X  ScalDFX         ....  0.580000
   Scaling of DF-GGA-C  ScalDFC         ....  1.000000
   Scaling of DF-LDA-C  ScalLDAC        ....  1.000000
   Perturbative correction              ....  0.000000
   Density functional embedding theory  .... OFF
 RI-approximation to the Coulomb term is turned on
   Number of AuxJ basis functions       .... 765
   RIJ-ON(X) (HFX calculated with O(N)) .... on
   Number of AuxJ basis functions       .... 765
   RIJ-COSX (HFX calculated with COS-X)).... on


General Settings:
 Integral files         IntName         .... 1_8_orca
 Hartree-Fock type      HFTyp           .... RHF
 Total Charge           Charge          ....    0
 Multiplicity           Mult            ....    1
 Number of Electrons    NEL             ....  106
 Basis Dimension        Dim             ....  227
 Nuclear Repulsion      ENuc            ....    947.0901420410 Eh

Convergence Acceleration:
 DIIS                   CNVDIIS         .... on
   Start iteration      DIISMaxIt       ....    12
   Startup error        DIISStart       ....  0.200000
   # of expansion vecs  DIISMaxEq       ....     5
   Bias factor          DIISBfac        ....   1.050
   Max. coefficient     DIISMaxC        ....  10.000
 Trust-Rad. Augm. Hess. CNVTRAH         .... auto
   Auto Start mean grad. ratio tolernc. ....  1.125000
   Auto Start start iteration           ....    20
   Auto Start num. interpolation iter.  ....    10
   Max. Number of Micro iterations      ....    16
   Max. Number of Macro iterations      .... Maxiter - #DIIS iter
   Number of Davidson start vectors     ....     2
   Converg. threshold I  (grad. norm)   ....   1.000e-05
   Converg. threshold II (energy diff.) ....   1.000e-08
   Grad. Scal. Fac. for Micro threshold ....   0.100
   Minimum threshold for Micro iter.    ....   0.010
   NR start threshold (gradient norm)   ....   0.001
   Initial trust radius                 ....   0.400
   Minimum AH scaling param. (alpha)    ....   1.000
   Maximum AH scaling param. (alpha)    .... 1000.000
   Orbital update algorithm             .... Taylor
   White noise on init. David. guess    .... on
   Maximum white noise                  ....   0.010
   Quad. conv. algorithm                .... NR
   COSX micro iterations for RIJONX calc.... off
 SOSCF                  CNVSOSCF        .... off
 Level Shifting         CNVShift        .... on
   Level shift para.    LevelShift      ....    0.2500
   Turn off err/grad.   ShiftErr        ....    0.0010
 Zerner damping         CNVZerner       .... off
 Static damping         CNVDamp         .... on
   Fraction old density DampFac         ....    0.7000
   Max. Damping (<1)    DampMax         ....    0.9800
   Min. Damping (>=0)   DampMin         ....    0.0000
   Turn off err/grad.   DampErr         ....    0.1000
 Fernandez-Rico         CNVRico         .... off

SCF Procedure:
 Maximum # iterations   MaxIter         ....   250
 SCF integral mode      SCFMode         .... Direct
   Integral package                     .... SHARK and LIBINT hybrid scheme
 Reset frequency        DirectResetFreq ....    20
 Integral Threshold     Thresh          ....  2.500e-11 Eh
 Primitive CutOff       TCut            ....  2.500e-12 Eh

Convergence Tolerance:
 Convergence Check Mode ConvCheckMode   .... Total+1el-Energy
 Convergence forced     ConvForced      .... 0
 Energy Change          TolE            ....  1.000e-08 Eh
 1-El. energy change                    ....  1.000e-05 Eh
 DIIS Error             TolErr          ....  5.000e-07


Diagonalization of the overlap matrix:
Smallest eigenvalue                        ... 4.517e-04
Time for diagonalization                   ...    0.008 sec
Threshold for overlap eigenvalues          ... 1.000e-08
Number of eigenvalues below threshold      ... 0
Time for construction of square roots      ...    0.003 sec
Total time needed                          ...    0.011 sec

--------------------------------
INITIAL GUESS: MINIMAL BASIS EHT
--------------------------------
The minimal basis has 81 functions
EHT matrix was diagonalized
Basis set overlap was calculated now projecting the orbitals
Using GuessMode=FMatrix for the initial guess
C*T matrix was formed
Effective Fockian was calculated
Effective Fockian was diagonalized
Initial density was built
                      ------------------
                      INITIAL GUESS DONE
                      ------------------
-------------------
DFT GRID GENERATION
-------------------

General Integration Accuracy     IntAcc      ... 4.159
Radial Grid Type                 RadialGrid  ... OptM3 with GC (2021)
Angular Grid (max. ang.)         AngularGrid ... 3 (Lebedev-194)
Angular grid pruning method      GridPruning ... 4 (adaptive)
Weight generation scheme         WeightScheme... Becke
Basis function cutoff            BFCut       ... 1.0000e-11
Integration weight cutoff        WCut        ... 1.0000e-14
Angular grids for H and He will be reduced by one unit
Partially contracted basis set               ... off
Rotationally invariant grid construction     ... off

Total number of grid points                  ...    56194
Total number of batches                      ...      888
Average number of points per batch           ...       63
Average number of grid points per atom       ...     2676
Time for grid setup =    0.693 sec

--------------------
COSX GRID GENERATION
--------------------

GRIDX 1
-------
General Integration Accuracy     IntAcc      ... 3.816
Radial Grid Type                 RadialGrid  ... OptM3 with GC (2021)
Angular Grid (max. ang.)         AngularGrid ... 1 (Lebedev-50)
Angular grid pruning method      GridPruning ... 4 (adaptive)
Weight generation scheme         WeightScheme... Becke
Basis function cutoff            BFCut       ... 1.0000e-11
Integration weight cutoff        WCut        ... 1.0000e-14
Angular grids for H and He will be reduced by one unit
Partially contracted basis set               ... on
Rotationally invariant grid construction     ... off

Total number of grid points                  ...    13557
Total number of batches                      ...      220
Average number of points per batch           ...       61
Average number of grid points per atom       ...      646
UseSFitting                                  ... on

GRIDX 2
-------
General Integration Accuracy     IntAcc      ... 4.020
Radial Grid Type                 RadialGrid  ... OptM3 with GC (2021)
Angular Grid (max. ang.)         AngularGrid ... 2 (Lebedev-110)
Angular grid pruning method      GridPruning ... 4 (adaptive)
Weight generation scheme         WeightScheme... Becke
Basis function cutoff            BFCut       ... 1.0000e-11
Integration weight cutoff        WCut        ... 1.0000e-14
Angular grids for H and He will be reduced by one unit
Partially contracted basis set               ... on
Rotationally invariant grid construction     ... off

Total number of grid points                  ...    30203
Total number of batches                      ...      484
Average number of points per batch           ...       62
Average number of grid points per atom       ...     1438
UseSFitting                                  ... on

GRIDX 3
-------
General Integration Accuracy     IntAcc      ... 4.338
Radial Grid Type                 RadialGrid  ... OptM3 with GC (2021)
Angular Grid (max. ang.)         AngularGrid ... 3 (Lebedev-194)
Angular grid pruning method      GridPruning ... 4 (adaptive)
Weight generation scheme         WeightScheme... Becke
Basis function cutoff            BFCut       ... 1.0000e-11
Integration weight cutoff        WCut        ... 1.0000e-14
Angular grids for H and He will be reduced by one unit
Partially contracted basis set               ... on
Rotationally invariant grid construction     ... off

Total number of grid points                  ...    65693
Total number of batches                      ...     1038
Average number of points per batch           ...       63
Average number of grid points per atom       ...     3128
UseSFitting                                  ... on

Time for X-Grid setup             =    1.849 sec

--------------
SCF ITERATIONS
--------------
ITER       Energy         Delta-E        Max-DP      RMS-DP      [F,P]     Damp
               ***  Starting incremental Fock matrix formation  ***
  0   -716.1959152457   0.000000000000 5.46633048  0.04385655  5.0124739 0.7000
  1   -710.1887272417   6.007188003994 3.48340144  0.06224835  3.8905939 0.7000
  2   -708.7893583199   1.399368921766 3.74552839  0.03457758  2.5996275 0.7000
  3   -712.2152251328  -3.425866812848 3.53232371  0.04839377  1.9281315 0.7000
  4   -713.6509290811  -1.435703948291 2.92297715  0.03306985  1.2424675 0.7000
  5   -718.2166476798  -4.565718598723 2.56720870  0.03026451  0.9689478 0.7000
  6   -721.4166124632  -3.199964783376 1.97671764  0.02206787  0.5965263 0.7000
  7   -725.8137550142  -4.397142551010 1.31261169  0.01686256  0.4975727 0.7000
  8   -729.0884864000  -3.274731385795 0.99039916  0.01205506  0.3752685 0.7000
  9   -731.4310307867  -2.342544386751 0.72080581  0.00858511  0.2671916 0.7000
                               ***Turning on DIIS***
 10   -733.1133077535  -1.682276966743 0.50468263  0.00605663  0.1837415 0.7000
 11   -734.3124746555  -1.199166902061 0.34012258  0.00424383  0.1257737 0.7000
 12   -735.1627905177  -0.850315862182 0.79211610  0.00997749  0.0897623 0.0000
 13   -737.1840507909  -2.021260273211 0.00739209  0.00018434  0.0049430 0.0000
 14   -737.1845945717  -0.000543780763 0.00486941  0.00010602  0.0030467 0.0000
 15   -737.1847558945  -0.000161322777 0.00290790  0.00006166  0.0016342 0.0000
 16   -737.1848146557  -0.000058761242 0.00324018  0.00005690  0.0006902 0.0000
               *** Restarting incremental Fock matrix formation ***
                                   *** Resetting DIIS ***
 17   -737.1849489701  -0.000134314404 0.00155186  0.00005350  0.0005216 0.0000
 18   -737.1849527122  -0.000003742125 0.00060928  0.00001337  0.0008198 0.0000
 19   -737.1849558967  -0.000003184419 0.00081294  0.00000961  0.0002795 0.0000
 20   -737.1849568712  -0.000000974539 0.00052326  0.00000617  0.0001451 0.0000
 21   -737.1849572719  -0.000000400720 0.00055511  0.00000582  0.0000967 0.0000
 22   -737.1849574733  -0.000000201393 0.00035605  0.00000375  0.0000499 0.0000
 23   -737.1849575392  -0.000000065897 0.00020725  0.00000217  0.0000196 0.0000
 24   -737.1849575516  -0.000000012349 0.00004189  0.00000047  0.0000093 0.0000
 25   -737.1849575413   0.000000010236 0.00001747  0.00000023  0.0000045 0.0000
                 **** Energy Check signals convergence ****

               *****************************************************
               *                     SUCCESS                       *
               *           SCF CONVERGED AFTER  26 CYCLES          *
               *****************************************************

Old exchange energy                            =    -37.411643425 Eh
New exchange energy                            =    -37.411651353 Eh
Exchange energy change after final integration =     -0.000007928 Eh
Total energy after final integration           =   -737.184965471 Eh
Final COS-X integration done in                =    19.409 sec

----------------
TOTAL SCF ENERGY
----------------

Total Energy       :         -737.18496547 Eh          -20059.82273 eV

Components:
Nuclear Repulsion  :          947.09014204 Eh           25771.63297 eV
Electronic Energy  :        -1684.27510751 Eh          -45831.45570 eV
One Electron Energy:        -2940.82345170 Eh          -80023.87446 eV
Two Electron Energy:         1256.54834419 Eh           34192.41875 eV
Max COSX asymmetry :            0.00003190 Eh               0.00087 eV

Virial components:
Potential Energy   :        -1390.29408179 Eh          -37831.82530 eV
Kinetic Energy     :          653.10911632 Eh           17772.00257 eV
Virial Ratio       :            2.12873170


DFT components:
N(Alpha)           :       53.000072378562 electrons
N(Beta)            :       53.000072378562 electrons
N(Total)           :      106.000144757125 electrons
E(X)               :      -49.989889250007 Eh       
E(C)               :       -4.849345135304 Eh       
E(XC)              :      -54.839234385310 Eh       
DFET-embed. en.    :        0.000000000000 Eh       

---------------
SCF CONVERGENCE
---------------

  Last Energy change         ...   -2.0985e-09  Tolerance :   1.0000e-08
  Last MAX-Density change    ...    0.0000e+00  Tolerance :   1.0000e-07
  Last RMS-Density change    ...    0.0000e+00  Tolerance :   5.0000e-09
  Last DIIS Error            ...    3.1021e-06  Tolerance :   5.0000e-07

             **** THE GBW FILE WAS UPDATED (1_8_orca.gbw) ****
             **** DENSITY 1_8_orca.scfp WAS UPDATED ****
             **** ENERGY FILE WAS UPDATED (1_8_orca.en.tmp) ****
             **** THE GBW FILE WAS UPDATED (1_8_orca.gbw) ****
             **** DENSITY 1_8_orca.scfp WAS UPDATED ****
----------------
ORBITAL ENERGIES
----------------

  NO   OCC          E(Eh)            E(eV) 
   0   2.0000     -19.537498      -531.6423 
   1   2.0000     -19.536098      -531.6042 
   2   2.0000     -19.534967      -531.5735 
   3   2.0000     -19.534155      -531.5514 
   4   2.0000     -10.597658      -288.3769 
   5   2.0000     -10.595254      -288.3115 
   6   2.0000     -10.448690      -284.3233 
   7   2.0000     -10.447837      -284.3001 
   8   2.0000     -10.447494      -284.2908 
   9   2.0000     -10.445717      -284.2424 
  10   2.0000     -10.443881      -284.1925 
  11   2.0000     -10.443516      -284.1825 
  12   2.0000      -3.694511      -100.5327 
  13   2.0000      -2.347862       -63.8886 
  14   2.0000      -2.336513       -63.5798 
  15   2.0000      -2.301100       -62.6161 
  16   2.0000      -1.244429       -33.8626 
  17   2.0000      -1.236534       -33.6478 
  18   2.0000      -1.124264       -30.5928 
  19   2.0000      -1.120305       -30.4851 
  20   2.0000      -0.959916       -26.1206 
  21   2.0000      -0.843636       -22.9565 
  22   2.0000      -0.837195       -22.7812 
  23   2.0000      -0.709486       -19.3061 
  24   2.0000      -0.697481       -18.9794 
  25   2.0000      -0.683265       -18.5926 
  26   2.0000      -0.682161       -18.5625 
  27   2.0000      -0.604715       -16.4551 
  28   2.0000      -0.597584       -16.2611 
  29   2.0000      -0.587343       -15.9824 
  30   2.0000      -0.581452       -15.8221 
  31   2.0000      -0.557502       -15.1704 
  32   2.0000      -0.546205       -14.8630 
  33   2.0000      -0.531349       -14.4587 
  34   2.0000      -0.526886       -14.3373 
  35   2.0000      -0.512983       -13.9590 
  36   2.0000      -0.488787       -13.3006 
  37   2.0000      -0.480452       -13.0738 
  38   2.0000      -0.456406       -12.4195 
  39   2.0000      -0.431249       -11.7349 
  40   2.0000      -0.429904       -11.6983 
  41   2.0000      -0.417963       -11.3733 
  42   2.0000      -0.401707       -10.9310 
  43   2.0000      -0.397374       -10.8131 
  44   2.0000      -0.394739       -10.7414 
  45   2.0000      -0.388248       -10.5648 
  46   2.0000      -0.382005       -10.3949 
  47   2.0000      -0.376007       -10.2317 
  48   2.0000      -0.359305        -9.7772 
  49   2.0000      -0.336394        -9.1538 
  50   2.0000      -0.326736        -8.8909 
  51   2.0000      -0.297008        -8.0820 
  52   2.0000      -0.291710        -7.9378 
  53   0.0000      -0.080280        -2.1845 
  54   0.0000       0.008105         0.2205 
  55   0.0000       0.017397         0.4734 
  56   0.0000       0.022109         0.6016 
  57   0.0000       0.026074         0.7095 
  58   0.0000       0.052502         1.4287 
  59   0.0000       0.083280         2.2662 
  60   0.0000       0.089401         2.4327 
  61   0.0000       0.094987         2.5847 
  62   0.0000       0.144168         3.9230 
  63   0.0000       0.173002         4.7076 
  64   0.0000       0.179861         4.8943 
  65   0.0000       0.198379         5.3982 
  66   0.0000       0.205556         5.5935 
  67   0.0000       0.211030         5.7424 
  68   0.0000       0.223458         6.0806 
  69   0.0000       0.229470         6.2442 
  70   0.0000       0.230731         6.2785 
  71   0.0000       0.256890         6.9903 
  72   0.0000       0.294780         8.0214 
  73   0.0000       0.302900         8.2423 
  74   0.0000       0.328755         8.9459 
  75   0.0000       0.332146         9.0382 
  76   0.0000       0.334531         9.1031 
  77   0.0000       0.337103         9.1730 
  78   0.0000       0.353216         9.6115 
  79   0.0000       0.408657        11.1201 
  80   0.0000       0.415899        11.3172 
  81   0.0000       0.439181        11.9507 
  82   0.0000       0.444084        12.0841 
  83   0.0000       0.454568        12.3694 
  84   0.0000       0.471618        12.8334 
  85   0.0000       0.481357        13.0984 
  86   0.0000       0.514676        14.0050 
  87   0.0000       0.544441        14.8150 
  88   0.0000       0.558154        15.1882 
  89   0.0000       0.562573        15.3084 
  90   0.0000       0.579418        15.7668 
  91   0.0000       0.595155        16.1950 
  92   0.0000       0.602661        16.3992 
  93   0.0000       0.612910        16.6781 
  94   0.0000       0.617526        16.8037 
  95   0.0000       0.621670        16.9165 
  96   0.0000       0.628558        17.1039 
  97   0.0000       0.632614        17.2143 
  98   0.0000       0.639939        17.4136 
  99   0.0000       0.651388        17.7252 
 100   0.0000       0.685159        18.6441 
 101   0.0000       0.692672        18.8486 
 102   0.0000       0.709518        19.3070 
 103   0.0000       0.726319        19.7642 
 104   0.0000       0.739072        20.1112 
 105   0.0000       0.748962        20.3803 
 106   0.0000       0.771773        21.0010 
 107   0.0000       0.777915        21.1682 
 108   0.0000       0.808349        21.9963 
 109   0.0000       0.827324        22.5126 
 110   0.0000       0.859042        23.3757 
 111   0.0000       0.901729        24.5373 
 112   0.0000       0.931641        25.3512 
 113   0.0000       0.934621        25.4323 
 114   0.0000       0.950982        25.8775 
 115   0.0000       0.965742        26.2792 
 116   0.0000       0.973820        26.4990 
 117   0.0000       0.975377        26.5413 
 118   0.0000       0.978087        26.6151 
 119   0.0000       1.019783        27.7497 
 120   0.0000       1.031888        28.0791 
 121   0.0000       1.048222        28.5236 
 122   0.0000       1.054738        28.7009 
 123   0.0000       1.066730        29.0272 
 124   0.0000       1.076105        29.2823 
 125   0.0000       1.085575        29.5400 
 126   0.0000       1.091635        29.7049 
 127   0.0000       1.102422        29.9984 
 128   0.0000       1.117424        30.4067 
 129   0.0000       1.129530        30.7361 
 130   0.0000       1.144022        31.1304 
 131   0.0000       1.162215        31.6255 
 132   0.0000       1.190442        32.3936 
 133   0.0000       1.194413        32.5016 
 134   0.0000       1.212230        32.9864 
 135   0.0000       1.232197        33.5298 
 136   0.0000       1.305299        35.5190 
 137   0.0000       1.308017        35.5930 
 138   0.0000       1.319470        35.9046 
 139   0.0000       1.412285        38.4302 
 140   0.0000       1.425837        38.7990 
 141   0.0000       1.438280        39.1376 
 142   0.0000       1.444922        39.3183 
 143   0.0000       1.454943        39.5910 
 144   0.0000       1.497881        40.7594 
 145   0.0000       1.502752        40.8920 
 146   0.0000       1.538287        41.8589 
 147   0.0000       1.544214        42.0202 
 148   0.0000       1.566171        42.6177 
 149   0.0000       1.574342        42.8400 
 150   0.0000       1.586309        43.1656 
 151   0.0000       1.591426        43.3049 
 152   0.0000       1.767957        48.1086 
 153   0.0000       1.779067        48.4109 
 154   0.0000       1.811841        49.3027 
 155   0.0000       1.816203        49.4214 
 156   0.0000       1.817624        49.4601 
 157   0.0000       1.826554        49.7031 
 158   0.0000       1.833342        49.8878 
 159   0.0000       1.842644        50.1409 
 160   0.0000       1.887867        51.3715 
 161   0.0000       1.910121        51.9770 
 162   0.0000       1.934644        52.6443 
 163   0.0000       1.990565        54.1660 
 164   0.0000       1.995996        54.3138 
 165   0.0000       2.012317        54.7579 
 166   0.0000       2.026710        55.1496 
 167   0.0000       2.046800        55.6963 
 168   0.0000       2.063008        56.1373 
 169   0.0000       2.075039        56.4647 
 170   0.0000       2.078872        56.5690 
 171   0.0000       2.116577        57.5950 
 172   0.0000       2.158336        58.7313 
 173   0.0000       2.165283        58.9204 
 174   0.0000       2.205559        60.0163 
 175   0.0000       2.211121        60.1677 
 176   0.0000       2.214142        60.2499 
 177   0.0000       2.224437        60.5300 
 178   0.0000       2.231262        60.7157 
 179   0.0000       2.304036        62.6960 
 180   0.0000       2.321186        63.1627 
 181   0.0000       2.382647        64.8351 
 182   0.0000       2.386160        64.9307 
 183   0.0000       2.387522        64.9678 
 184   0.0000       2.398775        65.2740 
 185   0.0000       2.419030        65.8252 
 186   0.0000       2.425183        65.9926 
 187   0.0000       2.440328        66.4047 
 188   0.0000       2.457212        66.8641 
 189   0.0000       2.476472        67.3882 
 190   0.0000       2.520623        68.5896 
 191   0.0000       2.534087        68.9560 
 192   0.0000       2.580776        70.2265 
 193   0.0000       2.595483        70.6267 
 194   0.0000       2.599743        70.7426 
 195   0.0000       2.665567        72.5338 
 196   0.0000       2.679598        72.9156 
 197   0.0000       2.713757        73.8451 
 198   0.0000       2.747250        74.7565 
 199   0.0000       2.752226        74.8919 
 200   0.0000       2.754708        74.9594 
 201   0.0000       2.820335        76.7452 
 202   0.0000       2.826453        76.9117 
 203   0.0000       2.833000        77.0899 
 204   0.0000       2.857606        77.7594 
 205   0.0000       2.916751        79.3688 
 206   0.0000       2.927777        79.6689 
 207   0.0000       2.951191        80.3060 
 208   0.0000       2.978807        81.0575 
 209   0.0000       2.991958        81.4153 
 210   0.0000       3.071878        83.5900 
 211   0.0000       3.102611        84.4263 
 212   0.0000       3.144482        85.5657 
 213   0.0000       3.486221        94.8649 
 214   0.0000      13.302182       361.9708 
 215   0.0000      13.660243       371.7141 
 216   0.0000      13.687115       372.4453 
 217   0.0000      13.841704       376.6519 
 218   0.0000      13.917363       378.7107 
 219   0.0000      14.132242       384.5579 
 220   0.0000      14.146061       384.9339 
 221   0.0000      14.581164       396.7737 
 222   0.0000      25.507460       694.0933 
 223   0.0000      25.654251       698.0877 
 224   0.0000      25.716372       699.7781 
 225   0.0000      25.780023       701.5101 
 226   0.0000      51.697236      1406.7533 

                    ********************************
                    * MULLIKEN POPULATION ANALYSIS *
                    ********************************

-----------------------
MULLIKEN ATOMIC CHARGES
-----------------------
   0 C :   -0.214014
   1 C :   -0.217786
   2 C :   -0.227222
   3 C :   -0.221614
   4 C :   -0.257324
   5 C :   -0.206230
   6 H :    0.223114
   7 H :    0.224993
   8 H :    0.216217
   9 H :    0.230550
  10 H :    0.221857
  11 Pd:    0.534887
  12 O :   -0.456687
  13 O :   -0.456303
  14 O :   -0.461073
  15 C :    0.432947
  16 O :   -0.452479
  17 H :    0.225459
  18 C :    0.442238
  19 H :    0.210618
  20 H :    0.207853
Sum of atomic charges:    0.0000000

--------------------------------
MULLIKEN REDUCED ORBITAL CHARGES
--------------------------------
  0 C s       :     3.238630  s :     3.238630
      pz      :     0.907731  p :     2.935070
      px      :     1.008610
      py      :     1.018728
      dz2     :     0.011810  d :     0.040314
      dxz     :     0.008050
      dyz     :     0.009973
      dx2y2   :     0.003496
      dxy     :     0.006986
  1 C s       :     3.237556  s :     3.237556
      pz      :     1.027979  p :     2.939301
      px      :     0.978809
      py      :     0.932513
      dz2     :     0.010780  d :     0.040929
      dxz     :     0.007545
      dyz     :     0.010131
      dx2y2   :     0.006321
      dxy     :     0.006152
  2 C s       :     3.246293  s :     3.246293
      pz      :     0.994531  p :     2.940506
      px      :     0.973638
      py      :     0.972337
      dz2     :     0.009571  d :     0.040422
      dxz     :     0.006393
      dyz     :     0.012679
      dx2y2   :     0.006195
      dxy     :     0.005584
  3 C s       :     3.238634  s :     3.238634
      pz      :     0.904501  p :     2.942007
      px      :     1.002790
      py      :     1.034717
      dz2     :     0.012161  d :     0.040973
      dxz     :     0.008259
      dyz     :     0.009767
      dx2y2   :     0.003482
      dxy     :     0.007304
  4 C s       :     3.255409  s :     3.255409
      pz      :     1.009612  p :     2.961908
      px      :     0.965999
      py      :     0.986297
      dz2     :     0.009664  d :     0.040007
      dxz     :     0.006973
      dyz     :     0.011983
      dx2y2   :     0.005868
      dxy     :     0.005520
  5 C s       :     3.238388  s :     3.238388
      pz      :     1.014088  p :     2.927540
      px      :     0.972954
      py      :     0.940497
      dz2     :     0.010522  d :     0.040302
      dxz     :     0.008022
      dyz     :     0.009589
      dx2y2   :     0.006028
      dxy     :     0.006141
  6 H s       :     0.776886  s :     0.776886
  7 H s       :     0.775007  s :     0.775007
  8 H s       :     0.783783  s :     0.783783
  9 H s       :     0.769450  s :     0.769450
 10 H s       :     0.778143  s :     0.778143
 11 Pds       :     2.549218  s :     2.549218
      pz      :     2.127478  p :     6.309010
      px      :     2.073769
      py      :     2.107763
      dz2     :     1.323535  d :     8.601238
      dxz     :     1.785874
      dyz     :     1.827488
      dx2y2   :     1.924804
      dxy     :     1.739538
      f0      :     0.000583  f :     0.005647
      f+1     :     0.001208
      f-1     :     0.001408
      f+2     :     0.000265
      f-2     :     0.000601
      f+3     :     0.001104
      f-3     :     0.000477
 12 O s       :     3.821178  s :     3.821178
      pz      :     1.624112  p :     4.603891
      px      :     1.544344
      py      :     1.435435
      dz2     :     0.006260  d :     0.031618
      dxz     :     0.006115
      dyz     :     0.007802
      dx2y2   :     0.006577
      dxy     :     0.004865
 13 O s       :     3.819280  s :     3.819280
      pz      :     1.369225  p :     4.605540
      px      :     1.602646
      py      :     1.633669
      dz2     :     0.011718  d :     0.031483
      dxz     :     0.007805
      dyz     :     0.007290
      dx2y2   :     0.002103
      dxy     :     0.002566
 14 O s       :     3.819843  s :     3.819843
      pz      :     1.371212  p :     4.609841
      px      :     1.606792
      py      :     1.631837
      dz2     :     0.011963  d :     0.031389
      dxz     :     0.008184
      dyz     :     0.007179
      dx2y2   :     0.001875
      dxy     :     0.002188
 15 C s       :     3.057131  s :     3.057131
      pz      :     0.793573  p :     2.373162
      px      :     0.766241
      py      :     0.813348
      dz2     :     0.038782  d :     0.136760
      dxz     :     0.031559
      dyz     :     0.040157
      dx2y2   :     0.011481
      dxy     :     0.014782
 16 O s       :     3.816175  s :     3.816175
      pz      :     1.626412  p :     4.605323
      px      :     1.536757
      py      :     1.442154
      dz2     :     0.006053  d :     0.030981
      dxz     :     0.006256
      dyz     :     0.008046
      dx2y2   :     0.006099
      dxy     :     0.004526
 17 H s       :     0.774541  s :     0.774541
 18 C s       :     3.059146  s :     3.059146
      pz      :     0.794977  p :     2.363076
      px      :     0.773833
      py      :     0.794267
      dz2     :     0.035682  d :     0.135541
      dxz     :     0.031300
      dyz     :     0.039423
      dx2y2   :     0.012828
      dxy     :     0.016308
 19 H s       :     0.789382  s :     0.789382
 20 H s       :     0.792147  s :     0.792147


                     *******************************
                     * LOEWDIN POPULATION ANALYSIS *
                     *******************************

----------------------
LOEWDIN ATOMIC CHARGES
----------------------
   0 C :   -0.127751
   1 C :   -0.123570
   2 C :   -0.131995
   3 C :   -0.124914
   4 C :   -0.119131
   5 C :   -0.120464
   6 H :    0.141493
   7 H :    0.138519
   8 H :    0.136784
   9 H :    0.145124
  10 H :    0.137348
  11 Pd:   -0.144230
  12 O :   -0.133776
  13 O :   -0.135938
  14 O :   -0.138910
  15 C :    0.169114
  16 O :   -0.140267
  17 H :    0.141213
  18 C :    0.179757
  19 H :    0.127118
  20 H :    0.124476

-------------------------------
LOEWDIN REDUCED ORBITAL CHARGES
-------------------------------
  0 C s       :     2.883344  s :     2.883344
      pz      :     1.089380  p :     3.152682
      px      :     1.011647
      py      :     1.051655
      dz2     :     0.030322  d :     0.091725
      dxz     :     0.018728
      dyz     :     0.025008
      dx2y2   :     0.005792
      dxy     :     0.011875
  1 C s       :     2.880110  s :     2.880110
      pz      :     1.082513  p :     3.149577
      px      :     1.008513
      py      :     1.058551
      dz2     :     0.024380  d :     0.093883
      dxz     :     0.015660
      dyz     :     0.025246
      dx2y2   :     0.013926
      dxy     :     0.014671
  2 C s       :     2.886025  s :     2.886025
      pz      :     1.077610  p :     3.153924
      px      :     1.018797
      py      :     1.057518
      dz2     :     0.022574  d :     0.092046
      dxz     :     0.015006
      dyz     :     0.028621
      dx2y2   :     0.012709
      dxy     :     0.013136
  3 C s       :     2.880147  s :     2.880147
      pz      :     1.091828  p :     3.150852
      px      :     1.007229
      py      :     1.051794
      dz2     :     0.031302  d :     0.093915
      dxz     :     0.019292
      dyz     :     0.024841
      dx2y2   :     0.005955
      dxy     :     0.012525
  4 C s       :     2.886742  s :     2.886742
      pz      :     1.080652  p :     3.142442
      px      :     1.011038
      py      :     1.050751
      dz2     :     0.022483  d :     0.089947
      dxz     :     0.016012
      dyz     :     0.026921
      dx2y2   :     0.011811
      dxy     :     0.012720
  5 C s       :     2.883152  s :     2.883152
      pz      :     1.082167  p :     3.145525
      px      :     1.010486
      py      :     1.052872
      dz2     :     0.023887  d :     0.091786
      dxz     :     0.016283
      dyz     :     0.023829
      dx2y2   :     0.013160
      dxy     :     0.014628
  6 H s       :     0.858507  s :     0.858507
  7 H s       :     0.861481  s :     0.861481
  8 H s       :     0.863216  s :     0.863216
  9 H s       :     0.854876  s :     0.854876
 10 H s       :     0.862652  s :     0.862652
 11 Pds       :     2.508177  s :     2.508177
      pz      :     2.230234  p :     6.627421
      px      :     2.170044
      py      :     2.227144
      dz2     :     1.451780  d :     9.000998
      dxz     :     1.854293
      dyz     :     1.887934
      dx2y2   :     1.975064
      dxy     :     1.831926
      f0      :     0.000737  f :     0.007634
      f+1     :     0.001752
      f-1     :     0.002031
      f+2     :     0.000316
      f-2     :     0.000706
      f+3     :     0.001543
      f-3     :     0.000549
 12 O s       :     3.466450  s :     3.466450
      pz      :     1.610059  p :     4.607090
      px      :     1.530179
      py      :     1.466852
      dz2     :     0.011451  d :     0.060236
      dxz     :     0.009918
      dyz     :     0.016085
      dx2y2   :     0.010997
      dxy     :     0.011784
 13 O s       :     3.465010  s :     3.465010
      pz      :     1.447061  p :     4.610823
      px      :     1.568415
      py      :     1.595347
      dz2     :     0.025667  d :     0.060105
      dxz     :     0.013230
      dyz     :     0.013050
      dx2y2   :     0.003836
      dxy     :     0.004323
 14 O s       :     3.465187  s :     3.465187
      pz      :     1.449075  p :     4.613554
      px      :     1.569834
      py      :     1.594646
      dz2     :     0.026701  d :     0.060170
      dxz     :     0.012910
      dyz     :     0.013051
      dx2y2   :     0.003612
      dxy     :     0.003895
 15 C s       :     2.852776  s :     2.852776
      pz      :     0.948964  p :     2.679123
      px      :     0.814560
      py      :     0.915599
      dz2     :     0.090676  d :     0.298987
      dxz     :     0.067336
      dyz     :     0.089100
      dx2y2   :     0.021482
      dxy     :     0.030394
 16 O s       :     3.466730  s :     3.466730
      pz      :     1.618216  p :     4.614345
      px      :     1.522908
      py      :     1.473221
      dz2     :     0.011139  d :     0.059192
      dxz     :     0.010292
      dyz     :     0.016716
      dx2y2   :     0.009958
      dxy     :     0.011088
 17 H s       :     0.858787  s :     0.858787
 18 C s       :     2.854499  s :     2.854499
      pz      :     0.945264  p :     2.670194
      px      :     0.831393
      py      :     0.893537
      dz2     :     0.082088  d :     0.295550
      dxz     :     0.066199
      dyz     :     0.088427
      dx2y2   :     0.024803
      dxy     :     0.034032
 19 H s       :     0.872882  s :     0.872882
 20 H s       :     0.875524  s :     0.875524


                      *****************************
                      * MAYER POPULATION ANALYSIS *
                      *****************************

  NA   - Mulliken gross atomic population
  ZA   - Total nuclear charge
  QA   - Mulliken gross atomic charge
  VA   - Mayer's total valence
  BVA  - Mayer's bonded valence
  FA   - Mayer's free valence

  ATOM       NA         ZA         QA         VA         BVA        FA
  0 C      6.2140     6.0000    -0.2140     3.8123     3.8123    -0.0000
  1 C      6.2178     6.0000    -0.2178     3.8333     3.8333    -0.0000
  2 C      6.2272     6.0000    -0.2272     3.8148     3.8148     0.0000
  3 C      6.2216     6.0000    -0.2216     3.8322     3.8322     0.0000
  4 C      6.2573     6.0000    -0.2573     3.8348     3.8348     0.0000
  5 C      6.2062     6.0000    -0.2062     3.8212     3.8212     0.0000
  6 H      0.7769     1.0000     0.2231     0.9104     0.9104    -0.0000
  7 H      0.7750     1.0000     0.2250     0.9073     0.9073    -0.0000
  8 H      0.7838     1.0000     0.2162     0.9142     0.9142    -0.0000
  9 H      0.7695     1.0000     0.2305     0.9078     0.9078     0.0000
 10 H      0.7781     1.0000     0.2219     0.9084     0.9084     0.0000
 11 Pd    17.4651    18.0000     0.5349     2.3742     2.3742     0.0000
 12 O      8.4567     8.0000    -0.4567     2.1979     2.1979     0.0000
 13 O      8.4563     8.0000    -0.4563     2.1969     2.1969    -0.0000
 14 O      8.4611     8.0000    -0.4611     2.1929     2.1929     0.0000
 15 C      5.5671     6.0000     0.4329     3.8269     3.8269    -0.0000
 16 O      8.4525     8.0000    -0.4525     2.1958     2.1958     0.0000
 17 H      0.7745     1.0000     0.2255     0.9122     0.9122     0.0000
 18 C      5.5578     6.0000     0.4422     3.8137     3.8137     0.0000
 19 H      0.7894     1.0000     0.2106     0.9114     0.9114    -0.0000
 20 H      0.7921     1.0000     0.2079     0.9112     0.9112    -0.0000

  Mayer bond orders larger than 0.100000
B(  0-C ,  1-C ) :   1.4332 B(  0-C ,  4-C ) :   1.4157 B(  0-C ,  6-H ) :   0.9189 
B(  1-C ,  2-C ) :   1.4262 B(  1-C ,  7-H ) :   0.9177 B(  2-C ,  3-C ) :   1.4249 
B(  2-C ,  8-H ) :   0.9223 B(  3-C ,  5-C ) :   1.4311 B(  3-C , 10-H ) :   0.9190 
B(  4-C ,  5-C ) :   1.4308 B(  4-C , 17-H ) :   0.9167 B(  5-C ,  9-H ) :   0.9165 
B( 11-Pd, 12-O ) :   0.5922 B( 11-Pd, 13-O ) :   0.5725 B( 11-Pd, 14-O ) :   0.5919 
B( 11-Pd, 16-O ) :   0.5452 B( 12-O , 13-O ) :   0.1125 B( 12-O , 18-C ) :   1.4415 
B( 13-O , 18-C ) :   1.4550 B( 14-O , 15-C ) :   1.4330 B( 14-O , 16-O ) :   0.1115 
B( 15-C , 16-O ) :   1.4804 B( 15-C , 20-H ) :   0.8910 B( 18-C , 19-H ) :   0.8909 



------------------
HIRSHFELD ANALYSIS
------------------

Total integrated alpha density =     53.000072379
Total integrated beta density  =     53.000072379

  ATOM     CHARGE      SPIN    
   0 C   -0.046074    0.000000
   1 C   -0.043768    0.000000
   2 C   -0.043932    0.000000
   3 C   -0.042559    0.000000
   4 C   -0.045055    0.000000
   5 C   -0.041067    0.000000
   6 H    0.044918    0.000000
   7 H    0.043560    0.000000
   8 H    0.043743    0.000000
   9 H    0.048864    0.000000
  10 H    0.042796    0.000000
  11 Pd   0.621582    0.000000
  12 O   -0.292273    0.000000
  13 O   -0.293954    0.000000
  14 O   -0.296591    0.000000
  15 C    0.199483    0.000000
  16 O   -0.294689    0.000000
  17 H    0.038770    0.000000
  18 C    0.201891    0.000000
  19 H    0.078458    0.000000
  20 H    0.075750    0.000000

  TOTAL  -0.000145    0.000000

-------
TIMINGS
-------

Total SCF time: 0 days 0 hours 3 min 25 sec 

Total time                  ....     205.848 sec
Sum of individual times     ....     205.192 sec  ( 99.7%)

Fock matrix formation       ....     201.682 sec  ( 98.0%)
  Split-RI-J                ....      19.247 sec  (  9.5% of F)
  Chain of spheres X        ....     161.850 sec  ( 80.3% of F)
  XC integration            ....      20.472 sec  ( 10.2% of F)
    Basis function eval.    ....       7.971 sec  ( 38.9% of XC)
    Density eval.           ....       4.959 sec  ( 24.2% of XC)
    XC-Functional eval.     ....       1.771 sec  (  8.7% of XC)
    XC-Potential eval.      ....       5.151 sec  ( 25.2% of XC)
Diagonalization             ....       0.254 sec  (  0.1%)
Density matrix formation    ....       0.026 sec  (  0.0%)
Population analysis         ....       0.575 sec  (  0.3%)
Initial guess               ....       0.026 sec  (  0.0%)
Orbital Transformation      ....       0.000 sec  (  0.0%)
Orbital Orthonormalization  ....       0.000 sec  (  0.0%)
DIIS solution               ....       0.087 sec  (  0.0%)
Grid generation             ....       2.542 sec  (  1.2%)

Maximum memory used throughout the entire SCF-calculation: 112.9 MB


-------------------------------------------------------------------------------
                          DFT DISPERSION CORRECTION                            
                                                                               
                              DFTD3 V3.1  Rev 1                                
                          USING Becke-Johnson damping                          
-------------------------------------------------------------------------------
The PBEh-3c composite method is recognized
Using three-body term ABC
Active option DFTDOPT                   ...         4   

molecular C6(AA) [au] = 6714.492851 


            DFT-D V3
 parameters
 s6 scaling factor         :     1.0000 
 a1 scaling factor         :     0.4860 
 s8 scaling factor         :     0.0000 
 a2 scaling factor         :     4.5000 
 Damping factor alpha9(ATM):    16.0000 
 ad hoc parameters k1-k3   :    16.0000     1.3333    -4.0000 

 Edisp/kcal,au: -8.392270080581  -0.013373932239 
 E6   /kcal   :  -8.505869347 
 E8   /kcal   :  -0.000000000 
 E6(ABC)      :   0.113599266 
 % E8         :   0.000000000 
 % E6(ABC)    :  -1.353617853 

-------------------------   ----------------
Dispersion correction           -0.013373932
-------------------------   ----------------

 ** NOTE ** -> element pd will be treated as ni
------------------   -----------------
gCP correction             0.047245304
------------------   -----------------

-------------------------   --------------------
FINAL SINGLE POINT ENERGY      -737.151094098800
-------------------------   --------------------

------------------------------------------------------------------------------
                         ORCA SCF GRADIENT CALCULATION
------------------------------------------------------------------------------

 ... reading COSX grid (gridx3)
Gradient of the Kohn-Sham DFT energy:
Kohn-Sham wavefunction type      ... RKS
Hartree-Fock exchange scaling    ...    0.420
Number of operators              ...    1
Number of atoms                  ...   21
Basis set dimensions             ...  227
Integral neglect threshold       ... 2.5e-11
Integral primitive cutoff        ... 2.5e-12
SHARK Integral package           ... ON

Nuc. rep. gradient       (SHARK) ... done (  0.0 sec)
HCore & Overlap gradient (SHARK) ... done (  0.4 sec)
ECP gradient             (SHARK) ... done (  1.1 sec)
RI-J gradient            (SHARK) ... done (  2.8 sec)
COSX-gradient                    ... done ( 23.9 sec)
Exchange-correlation gradient    ... done
Dispersion correction            ... done
gCP correction                   ... done

------------------
CARTESIAN GRADIENT
------------------

   1   C   :   -0.007433769    0.006683876   -0.014062618
   2   C   :   -0.002586324    0.002986270   -0.002564647
   3   C   :   -0.002275569    0.008903245    0.011820986
   4   C   :    0.003012463   -0.002911876    0.003019514
   5   C   :    0.001736650   -0.000992124   -0.002584913
   6   C   :    0.009816015   -0.013461876    0.004159833
   7   H   :    0.003095969   -0.003558533   -0.001270902
   8   H   :    0.005883076   -0.003514944    0.016884093
   9   H   :    0.000308410   -0.006055666   -0.007029539
  10   H   :   -0.000138239    0.000925137   -0.005375382
  11   H   :   -0.010473903    0.014934177    0.000294058
  12   Pd  :    0.002291445   -0.002504577   -0.001126445
  13   O   :    0.000422958    0.003345483   -0.000537477
  14   O   :   -0.002925976   -0.001182764   -0.000238395
  15   O   :   -0.001999259   -0.001239042   -0.000871477
  16   C   :    0.000916820   -0.003364814    0.007511478
  17   O   :   -0.002530974    0.005198914   -0.001785626
  18   H   :   -0.000573628   -0.003501901   -0.002871765
  19   C   :    0.002248909   -0.001199621   -0.000469334
  20   H   :    0.002084727   -0.001083865   -0.000567315
  21   H   :   -0.000303780    0.001253614   -0.002129363

Difference to translation invariance:
           :    0.0005760210   -0.0003408868    0.0002047646

Difference to rotation invariance:
           :   -0.0003981889   -0.0027837106    0.0033293386

Norm of the cartesian gradient     ...    0.0432033456
RMS gradient                       ...    0.0054431099
MAX gradient                       ...    0.0168840934

-------
TIMINGS
-------

Total SCF gradient time            ...       33.514 sec

One electron gradient       ....       1.571 sec  (  4.7%)
RI-J Coulomb gradient       ....       2.826 sec  (  8.4%)
COSX gradient               ....      23.894 sec  ( 71.3%)
XC gradient                 ....       4.356 sec  ( 13.0%)

Maximum memory used throughout the entire SCFGRAD-calculation: 84.6 MB

                            ***************************************
                            *     ORCA property calculations      *
                            ***************************************

                                    ---------------------
                                    Active property flags
                                    ---------------------
   (+) Dipole Moment


------------------------------------------------------------------------------
                       ORCA ELECTRIC PROPERTIES CALCULATION
------------------------------------------------------------------------------

Dipole Moment Calculation                       ... on
Quadrupole Moment Calculation                   ... off
Polarizability Calculation                      ... off
GBWName                                         ... 1_8_orca.gbw
Electron density                                ... 1_8_orca.scfp
The origin for moment calculation is the CENTER OF MASS  = ( 1.391125,  1.218274  0.051249)

-------------
DIPOLE MOMENT
-------------
                                X             Y             Z
Electronic contribution:     57.09548      49.59179       2.10088
Nuclear contribution   :    -57.14466     -49.73843      -2.12993
                        -----------------------------------------
Total Dipole Moment    :     -0.04919      -0.14665      -0.02906
                        -----------------------------------------
Magnitude (a.u.)       :      0.15738
Magnitude (Debye)      :      0.40003



--------------------
Rotational spectrum 
--------------------
 
Rotational constants in cm-1:     0.028579     0.019980     0.015105 
Rotational constants in MHz :   856.765726   598.972697   452.821804 

 Dipole components along the rotational axes: 
x,y,z [a.u.] :    -0.143845    -0.062596     0.012598 
x,y,z [Debye]:    -0.365624    -0.159107     0.032022 

 

Timings for individual modules:

Sum of individual times         ...      239.986 sec (=   4.000 min)
GTO integral calculation        ...        0.574 sec (=   0.010 min)   0.2 %
SCF iterations                  ...      205.870 sec (=   3.431 min)  85.8 %
SCF Gradient evaluation         ...       33.541 sec (=   0.559 min)  14.0 %
                             ****ORCA TERMINATED NORMALLY****
TOTAL RUN TIME: 0 days 0 hours 4 minutes 0 seconds 255 msec
