
                                 *****************
                                 * O   R   C   A *
                                 *****************

                                            #,                                       
                                            ###                                      
                                            ####                                     
                                            #####                                    
                                            ######                                   
                                           ########,                                 
                                     ,,################,,,,,                         
                               ,,#################################,,                 
                          ,,##########################################,,             
                       ,#########################################, ''#####,          
                    ,#############################################,,   '####,        
                  ,##################################################,,,,####,       
                ,###########''''           ''''###############################       
              ,#####''   ,,,,##########,,,,          '''####'''          '####       
            ,##' ,,,,###########################,,,                        '##       
           ' ,,###''''                  '''############,,,                           
         ,,##''                                '''############,,,,        ,,,,,,###''
      ,#''                                            '''#######################'''  
     '                                                          ''''####''''         
             ,#######,   #######,   ,#######,      ##                                
            ,#'     '#,  ##    ##  ,#'     '#,    #''#        ######   ,####,        
            ##       ##  ##   ,#'  ##            #'  '#       #        #'  '#        
            ##       ##  #######   ##           ,######,      #####,   #    #        
            '#,     ,#'  ##    ##  '#,     ,#' ,#      #,         ##   #,  ,#        
             '#######'   ##     ##  '#######'  #'      '#     #####' # '####'        



                  #######################################################
                  #                        -***-                        #
                  #          Department of theory and spectroscopy      #
                  #    Directorship and core code : Frank Neese         #
                  #        Max Planck Institute fuer Kohlenforschung    #
                  #                Kaiser Wilhelm Platz 1               #
                  #                 D-45470 Muelheim/Ruhr               #
                  #                      Germany                        #
                  #                                                     #
                  #                  All rights reserved                #
                  #                        -***-                        #
                  #######################################################


                         Program Version 5.0.3 -  RELEASE  -


 With contributions from (in alphabetic order):
   Daniel Aravena         : Magnetic Suceptibility
   Michael Atanasov       : Ab Initio Ligand Field Theory (pilot matlab implementation)
   Alexander A. Auer      : GIAO ZORA, VPT2 properties, NMR spectrum
   Ute Becker             : Parallelization
   Giovanni Bistoni       : ED, misc. LED, open-shell LED, HFLD
   Martin Brehm           : Molecular dynamics
   Dmytro Bykov           : SCF Hessian
   Vijay G. Chilkuri      : MRCI spin determinant printing, contributions to CSF-ICE
   Dipayan Datta          : RHF DLPNO-CCSD density
   Achintya Kumar Dutta   : EOM-CC, STEOM-CC
   Dmitry Ganyushin       : Spin-Orbit,Spin-Spin,Magnetic field MRCI
   Miquel Garcia          : C-PCM and meta-GGA Hessian, CC/C-PCM, Gaussian charge scheme
   Yang Guo               : DLPNO-NEVPT2, F12-NEVPT2, CIM, IAO-localization
   Andreas Hansen         : Spin unrestricted coupled pair/coupled cluster methods
   Benjamin Helmich-Paris : MC-RPA, TRAH-SCF, COSX integrals
   Lee Huntington         : MR-EOM, pCC
   Robert Izsak           : Overlap fitted RIJCOSX, COSX-SCS-MP3, EOM
   Marcus Kettner         : VPT2
   Christian Kollmar      : KDIIS, OOCD, Brueckner-CCSD(T), CCSD density, CASPT2, CASPT2-K
   Simone Kossmann        : Meta GGA functionals, TD-DFT gradient, OOMP2, MP2 Hessian
   Martin Krupicka        : Initial AUTO-CI
   Lucas Lang             : DCDCAS
   Marvin Lechner         : AUTO-CI (C++ implementation), FIC-MRCC
   Dagmar Lenk            : GEPOL surface, SMD
   Dimitrios Liakos       : Extrapolation schemes; Compound Job, initial MDCI parallelization
   Dimitrios Manganas     : Further ROCIS development; embedding schemes
   Dimitrios Pantazis     : SARC Basis sets
   Anastasios Papadopoulos: AUTO-CI, single reference methods and gradients
   Taras Petrenko         : DFT Hessian,TD-DFT gradient, ASA, ECA, R-Raman, ABS, FL, XAS/XES, NRVS
   Peter Pinski           : DLPNO-MP2, DLPNO-MP2 Gradient
   Christoph Reimann      : Effective Core Potentials
   Marius Retegan         : Local ZFS, SOC
   Christoph Riplinger    : Optimizer, TS searches, QM/MM, DLPNO-CCSD(T), (RO)-DLPNO pert. Triples
   Tobias Risthaus        : Range-separated hybrids, TD-DFT gradient, RPA, STAB
   Michael Roemelt        : Original ROCIS implementation
   Masaaki Saitow         : Open-shell DLPNO-CCSD energy and density
   Barbara Sandhoefer     : DKH picture change effects
   Avijit Sen             : IP-ROCIS
   Kantharuban Sivalingam : CASSCF convergence, NEVPT2, FIC-MRCI
   Bernardo de Souza      : ESD, SOC TD-DFT
   Georgi Stoychev        : AutoAux, RI-MP2 NMR, DLPNO-MP2 response
   Willem Van den Heuvel  : Paramagnetic NMR
   Boris Wezisla          : Elementary symmetry handling
   Frank Wennmohs         : Technical directorship


 We gratefully acknowledge several colleagues who have allowed us to
 interface, adapt or use parts of their codes:
   Stefan Grimme, W. Hujo, H. Kruse, P. Pracht,  : VdW corrections, initial TS optimization,
                  C. Bannwarth, S. Ehlert          DFT functionals, gCP, sTDA/sTD-DF
   Ed Valeev, F. Pavosevic, A. Kumar             : LibInt (2-el integral package), F12 methods
   Garnet Chan, S. Sharma, J. Yang, R. Olivares  : DMRG
   Ulf Ekstrom                                   : XCFun DFT Library
   Mihaly Kallay                                 : mrcc  (arbitrary order and MRCC methods)
   Jiri Pittner, Ondrej Demel                    : Mk-CCSD
   Frank Weinhold                                : gennbo (NPA and NBO analysis)
   Christopher J. Cramer and Donald G. Truhlar   : smd solvation model
   Lars Goerigk                                  : TD-DFT with DH, B97 family of functionals
   V. Asgeirsson, H. Jonsson                     : NEB implementation
   FAccTs GmbH                                   : IRC, NEB, NEB-TS, DLPNO-Multilevel, CI-OPT
                                                   MM, QMMM, 2- and 3-layer-ONIOM, Crystal-QMMM,
                                                   LR-CPCM, SF, NACMEs, symmetry and pop. for TD-DFT,
                                                   nearIR, NL-DFT gradient (VV10), updates on ESD,
                                                   ML-optimized integration grids
   S Lehtola, MJT Oliveira, MAL Marques          : LibXC Library
   Liviu Ungur et al                             : ANISO software


 Your calculation uses the libint2 library for the computation of 2-el integrals
 For citations please refer to: http://libint.valeyev.net

 Your ORCA version has been built with support for libXC version: 5.1.0
 For citations please refer to: https://tddft.org/programs/libxc/

 This ORCA versions uses:
   CBLAS   interface :  Fast vector & matrix operations
   LAPACKE interface :  Fast linear algebra routines
   SCALAPACK package :  Parallel linear algebra routines
   Shared memory     :  Shared parallel matrices
   BLAS/LAPACK       :  OpenBLAS 0.3.15  USE64BITINT DYNAMIC_ARCH NO_AFFINITY SkylakeX SINGLE_THREADED
        Core in use  :  SkylakeX
   Copyright (c) 2011-2014, The OpenBLAS Project


Your calculation utilizes the geometrical counterpoise correction gCP
Please cite in your paper:
H.Kruse, S. Grimme J.Chem.Phys., 136, (2012), 154101 
   

Your calculation utilizes the atom-pairwise dispersion correction
with the Becke-Johnson damping scheme (D3BJ)
Cite in your paper:
S.Grimme, S.Ehrlich, L.Goerigk, J Comput Chem, (2011), 32, 1456–1465 
S.Grimme, J.Antony, S.Ehrlich and H.Krieg, J.Chem.Phys., 132, (2010), 154104 
   

Your calculation employs the composite approach PBEh-3c.
Please cite in your paper:
S. Grimme, J. G. Brandenburg, C. Bannwarth, A. Hansen J.Chem.Phys., 143, (2015), 054107 
   

================================================================================

----- Orbital basis set information -----
Your calculation utilizes the basis: def2-mSVP

----- AuxJ basis set information -----
Your calculation utilizes the auxiliary basis: def2/J
   F. Weigend, Phys. Chem. Chem. Phys. 8, 1057 (2006).

================================================================================
                                        WARNINGS
                       Please study these warnings very carefully!
================================================================================


INFO   : the flag for use of the SHARK integral package has been found!

================================================================================
                                       INPUT FILE
================================================================================
NAME = 4_4_orca.inp
|  1> ! EnGrad PBEh-3c
|  2> %output 
|  3> xyzfile=True 
|  4> end 
|  5> %scf 
|  6> maxiter 250 
|  7> end
|  8> %output
|  9> Print[P_Hirshfeld] = 1
| 10> end
| 11> % maxcore
| 12> 4000
| 13> *xyz 1 1
| 14> Sc   1.15248711  -0.76239424  -1.95784196 
| 15> C    0.40774274  -0.58508892   0.25147826 
| 16> N   -0.46333077  -1.35259365   0.93731132 
| 17> C   -0.78766499  -0.76956721   2.13579869 
| 18> C   -0.14294150   0.40536078   2.17278421 
| 19> N    0.57532776   0.51114408   1.00392513 
| 20> C    1.41341656   1.63121509   0.63849713 
| 21> H    1.46835166   2.30928126   1.47366161 
| 22> H    1.01221217   2.16421286  -0.25637063 
| 23> H    2.45136981   1.29091622   0.43132565 
| 24> C   -0.97681900  -2.65517629   0.54692433 
| 25> H   -0.61159641  -2.93657245  -0.44220738 
| 26> H   -2.06267525  -2.65012883   0.49551568 
| 27> H   -0.66266528  -3.40774596   1.26847508 
| 28> H   -1.43602023  -1.24906446   2.86988096 
| 29> H   -0.12517582   1.19421646   2.94325787 
| 30> C   -0.21148158   1.56020947  -2.83371132 
| 31> H   -0.91069564   1.54141716  -3.69422410 
| 32> H    0.46623628   2.43265541  -2.94990958 
| 33> H   -0.80787127   1.63621271  -1.90401848 
| 34> H    0.25482280  -0.30289888  -3.13144605 
| 35> *
| 36> 
| 37>                          ****END OF INPUT****
================================================================================

                     *******************************
                     * Energy+Gradient Calculation *
                     *******************************

---------------------------------
CARTESIAN COORDINATES (ANGSTROEM)
---------------------------------
  Sc     1.152487   -0.762394   -1.957842
  C      0.407743   -0.585089    0.251478
  N     -0.463331   -1.352594    0.937311
  C     -0.787665   -0.769567    2.135799
  C     -0.142941    0.405361    2.172784
  N      0.575328    0.511144    1.003925
  C      1.413417    1.631215    0.638497
  H      1.468352    2.309281    1.473662
  H      1.012212    2.164213   -0.256371
  H      2.451370    1.290916    0.431326
  C     -0.976819   -2.655176    0.546924
  H     -0.611596   -2.936572   -0.442207
  H     -2.062675   -2.650129    0.495516
  H     -0.662665   -3.407746    1.268475
  H     -1.436020   -1.249064    2.869881
  H     -0.125176    1.194216    2.943258
  C     -0.211482    1.560209   -2.833711
  H     -0.910696    1.541417   -3.694224
  H      0.466236    2.432655   -2.949910
  H     -0.807871    1.636213   -1.904018
  H      0.254823   -0.302899   -3.131446

----------------------------
CARTESIAN COORDINATES (A.U.)
----------------------------
  NO LB      ZA    FRAG     MASS         X           Y           Z
   0 Sc   21.0000    0    44.960    2.177885   -1.440716   -3.699785
   1 C     6.0000    0    12.011    0.770522   -1.105658    0.475225
   2 N     7.0000    0    14.007   -0.875568   -2.556032    1.771262
   3 C     6.0000    0    12.011   -1.488471   -1.454271    4.036075
   4 C     6.0000    0    12.011   -0.270120    0.766021    4.105967
   5 N     7.0000    0    14.007    1.087212    0.965922    1.897144
   6 C     6.0000    0    12.011    2.670970    3.082550    1.206585
   7 H     1.0000    0     1.008    2.774783    4.363909    2.784817
   8 H     1.0000    0     1.008    1.912804    4.089770   -0.484470
   9 H     1.0000    0     1.008    4.632418    2.439478    0.815087
  10 C     6.0000    0    12.011   -1.845920   -5.017556    1.033537
  11 H     1.0000    0     1.008   -1.155750   -5.549318   -0.835651
  12 H     1.0000    0     1.008   -3.897891   -5.008018    0.936389
  13 H     1.0000    0     1.008   -1.252256   -6.439707    2.397071
  14 H     1.0000    0     1.008   -2.713685   -2.360390    5.423289
  15 H     1.0000    0     1.008   -0.236548    2.256742    5.561951
  16 C     6.0000    0    12.011   -0.399642    2.948369   -5.354938
  17 H     1.0000    0     1.008   -1.720965    2.912856   -6.981072
  18 H     1.0000    0     1.008    0.881059    4.597053   -5.574521
  19 H     1.0000    0     1.008   -1.526655    3.091994   -3.598073
  20 H     1.0000    0     1.008    0.481545   -0.572396   -5.917575

--------------------------------
INTERNAL COORDINATES (ANGSTROEM)
--------------------------------
 Sc     0   0   0     0.000000000000     0.00000000     0.00000000
 C      1   0   0     2.338199561126     0.00000000     0.00000000
 N      2   1   0     1.348406302486   130.02991714     0.00000000
 C      3   2   1     1.371672151810   110.80695855   190.11199995
 C      4   3   2     1.340705817446   106.43268901     2.22727805
 N      2   1   3     1.340144701661   123.55367837   195.02354080
 C      6   2   1     1.445852526128   124.35111657   349.53083703
 H      7   6   2     1.077168187779   108.73881043   187.38378441
 H      7   6   2     1.116171981940   111.35862096    66.22399868
 H      7   6   2     1.111786981501   110.55682327   304.36882657
 C      3   2   1     1.453545217164   126.99066368    12.88240822
 H     11   3   2     1.091307875366   110.87167283   356.33647207
 H     11   3   2     1.087084229401   111.18664198   237.41130689
 H     11   3   2     1.088893545219   109.84411521   116.89014098
 H      4   3   2     1.090485629947   122.81054955   183.39463256
 H      5   4   3     1.102832065188   130.83423649   179.56575182
 C      1   2   3     2.832321612528    94.39465124   110.20354642
 H     17   1   2     1.108934487317   121.98610566   234.33469372
 H     17   1   2     1.110839975700   112.49437569   102.81259037
 H     17   1   2     1.107152171825    93.21184212   348.21305404
 H      1   2   3     1.547347329908   120.62116978    77.05772184

---------------------------
INTERNAL COORDINATES (A.U.)
---------------------------
 Sc     0   0   0     0.000000000000     0.00000000     0.00000000
 C      1   0   0     4.418556816982     0.00000000     0.00000000
 N      2   1   0     2.548118628953   130.02991714     0.00000000
 C      3   2   1     2.592084712448   110.80695855   190.11199995
 C      4   3   2     2.533566821127   106.43268901     2.22727805
 N      2   1   3     2.532506465965   123.55367837   195.02354080
 C      6   2   1     2.732265304421   124.35111657   349.53083703
 H      7   6   2     2.035552875075   108.73881043   187.38378441
 H      7   6   2     2.109259364223   111.35862096    66.22399868
 H      7   6   2     2.100972914295   110.55682327   304.36882657
 C      3   2   1     2.746802383710   126.99066368    12.88240822
 H     11   3   2     2.062273012234   110.87167283   356.33647207
 H     11   3   2     2.054291478072   111.18664198   237.41130689
 H     11   3   2     2.057710589458   109.84411521   116.89014098
 H      4   3   2     2.060719193577   122.81054955   183.39463256
 H      5   4   3     2.084050574913   130.83423649   179.56575182
 C      1   2   3     5.352312170864    94.39465124   110.20354642
 H     17   1   2     2.095582481489   121.98610566   234.33469372
 H     17   1   2     2.099183332684   112.49437569   102.81259037
 H     17   1   2     2.092214393325    93.21184212   348.21305404
 H      1   2   3     2.924062687581   120.62116978    77.05772184

---------------------
BASIS SET INFORMATION
---------------------
There are 4 groups of distinct atoms

 Group   1 Type Sc  : 14s9p5d1f contracted to 5s3p2d1f pattern {63311/531/41/1}
 Group   2 Type C   : 8s4p1d contracted to 4s2p1d pattern {5111/31/1}
 Group   3 Type N   : 8s4p1d contracted to 4s2p1d pattern {5111/31/1}
 Group   4 Type H   : 4s contracted to 2s pattern {31}

Atom   0Sc   basis set group =>   1
Atom   1C    basis set group =>   2
Atom   2N    basis set group =>   3
Atom   3C    basis set group =>   2
Atom   4C    basis set group =>   2
Atom   5N    basis set group =>   3
Atom   6C    basis set group =>   2
Atom   7H    basis set group =>   4
Atom   8H    basis set group =>   4
Atom   9H    basis set group =>   4
Atom  10C    basis set group =>   2
Atom  11H    basis set group =>   4
Atom  12H    basis set group =>   4
Atom  13H    basis set group =>   4
Atom  14H    basis set group =>   4
Atom  15H    basis set group =>   4
Atom  16C    basis set group =>   2
Atom  17H    basis set group =>   4
Atom  18H    basis set group =>   4
Atom  19H    basis set group =>   4
Atom  20H    basis set group =>   4
---------------------------------
AUXILIARY/J BASIS SET INFORMATION
---------------------------------
There are 4 groups of distinct atoms

 Group   1 Type Sc  : 19s5p5d3f3g contracted to 8s5p5d2f3g pattern {121111111/11111/11111/21/111}
 Group   2 Type C   : 12s5p4d2f1g contracted to 6s4p3d1f1g pattern {711111/2111/211/2/1}
 Group   3 Type N   : 12s5p4d2f1g contracted to 6s4p3d1f1g pattern {711111/2111/211/2/1}
 Group   4 Type H   : 5s2p1d contracted to 3s1p1d pattern {311/2/1}

Atom   0Sc   basis set group =>   1
Atom   1C    basis set group =>   2
Atom   2N    basis set group =>   3
Atom   3C    basis set group =>   2
Atom   4C    basis set group =>   2
Atom   5N    basis set group =>   3
Atom   6C    basis set group =>   2
Atom   7H    basis set group =>   4
Atom   8H    basis set group =>   4
Atom   9H    basis set group =>   4
Atom  10C    basis set group =>   2
Atom  11H    basis set group =>   4
Atom  12H    basis set group =>   4
Atom  13H    basis set group =>   4
Atom  14H    basis set group =>   4
Atom  15H    basis set group =>   4
Atom  16C    basis set group =>   2
Atom  17H    basis set group =>   4
Atom  18H    basis set group =>   4
Atom  19H    basis set group =>   4
Atom  20H    basis set group =>   4
------------------------------------------------------------------------------
                           ORCA GTO INTEGRAL CALCULATION
                           -- RI-GTO INTEGRALS CHOSEN --
------------------------------------------------------------------------------
------------------------------------------------------------------------------
                   ___                                                        
                  /   \      - P O W E R E D   B Y -                         
                 /     \                                                     
                 |  |  |   _    _      __       _____    __    __             
                 |  |  |  | |  | |    /  \     |  _  \  |  |  /  |          
                  \  \/   | |  | |   /    \    | | | |  |  | /  /          
                 / \  \   | |__| |  /  /\  \   | |_| |  |  |/  /          
                |  |  |   |  __  | /  /__\  \  |    /   |      \           
                |  |  |   | |  | | |   __   |  |    \   |  |\   \          
                \     /   | |  | | |  |  |  |  | |\  \  |  | \   \       
                 \___/    |_|  |_| |__|  |__|  |_| \__\ |__|  \__/        
                                                                              
                      - O R C A' S   B I G   F R I E N D -                    
                                      &                                       
                       - I N T E G R A L  F E E D E R -                       
                                                                              
 v1 FN, 2020, v2 2021                                                         
------------------------------------------------------------------------------


Reading SHARK input file 4_4_orca.SHARKINP.tmp ... ok
----------------------
SHARK INTEGRAL PACKAGE
----------------------

Number of atoms                             ...     21
Number of basis functions                   ...    175
Number of shells                            ...     91
Maximum angular momentum                    ...      3
Integral batch strategy                     ... SHARK/LIBINT Hybrid
RI-J (if used) integral strategy            ... SPLIT-RIJ (Revised 2003 algorithm where possible)
Printlevel                                  ...      1
Contraction scheme used                     ... SEGMENTED contraction
Coulomb Range Separation                    ... NOT USED
Exchange Range Separation                   ... NOT USED
Finite Nucleus Model                        ... NOT USED
Auxiliary Coulomb fitting basis             ... AVAILABLE
   # of basis functions in Aux-J            ...    613
   # of shells in Aux-J                     ...    203
   Maximum angular momentum in Aux-J        ...      4
Auxiliary J/K fitting basis                 ... NOT available
Auxiliary Correlation fitting basis         ... NOT available
Auxiliary 'external' fitting basis          ... NOT available
Integral threshold                          ...     2.500000e-11
Primitive cut-off                           ...     2.500000e-12
Primitive pair pre-selection threshold      ...     2.500000e-12

Calculating pre-screening integrals         ... done (  0.1 sec) Dimension = 91
Organizing shell pair data                  ... done (  0.0 sec)
Shell pair information
Total number of shell pairs                 ...      4186
Shell pairs after pre-screening             ...      3644
Total number of primitive shell pairs       ...     16651
Primitive shell pairs kept                  ...      9759
          la=0 lb=0:   1535 shell pairs
          la=1 lb=0:   1075 shell pairs
          la=1 lb=1:    188 shell pairs
          la=2 lb=0:    522 shell pairs
          la=2 lb=1:    182 shell pairs
          la=2 lb=2:     51 shell pairs
          la=3 lb=0:     61 shell pairs
          la=3 lb=1:     19 shell pairs
          la=3 lb=2:     10 shell pairs
          la=3 lb=3:      1 shell pairs

Calculating one electron integrals          ... done (  0.0 sec)
Calculating RI/J V-Matrix + Cholesky decomp.... done (  0.0 sec)
Calculating Nuclear repulsion               ... done (  0.0 sec) ENN=    571.287354203301 Eh

SHARK setup successfully completed in   0.3 seconds

Maximum memory used throughout the entire GTOINT-calculation: 33.1 MB
-------------------------------------------------------------------------------
                                 ORCA SCF
-------------------------------------------------------------------------------

------------
SCF SETTINGS
------------
Hamiltonian:
 Density Functional     Method          .... DFT(GTOs)
 Exchange Functional    Exchange        .... PBE
   PBE kappa parameter   XKappa         ....  1.024500
   PBE mue parameter    XMuePBE         ....  0.123457
 Correlation Functional Correlation     .... PBE
   PBE beta parameter  CBetaPBE         ....  0.030000
 LDA part of GGA corr.  LDAOpt          .... PW91-LDA
 Gradients option       PostSCFGGA      .... off
 Hybrid DFT is turned on
   Fraction HF Exchange ScalHFX         ....  0.420000
   Scaling of DF-GGA-X  ScalDFX         ....  0.580000
   Scaling of DF-GGA-C  ScalDFC         ....  1.000000
   Scaling of DF-LDA-C  ScalLDAC        ....  1.000000
   Perturbative correction              ....  0.000000
   Density functional embedding theory  .... OFF
 RI-approximation to the Coulomb term is turned on
   Number of AuxJ basis functions       .... 613
   RIJ-ON(X) (HFX calculated with O(N)) .... on
   Number of AuxJ basis functions       .... 613
   RIJ-COSX (HFX calculated with COS-X)).... on


General Settings:
 Integral files         IntName         .... 4_4_orca
 Hartree-Fock type      HFTyp           .... RHF
 Total Charge           Charge          ....    1
 Multiplicity           Mult            ....    1
 Number of Electrons    NEL             ....   82
 Basis Dimension        Dim             ....  175
 Nuclear Repulsion      ENuc            ....    571.2873542033 Eh

Convergence Acceleration:
 DIIS                   CNVDIIS         .... on
   Start iteration      DIISMaxIt       ....    12
   Startup error        DIISStart       ....  0.200000
   # of expansion vecs  DIISMaxEq       ....     5
   Bias factor          DIISBfac        ....   1.050
   Max. coefficient     DIISMaxC        ....  10.000
 Trust-Rad. Augm. Hess. CNVTRAH         .... auto
   Auto Start mean grad. ratio tolernc. ....  1.125000
   Auto Start start iteration           ....    20
   Auto Start num. interpolation iter.  ....    10
   Max. Number of Micro iterations      ....    16
   Max. Number of Macro iterations      .... Maxiter - #DIIS iter
   Number of Davidson start vectors     ....     2
   Converg. threshold I  (grad. norm)   ....   1.000e-05
   Converg. threshold II (energy diff.) ....   1.000e-08
   Grad. Scal. Fac. for Micro threshold ....   0.100
   Minimum threshold for Micro iter.    ....   0.010
   NR start threshold (gradient norm)   ....   0.001
   Initial trust radius                 ....   0.400
   Minimum AH scaling param. (alpha)    ....   1.000
   Maximum AH scaling param. (alpha)    .... 1000.000
   Orbital update algorithm             .... Taylor
   White noise on init. David. guess    .... on
   Maximum white noise                  ....   0.010
   Quad. conv. algorithm                .... NR
   COSX micro iterations for RIJONX calc.... off
 SOSCF                  CNVSOSCF        .... off
 Level Shifting         CNVShift        .... on
   Level shift para.    LevelShift      ....    0.2500
   Turn off err/grad.   ShiftErr        ....    0.0010
 Zerner damping         CNVZerner       .... off
 Static damping         CNVDamp         .... on
   Fraction old density DampFac         ....    0.7000
   Max. Damping (<1)    DampMax         ....    0.9800
   Min. Damping (>=0)   DampMin         ....    0.0000
   Turn off err/grad.   DampErr         ....    0.1000
 Fernandez-Rico         CNVRico         .... off

SCF Procedure:
 Maximum # iterations   MaxIter         ....   250
 SCF integral mode      SCFMode         .... Direct
   Integral package                     .... SHARK and LIBINT hybrid scheme
 Reset frequency        DirectResetFreq ....    20
 Integral Threshold     Thresh          ....  2.500e-11 Eh
 Primitive CutOff       TCut            ....  2.500e-12 Eh

Convergence Tolerance:
 Convergence Check Mode ConvCheckMode   .... Total+1el-Energy
 Convergence forced     ConvForced      .... 0
 Energy Change          TolE            ....  1.000e-08 Eh
 1-El. energy change                    ....  1.000e-05 Eh
 DIIS Error             TolErr          ....  5.000e-07


Diagonalization of the overlap matrix:
Smallest eigenvalue                        ... 1.421e-03
Time for diagonalization                   ...    0.010 sec
Threshold for overlap eigenvalues          ... 1.000e-08
Number of eigenvalues below threshold      ... 0
Time for construction of square roots      ...    0.003 sec
Total time needed                          ...    0.013 sec

--------------------------------
INITIAL GUESS: MINIMAL BASIS EHT
--------------------------------
The minimal basis has 70 functions
EHT matrix was diagonalized
Basis set overlap was calculated now projecting the orbitals
Using GuessMode=FMatrix for the initial guess
C*T matrix was formed
Effective Fockian was calculated
Effective Fockian was diagonalized
Initial density was built
                      ------------------
                      INITIAL GUESS DONE
                      ------------------
-------------------
DFT GRID GENERATION
-------------------

General Integration Accuracy     IntAcc      ... 4.159
Radial Grid Type                 RadialGrid  ... OptM3 with GC (2021)
Angular Grid (max. ang.)         AngularGrid ... 3 (Lebedev-194)
Angular grid pruning method      GridPruning ... 4 (adaptive)
Weight generation scheme         WeightScheme... Becke
Basis function cutoff            BFCut       ... 1.0000e-11
Integration weight cutoff        WCut        ... 1.0000e-14
Angular grids for H and He will be reduced by one unit
Partially contracted basis set               ... off
Rotationally invariant grid construction     ... off

Total number of grid points                  ...    48238
Total number of batches                      ...      764
Average number of points per batch           ...       63
Average number of grid points per atom       ...     2297
Time for grid setup =    0.453 sec

--------------------
COSX GRID GENERATION
--------------------

GRIDX 1
-------
General Integration Accuracy     IntAcc      ... 3.816
Radial Grid Type                 RadialGrid  ... OptM3 with GC (2021)
Angular Grid (max. ang.)         AngularGrid ... 1 (Lebedev-50)
Angular grid pruning method      GridPruning ... 4 (adaptive)
Weight generation scheme         WeightScheme... Becke
Basis function cutoff            BFCut       ... 1.0000e-11
Integration weight cutoff        WCut        ... 1.0000e-14
Angular grids for H and He will be reduced by one unit
Partially contracted basis set               ... on
Rotationally invariant grid construction     ... off

Total number of grid points                  ...    12290
Total number of batches                      ...      202
Average number of points per batch           ...       60
Average number of grid points per atom       ...      585
UseSFitting                                  ... on

GRIDX 2
-------
General Integration Accuracy     IntAcc      ... 4.020
Radial Grid Type                 RadialGrid  ... OptM3 with GC (2021)
Angular Grid (max. ang.)         AngularGrid ... 2 (Lebedev-110)
Angular grid pruning method      GridPruning ... 4 (adaptive)
Weight generation scheme         WeightScheme... Becke
Basis function cutoff            BFCut       ... 1.0000e-11
Integration weight cutoff        WCut        ... 1.0000e-14
Angular grids for H and He will be reduced by one unit
Partially contracted basis set               ... on
Rotationally invariant grid construction     ... off

Total number of grid points                  ...    25994
Total number of batches                      ...      417
Average number of points per batch           ...       62
Average number of grid points per atom       ...     1238
UseSFitting                                  ... on

GRIDX 3
-------
General Integration Accuracy     IntAcc      ... 4.338
Radial Grid Type                 RadialGrid  ... OptM3 with GC (2021)
Angular Grid (max. ang.)         AngularGrid ... 3 (Lebedev-194)
Angular grid pruning method      GridPruning ... 4 (adaptive)
Weight generation scheme         WeightScheme... Becke
Basis function cutoff            BFCut       ... 1.0000e-11
Integration weight cutoff        WCut        ... 1.0000e-14
Angular grids for H and He will be reduced by one unit
Partially contracted basis set               ... on
Rotationally invariant grid construction     ... off

Total number of grid points                  ...    56963
Total number of batches                      ...      901
Average number of points per batch           ...       63
Average number of grid points per atom       ...     2713
UseSFitting                                  ... on

Time for X-Grid setup             =    1.320 sec

--------------
SCF ITERATIONS
--------------
ITER       Energy         Delta-E        Max-DP      RMS-DP      [F,P]     Damp
               ***  Starting incremental Fock matrix formation  ***
  0  -1102.3538121562   0.000000000000 0.56381078  0.00815697  0.6964501 0.7000
  1  -1101.9009995313   0.452812624902 0.17861823  0.00526639  0.2889824 0.7000
  2  -1102.8144466587  -0.913447127392 0.11784152  0.00356719  0.2486991 0.7000
  3  -1103.3080531453  -0.493606486639 0.07783891  0.00227324  0.2001245 0.7000
                               ***Turning on DIIS***
  4  -1103.6136141037  -0.305560958380 0.05162137  0.00167073  0.1521457 0.7000
  5  -1103.8297050717  -0.216090968005 0.05669512  0.00162111  0.1115372 0.7000
  6  -1103.9916922758  -0.161987204052 0.13637835  0.00404233  0.0774932 0.0000
  7  -1104.3897451737  -0.398052897954 0.03677756  0.00071662  0.0214335 0.0000
  8  -1104.3928760543  -0.003130880580 0.01195519  0.00032169  0.0082072 0.0000
  9  -1104.3940564587  -0.001180404441 0.01305426  0.00026711  0.0061093 0.0000
 10  -1104.3947895972  -0.000733138496 0.01240228  0.00023133  0.0040065 0.0000
 11  -1104.3952129548  -0.000423357561 0.00903583  0.00016386  0.0021242 0.0000
 12  -1104.3954487887  -0.000235833959 0.00636861  0.00012169  0.0018488 0.0000
 13  -1104.3955962208  -0.000147432087 0.00637949  0.00011918  0.0014798 0.0000
 14  -1104.3957116620  -0.000115441177 0.00548839  0.00010632  0.0013418 0.0000
 15  -1104.3957991619  -0.000087499862 0.00491835  0.00009777  0.0011358 0.0000
 16  -1104.3958671716  -0.000068009757 0.01174712  0.00025049  0.0008847 0.0000
               *** Restarting incremental Fock matrix formation ***
                                   *** Resetting DIIS ***
 17  -1104.3961190136  -0.000251841981 0.00157298  0.00004904  0.0004728 0.0000
 18  -1104.3961329578  -0.000013944223 0.00077278  0.00002075  0.0003936 0.0000
 19  -1104.3961382462  -0.000005288408 0.00246945  0.00005987  0.0003474 0.0000
 20  -1104.3961499226  -0.000011676379 0.00286915  0.00006703  0.0002206 0.0000
 21  -1104.3961563978  -0.000006475156 0.00079802  0.00001814  0.0002219 0.0000
 22  -1104.3961572638  -0.000000866016 0.00060738  0.00001338  0.0000589 0.0000
 23  -1104.3961575013  -0.000000237490 0.00015040  0.00000329  0.0000417 0.0000
 24  -1104.3961575210  -0.000000019685 0.00002235  0.00000068  0.0000109 0.0000
 25  -1104.3961575204   0.000000000530 0.00003153  0.00000074  0.0000070 0.0000
 26  -1104.3961575231  -0.000000002663 0.00001198  0.00000035  0.0000030 0.0000
 27  -1104.3961575201   0.000000002991 0.00000940  0.00000022  0.0000023 0.0000
 28  -1104.3961575131   0.000000007027 0.00000889  0.00000023  0.0000020 0.0000
 29  -1104.3961575151  -0.000000002003 0.00000639  0.00000017  0.0000014 0.0000
                            ***DIIS convergence achieved***

               *****************************************************
               *                     SUCCESS                       *
               *           SCF CONVERGED AFTER  30 CYCLES          *
               *****************************************************

Old exchange energy                            =    -36.279698741 Eh
New exchange energy                            =    -36.279737081 Eh
Exchange energy change after final integration =     -0.000038340 Eh
Total energy after final integration           =  -1104.396195847 Eh
Final COS-X integration done in                =    11.610 sec

----------------
TOTAL SCF ENERGY
----------------

Total Energy       :        -1104.39619585 Eh          -30052.14831 eV

Components:
Nuclear Repulsion  :          571.28735420 Eh           15545.51923 eV
Electronic Energy  :        -1675.68355005 Eh          -45597.66754 eV
One Electron Energy:        -2628.44948029 Eh          -71523.74656 eV
Two Electron Energy:          952.76593024 Eh           25926.07902 eV
Max COSX asymmetry :            0.00000400 Eh               0.00011 eV

Virial components:
Potential Energy   :        -2205.42428671 Eh          -60012.64583 eV
Kinetic Energy     :         1101.02809086 Eh           29960.49751 eV
Virial Ratio       :            2.00305905


DFT components:
N(Alpha)           :       41.000119099371 electrons
N(Beta)            :       41.000119099371 electrons
N(Total)           :       82.000238198742 electrons
E(X)               :      -48.383477527200 Eh       
E(C)               :       -3.762725571232 Eh       
E(XC)              :      -52.146203098433 Eh       
DFET-embed. en.    :        0.000000000000 Eh       

---------------
SCF CONVERGENCE
---------------

  Last Energy change         ...    7.5836e-09  Tolerance :   1.0000e-08
  Last MAX-Density change    ...    0.0000e+00  Tolerance :   1.0000e-07
  Last RMS-Density change    ...    0.0000e+00  Tolerance :   5.0000e-09
  Last DIIS Error            ...    9.5277e-07  Tolerance :   5.0000e-07

             **** THE GBW FILE WAS UPDATED (4_4_orca.gbw) ****
             **** DENSITY 4_4_orca.scfp WAS UPDATED ****
             **** ENERGY FILE WAS UPDATED (4_4_orca.en.tmp) ****
             **** THE GBW FILE WAS UPDATED (4_4_orca.gbw) ****
             **** DENSITY 4_4_orca.scfp WAS UPDATED ****
----------------
ORBITAL ENERGIES
----------------

  NO   OCC          E(Eh)            E(eV) 
   0   2.0000    -162.825615     -4430.7102 
   1   2.0000     -18.130443      -493.3544 
   2   2.0000     -14.972288      -407.4167 
   3   2.0000     -14.966712      -407.2649 
   4   2.0000     -14.958933      -407.0533 
   5   2.0000     -14.859343      -404.3433 
   6   2.0000     -14.857017      -404.2800 
   7   2.0000     -10.638755      -289.4953 
   8   2.0000     -10.627701      -289.1944 
   9   2.0000     -10.625562      -289.1362 
  10   2.0000     -10.622829      -289.0619 
  11   2.0000     -10.622193      -289.0446 
  12   2.0000     -10.531348      -286.5725 
  13   2.0000      -2.362614       -64.2900 
  14   2.0000      -1.520611       -41.3779 
  15   2.0000      -1.509249       -41.0687 
  16   2.0000      -1.500380       -40.8274 
  17   2.0000      -1.307529       -35.5797 
  18   2.0000      -1.185366       -32.2555 
  19   2.0000      -1.023578       -27.8530 
  20   2.0000      -0.978484       -26.6259 
  21   2.0000      -0.924380       -25.1537 
  22   2.0000      -0.838999       -22.8303 
  23   2.0000      -0.824707       -22.4414 
  24   2.0000      -0.801247       -21.8030 
  25   2.0000      -0.746425       -20.3113 
  26   2.0000      -0.700460       -19.0605 
  27   2.0000      -0.672231       -18.2923 
  28   2.0000      -0.655130       -17.8270 
  29   2.0000      -0.652354       -17.7515 
  30   2.0000      -0.649403       -17.6712 
  31   2.0000      -0.605121       -16.4662 
  32   2.0000      -0.597398       -16.2560 
  33   2.0000      -0.588577       -16.0160 
  34   2.0000      -0.532493       -14.4899 
  35   2.0000      -0.525681       -14.3045 
  36   2.0000      -0.508752       -13.8438 
  37   2.0000      -0.482823       -13.1383 
  38   2.0000      -0.468291       -12.7428 
  39   2.0000      -0.433034       -11.7835 
  40   2.0000      -0.320416        -8.7190 
  41   0.0000      -0.189169        -5.1476 
  42   0.0000      -0.158364        -4.3093 
  43   0.0000      -0.148221        -4.0333 
  44   0.0000      -0.136394        -3.7115 
  45   0.0000      -0.132327        -3.6008 
  46   0.0000      -0.119672        -3.2564 
  47   0.0000      -0.079962        -2.1759 
  48   0.0000      -0.070997        -1.9319 
  49   0.0000      -0.057854        -1.5743 
  50   0.0000      -0.030698        -0.8353 
  51   0.0000      -0.002405        -0.0654 
  52   0.0000       0.028719         0.7815 
  53   0.0000       0.045436         1.2364 
  54   0.0000       0.049447         1.3455 
  55   0.0000       0.052252         1.4219 
  56   0.0000       0.064387         1.7521 
  57   0.0000       0.067078         1.8253 
  58   0.0000       0.077378         2.1056 
  59   0.0000       0.078273         2.1299 
  60   0.0000       0.083202         2.2640 
  61   0.0000       0.086845         2.3632 
  62   0.0000       0.119192         3.2434 
  63   0.0000       0.125677         3.4198 
  64   0.0000       0.139389         3.7930 
  65   0.0000       0.145485         3.9588 
  66   0.0000       0.162358         4.4180 
  67   0.0000       0.172956         4.7064 
  68   0.0000       0.217999         5.9321 
  69   0.0000       0.228231         6.2105 
  70   0.0000       0.307469         8.3667 
  71   0.0000       0.327372         8.9083 
  72   0.0000       0.332915         9.0591 
  73   0.0000       0.347133         9.4460 
  74   0.0000       0.362249         9.8573 
  75   0.0000       0.376949        10.2573 
  76   0.0000       0.391250        10.6465 
  77   0.0000       0.396328        10.7846 
  78   0.0000       0.413056        11.2398 
  79   0.0000       0.425818        11.5871 
  80   0.0000       0.438596        11.9348 
  81   0.0000       0.445124        12.1125 
  82   0.0000       0.493034        13.4161 
  83   0.0000       0.496148        13.5009 
  84   0.0000       0.512118        13.9354 
  85   0.0000       0.522357        14.2141 
  86   0.0000       0.524551        14.2738 
  87   0.0000       0.534414        14.5421 
  88   0.0000       0.560528        15.2527 
  89   0.0000       0.562089        15.2952 
  90   0.0000       0.577171        15.7056 
  91   0.0000       0.594482        16.1767 
  92   0.0000       0.657640        17.8953 
  93   0.0000       0.670522        18.2458 
  94   0.0000       0.692365        18.8402 
  95   0.0000       0.767546        20.8860 
  96   0.0000       0.770855        20.9760 
  97   0.0000       0.779470        21.2105 
  98   0.0000       0.795126        21.6365 
  99   0.0000       0.799636        21.7592 
 100   0.0000       0.826109        22.4796 
 101   0.0000       0.835686        22.7402 
 102   0.0000       0.851395        23.1676 
 103   0.0000       0.865940        23.5634 
 104   0.0000       0.870798        23.6956 
 105   0.0000       0.880449        23.9582 
 106   0.0000       0.891302        24.2536 
 107   0.0000       0.907347        24.6902 
 108   0.0000       0.918343        24.9894 
 109   0.0000       0.929640        25.2968 
 110   0.0000       0.939892        25.5758 
 111   0.0000       0.961280        26.1578 
 112   0.0000       0.964163        26.2362 
 113   0.0000       0.972119        26.4527 
 114   0.0000       0.976073        26.5603 
 115   0.0000       0.989111        26.9151 
 116   0.0000       1.027877        27.9700 
 117   0.0000       1.074719        29.2446 
 118   0.0000       1.106202        30.1013 
 119   0.0000       1.108743        30.1704 
 120   0.0000       1.156687        31.4751 
 121   0.0000       1.176363        32.0105 
 122   0.0000       1.221524        33.2394 
 123   0.0000       1.234900        33.6033 
 124   0.0000       1.275715        34.7140 
 125   0.0000       1.304593        35.4998 
 126   0.0000       1.334453        36.3123 
 127   0.0000       1.406068        38.2611 
 128   0.0000       1.463929        39.8355 
 129   0.0000       1.495317        40.6896 
 130   0.0000       1.515964        41.2515 
 131   0.0000       1.570393        42.7326 
 132   0.0000       1.684902        45.8485 
 133   0.0000       1.725656        46.9575 
 134   0.0000       1.734477        47.1975 
 135   0.0000       1.762079        47.9486 
 136   0.0000       1.821132        49.5555 
 137   0.0000       1.848342        50.2959 
 138   0.0000       1.857394        50.5422 
 139   0.0000       1.872808        50.9617 
 140   0.0000       1.906252        51.8718 
 141   0.0000       1.934076        52.6289 
 142   0.0000       1.961253        53.3684 
 143   0.0000       2.002990        54.5041 
 144   0.0000       2.047827        55.7242 
 145   0.0000       2.054969        55.9185 
 146   0.0000       2.076886        56.5149 
 147   0.0000       2.123687        57.7885 
 148   0.0000       2.154555        58.6284 
 149   0.0000       2.166451        58.9521 
 150   0.0000       2.175941        59.2104 
 151   0.0000       2.198985        59.8374 
 152   0.0000       2.220982        60.4360 
 153   0.0000       2.248822        61.1936 
 154   0.0000       2.254869        61.3581 
 155   0.0000       2.263405        61.5904 
 156   0.0000       2.361359        64.2558 
 157   0.0000       2.371285        64.5259 
 158   0.0000       2.432201        66.1835 
 159   0.0000       2.522515        68.6411 
 160   0.0000       2.535288        68.9887 
 161   0.0000       2.665439        72.5303 
 162   0.0000       2.707278        73.6688 
 163   0.0000       2.744612        74.6847 
 164   0.0000       2.959952        80.5444 
 165   0.0000       3.021849        82.2287 
 166   0.0000       3.064288        83.3835 
 167   0.0000      13.359123       363.5202 
 168   0.0000      13.558039       368.9330 
 169   0.0000      13.600189       370.0800 
 170   0.0000      13.640788       371.1847 
 171   0.0000      13.776841       374.8869 
 172   0.0000      13.983098       380.4994 
 173   0.0000      19.111266       520.0440 
 174   0.0000      19.317201       525.6478 

                    ********************************
                    * MULLIKEN POPULATION ANALYSIS *
                    ********************************

-----------------------
MULLIKEN ATOMIC CHARGES
-----------------------
   0 Sc:    0.706326
   1 C :    0.203391
   2 N :   -0.423090
   3 C :   -0.065811
   4 C :   -0.072162
   5 N :   -0.407426
   6 C :   -0.532207
   7 H :    0.280657
   8 H :    0.290758
   9 H :    0.239816
  10 C :   -0.509370
  11 H :    0.219989
  12 H :    0.284561
  13 H :    0.278305
  14 H :    0.299855
  15 H :    0.297879
  16 C :   -0.847488
  17 H :    0.247515
  18 H :    0.215989
  19 H :    0.202978
  20 H :    0.089534
Sum of atomic charges:    1.0000000

--------------------------------
MULLIKEN REDUCED ORBITAL CHARGES
--------------------------------
  0 Scs       :     6.384776  s :     6.384776
      pz      :     4.182327  p :    12.302405
      px      :     4.047419
      py      :     4.072658
      dz2     :     0.472918  d :     1.586384
      dxz     :     0.709494
      dyz     :     0.060135
      dx2y2   :     0.284283
      dxy     :     0.059554
      f0      :     0.004650  f :     0.020109
      f+1     :     0.008495
      f-1     :     0.001217
      f+2     :     0.002545
      f-2     :     0.002348
      f+3     :     0.000552
      f-3     :     0.000302
  1 C s       :     3.211760  s :     3.211760
      pz      :     1.004120  p :     2.517454
      px      :     0.812364
      py      :     0.700969
      dz2     :     0.008196  d :     0.067395
      dxz     :     0.010970
      dyz     :     0.021412
      dx2y2   :     0.015018
      dxy     :     0.011799
  2 N s       :     3.531959  s :     3.531959
      pz      :     1.233458  p :     3.838930
      px      :     1.357905
      py      :     1.247568
      dz2     :     0.012651  d :     0.052201
      dxz     :     0.008022
      dyz     :     0.012463
      dx2y2   :     0.009993
      dxy     :     0.009071
  3 C s       :     3.157712  s :     3.157712
      pz      :     0.858596  p :     2.853551
      px      :     1.054137
      py      :     0.940818
      dz2     :     0.013806  d :     0.054548
      dxz     :     0.010476
      dyz     :     0.013380
      dx2y2   :     0.006875
      dxy     :     0.010011
  4 C s       :     3.162362  s :     3.162362
      pz      :     0.873444  p :     2.854853
      px      :     0.938839
      py      :     1.042570
      dz2     :     0.012925  d :     0.054946
      dxz     :     0.011054
      dyz     :     0.013349
      dx2y2   :     0.011264
      dxy     :     0.006355
  5 N s       :     3.527443  s :     3.527443
      pz      :     1.225079  p :     3.827704
      px      :     1.370441
      py      :     1.232183
      dz2     :     0.012242  d :     0.052278
      dxz     :     0.009114
      dyz     :     0.011732
      dx2y2   :     0.009238
      dxy     :     0.009952
  6 C s       :     3.379178  s :     3.379178
      pz      :     1.182108  p :     3.103974
      px      :     1.000851
      py      :     0.921015
      dz2     :     0.008181  d :     0.049055
      dxz     :     0.004548
      dyz     :     0.013600
      dx2y2   :     0.010328
      dxy     :     0.012398
  7 H s       :     0.719343  s :     0.719343
  8 H s       :     0.709242  s :     0.709242
  9 H s       :     0.760184  s :     0.760184
 10 C s       :     3.367484  s :     3.367484
      pz      :     1.119885  p :     3.092879
      px      :     1.139710
      py      :     0.833284
      dz2     :     0.009520  d :     0.049006
      dxz     :     0.004432
      dyz     :     0.011134
      dx2y2   :     0.015650
      dxy     :     0.008270
 11 H s       :     0.780011  s :     0.780011
 12 H s       :     0.715439  s :     0.715439
 13 H s       :     0.721695  s :     0.721695
 14 H s       :     0.700145  s :     0.700145
 15 H s       :     0.702121  s :     0.702121
 16 C s       :     3.461611  s :     3.461611
      pz      :     1.108091  p :     3.360794
      px      :     1.137268
      py      :     1.115435
      dz2     :     0.005332  d :     0.025084
      dxz     :     0.011208
      dyz     :     0.000503
      dx2y2   :     0.002918
      dxy     :     0.005123
 17 H s       :     0.752485  s :     0.752485
 18 H s       :     0.784011  s :     0.784011
 19 H s       :     0.797022  s :     0.797022
 20 H s       :     0.910466  s :     0.910466


                     *******************************
                     * LOEWDIN POPULATION ANALYSIS *
                     *******************************

----------------------
LOEWDIN ATOMIC CHARGES
----------------------
   0 Sc:    0.522659
   1 C :   -0.034669
   2 N :   -0.008122
   3 C :   -0.090293
   4 C :   -0.080656
   5 N :   -0.002803
   6 C :   -0.239840
   7 H :    0.157220
   8 H :    0.163197
   9 H :    0.140433
  10 C :   -0.231641
  11 H :    0.134329
  12 H :    0.156701
  13 H :    0.154027
  14 H :    0.169384
  15 H :    0.168874
  16 C :   -0.540202
  17 H :    0.140979
  18 H :    0.128470
  19 H :    0.121723
  20 H :    0.070229

-------------------------------
LOEWDIN REDUCED ORBITAL CHARGES
-------------------------------
  0 Scs       :     6.359100  s :     6.359100
      pz      :     4.227349  p :    12.358834
      px      :     4.048813
      py      :     4.082672
      dz2     :     0.535186  d :     1.714217
      dxz     :     0.742908
      dyz     :     0.070558
      dx2y2   :     0.296202
      dxy     :     0.069363
      f0      :     0.012227  f :     0.045190
      f+1     :     0.016925
      f-1     :     0.003113
      f+2     :     0.004811
      f-2     :     0.005267
      f+3     :     0.001981
      f-3     :     0.000864
  1 C s       :     2.950967  s :     2.950967
      pz      :     1.138495  p :     2.936433
      px      :     0.916229
      py      :     0.881708
      dz2     :     0.016641  d :     0.147269
      dxz     :     0.021862
      dyz     :     0.046130
      dx2y2   :     0.033803
      dxy     :     0.028833
  2 N s       :     3.046334  s :     3.046334
      pz      :     1.254840  p :     3.836238
      px      :     1.338099
      py      :     1.243298
      dz2     :     0.031393  d :     0.125550
      dxz     :     0.020428
      dyz     :     0.031243
      dx2y2   :     0.021623
      dxy     :     0.020864
  3 C s       :     2.884267  s :     2.884267
      pz      :     0.969191  p :     3.084221
      px      :     1.066080
      py      :     1.048950
      dz2     :     0.032091  d :     0.121805
      dxz     :     0.020999
      dyz     :     0.031484
      dx2y2   :     0.014954
      dxy     :     0.022277
  4 C s       :     2.888577  s :     2.888577
      pz      :     0.971101  p :     3.070176
      px      :     1.009001
      py      :     1.090075
      dz2     :     0.029468  d :     0.121903
      dxz     :     0.025121
      dyz     :     0.028233
      dx2y2   :     0.023918
      dxy     :     0.015164
  5 N s       :     3.041475  s :     3.041475
      pz      :     1.252337  p :     3.834958
      px      :     1.334404
      py      :     1.248218
      dz2     :     0.030670  d :     0.126370
      dxz     :     0.021809
      dyz     :     0.031126
      dx2y2   :     0.020526
      dxy     :     0.022239
  6 C s       :     2.944705  s :     2.944705
      pz      :     1.153987  p :     3.201177
      px      :     1.051321
      py      :     0.995869
      dz2     :     0.014472  d :     0.093958
      dxz     :     0.008187
      dyz     :     0.025340
      dx2y2   :     0.020942
      dxy     :     0.025017
  7 H s       :     0.842780  s :     0.842780
  8 H s       :     0.836803  s :     0.836803
  9 H s       :     0.859567  s :     0.859567
 10 C s       :     2.940013  s :     2.940013
      pz      :     1.122810  p :     3.197678
      px      :     1.135499
      py      :     0.939369
      dz2     :     0.017239  d :     0.093951
      dxz     :     0.007087
      dyz     :     0.022046
      dx2y2   :     0.030613
      dxy     :     0.016965
 11 H s       :     0.865671  s :     0.865671
 12 H s       :     0.843299  s :     0.843299
 13 H s       :     0.845973  s :     0.845973
 14 H s       :     0.830616  s :     0.830616
 15 H s       :     0.831126  s :     0.831126
 16 C s       :     3.077482  s :     3.077482
      pz      :     1.135229  p :     3.423783
      px      :     1.156793
      py      :     1.131761
      dz2     :     0.008749  d :     0.038938
      dxz     :     0.017409
      dyz     :     0.000706
      dx2y2   :     0.004253
      dxy     :     0.007821
 17 H s       :     0.859021  s :     0.859021
 18 H s       :     0.871530  s :     0.871530
 19 H s       :     0.878277  s :     0.878277
 20 H s       :     0.929771  s :     0.929771


                      *****************************
                      * MAYER POPULATION ANALYSIS *
                      *****************************

  NA   - Mulliken gross atomic population
  ZA   - Total nuclear charge
  QA   - Mulliken gross atomic charge
  VA   - Mayer's total valence
  BVA  - Mayer's bonded valence
  FA   - Mayer's free valence

  ATOM       NA         ZA         QA         VA         BVA        FA
  0 Sc    20.2937    21.0000     0.7063     2.4123     2.4123    -0.0000
  1 C      5.7966     6.0000     0.2034     3.1867     3.1867     0.0000
  2 N      7.4231     7.0000    -0.4231     3.3894     3.3894     0.0000
  3 C      6.0658     6.0000    -0.0658     3.7446     3.7446     0.0000
  4 C      6.0722     6.0000    -0.0722     3.7532     3.7532    -0.0000
  5 N      7.4074     7.0000    -0.4074     3.3912     3.3912    -0.0000
  6 C      6.5322     6.0000    -0.5322     3.6008     3.6008     0.0000
  7 H      0.7193     1.0000     0.2807     0.8945     0.8945     0.0000
  8 H      0.7092     1.0000     0.2908     0.8832     0.8832     0.0000
  9 H      0.7602     1.0000     0.2398     0.9021     0.9021    -0.0000
 10 C      6.5094     6.0000    -0.5094     3.6326     3.6326    -0.0000
 11 H      0.7800     1.0000     0.2200     0.9161     0.9161    -0.0000
 12 H      0.7154     1.0000     0.2846     0.8818     0.8818     0.0000
 13 H      0.7217     1.0000     0.2783     0.8845     0.8845    -0.0000
 14 H      0.7001     1.0000     0.2999     0.8808     0.8808     0.0000
 15 H      0.7021     1.0000     0.2979     0.8829     0.8829    -0.0000
 16 C      6.8475     6.0000    -0.8475     3.7085     3.7085     0.0000
 17 H      0.7525     1.0000     0.2475     0.9092     0.9092    -0.0000
 18 H      0.7840     1.0000     0.2160     0.9203     0.9203     0.0000
 19 H      0.7970     1.0000     0.2030     0.9161     0.9161     0.0000
 20 H      0.9105     1.0000     0.0895     0.9704     0.9704     0.0000

  Mayer bond orders larger than 0.100000
B(  0-Sc,  1-C ) :   0.6411 B(  0-Sc, 16-C ) :   0.8071 B(  0-Sc, 20-H ) :   0.8455 
B(  1-C ,  2-N ) :   1.2217 B(  1-C ,  5-N ) :   1.2401 B(  2-N ,  3-C ) :   1.1318 
B(  2-N , 10-C ) :   0.9214 B(  3-C ,  4-C ) :   1.6592 B(  3-C , 14-H ) :   0.8793 
B(  4-C ,  5-N ) :   1.1300 B(  4-C , 15-H ) :   0.8801 B(  5-N ,  6-C ) :   0.9096 
B(  6-C ,  7-H ) :   0.9026 B(  6-C ,  8-H ) :   0.8770 B(  6-C ,  9-H ) :   0.9072 
B( 10-C , 11-H ) :   0.9197 B( 10-C , 12-H ) :   0.8917 B( 10-C , 13-H ) :   0.8946 
B( 16-C , 17-H ) :   0.9155 B( 16-C , 18-H ) :   0.9192 B( 16-C , 19-H ) :   0.9151 
B( 16-C , 20-H ) :   0.1206 


------------------
HIRSHFELD ANALYSIS
------------------

Total integrated alpha density =     41.000119100
Total integrated beta density  =     41.000119100

  ATOM     CHARGE      SPIN    
   0 Sc   0.774846    0.000000
   1 C   -0.072473    0.000000
   2 N   -0.019485    0.000000
   3 C    0.009652    0.000000
   4 C    0.015199    0.000000
   5 N   -0.016070    0.000000
   6 C    0.016974    0.000000
   7 H    0.066676    0.000000
   8 H    0.064145    0.000000
   9 H    0.058483    0.000000
  10 C    0.017383    0.000000
  11 H    0.058526    0.000000
  12 H    0.066076    0.000000
  13 H    0.063071    0.000000
  14 H    0.087168    0.000000
  15 H    0.087618    0.000000
  16 C   -0.169515    0.000000
  17 H    0.036146    0.000000
  18 H    0.019602    0.000000
  19 H    0.010316    0.000000
  20 H   -0.174575    0.000000

  TOTAL   0.999762    0.000000

-------
TIMINGS
-------

Total SCF time: 0 days 0 hours 2 min 28 sec 

Total time                  ....     148.613 sec
Sum of individual times     ....     148.251 sec  ( 99.8%)

Fock matrix formation       ....     145.793 sec  ( 98.1%)
  Split-RI-J                ....      13.321 sec  (  9.1% of F)
  Chain of spheres X        ....     114.673 sec  ( 78.7% of F)
  XC integration            ....      17.515 sec  ( 12.0% of F)
    Basis function eval.    ....       7.679 sec  ( 43.8% of XC)
    Density eval.           ....       3.530 sec  ( 20.2% of XC)
    XC-Functional eval.     ....       1.877 sec  ( 10.7% of XC)
    XC-Potential eval.      ....       3.648 sec  ( 20.8% of XC)
Diagonalization             ....       0.157 sec  (  0.1%)
Density matrix formation    ....       0.015 sec  (  0.0%)
Population analysis         ....       0.439 sec  (  0.3%)
Initial guess               ....       0.019 sec  (  0.0%)
Orbital Transformation      ....       0.000 sec  (  0.0%)
Orbital Orthonormalization  ....       0.000 sec  (  0.0%)
DIIS solution               ....       0.056 sec  (  0.0%)
Grid generation             ....       1.773 sec  (  1.2%)

Maximum memory used throughout the entire SCF-calculation: 97.0 MB


-------------------------------------------------------------------------------
                          DFT DISPERSION CORRECTION                            
                                                                               
                              DFTD3 V3.1  Rev 1                                
                          USING Becke-Johnson damping                          
-------------------------------------------------------------------------------
The PBEh-3c composite method is recognized
Using three-body term ABC
Active option DFTDOPT                   ...         4   

molecular C6(AA) [au] = 5484.189086 


            DFT-D V3
 parameters
 s6 scaling factor         :     1.0000 
 a1 scaling factor         :     0.4860 
 s8 scaling factor         :     0.0000 
 a2 scaling factor         :     4.5000 
 Damping factor alpha9(ATM):    16.0000 
 ad hoc parameters k1-k3   :    16.0000     1.3333    -4.0000 

 Edisp/kcal,au: -6.992831001990  -0.011143784349 
 E6   /kcal   :  -7.039706088 
 E8   /kcal   :  -0.000000000 
 E6(ABC)      :   0.046875086 
 % E8         :   0.000000000 
 % E6(ABC)    :  -0.670330598 

-------------------------   ----------------
Dispersion correction           -0.011143784
-------------------------   ----------------

------------------   -----------------
gCP correction             0.033171070
------------------   -----------------

-------------------------   --------------------
FINAL SINGLE POINT ENERGY     -1104.374168561376
-------------------------   --------------------

------------------------------------------------------------------------------
                         ORCA SCF GRADIENT CALCULATION
------------------------------------------------------------------------------

 ... reading COSX grid (gridx3)
Gradient of the Kohn-Sham DFT energy:
Kohn-Sham wavefunction type      ... RKS
Hartree-Fock exchange scaling    ...    0.420
Number of operators              ...    1
Number of atoms                  ...   21
Basis set dimensions             ...  175
Integral neglect threshold       ... 2.5e-11
Integral primitive cutoff        ... 2.5e-12
SHARK Integral package           ... ON

Nuc. rep. gradient       (SHARK) ... done (  0.0 sec)
HCore & Overlap gradient (SHARK) ... done (  0.3 sec)
RI-J gradient            (SHARK) ... done (  1.8 sec)
COSX-gradient                    ... done ( 14.1 sec)
Exchange-correlation gradient    ... done
Dispersion correction            ... done
gCP correction                   ... done

------------------
CARTESIAN GRADIENT
------------------

   1   Sc  :   -0.011412678   -0.028926772   -0.019694664
   2   C   :    0.009943197    0.006159235    0.013035818
   3   N   :   -0.004407534    0.002329176   -0.002296992
   4   C   :    0.010524125    0.010060206   -0.006126262
   5   C   :   -0.006940617   -0.025860008   -0.012929466
   6   N   :    0.001864681    0.006872034   -0.006070742
   7   C   :   -0.008848682   -0.000074310    0.018215534
   8   H   :   -0.000001359   -0.006299039   -0.003021755
   9   H   :   -0.005120166    0.008180323   -0.014314432
  10   H   :    0.013270995   -0.003838065   -0.002407713
  11   C   :   -0.003059350   -0.001078648    0.001249144
  12   H   :   -0.001495185   -0.001055923   -0.002800495
  13   H   :    0.000795606   -0.002251647   -0.001114590
  14   H   :   -0.000409899    0.000801847    0.001981681
  15   H   :   -0.004916407   -0.005601864    0.006916822
  16   H   :    0.001082000    0.013650156    0.011961036
  17   C   :   -0.008343159    0.003517126   -0.016637706
  18   H   :   -0.014483516    0.009864782   -0.010068279
  19   H   :    0.006619445    0.013756243   -0.004402100
  20   H   :   -0.006262663   -0.003077690    0.009800159
  21   H   :    0.031315514    0.002265299    0.038489122

Difference to translation invariance:
           :   -0.0002856515   -0.0006075396   -0.0002358822

Difference to rotation invariance:
           :   -0.0012850047    0.0008164106   -0.0028845030

Norm of the cartesian gradient     ...    0.0892582027
RMS gradient                       ...    0.0112454765
MAX gradient                       ...    0.0384891222

-------
TIMINGS
-------

Total SCF gradient time            ...       20.410 sec

One electron gradient       ....       0.343 sec  (  1.7%)
RI-J Coulomb gradient       ....       1.790 sec  (  8.8%)
COSX gradient               ....      14.123 sec  ( 69.2%)
XC gradient                 ....       3.493 sec  ( 17.1%)

Maximum memory used throughout the entire SCFGRAD-calculation: 68.8 MB

                            ***************************************
                            *     ORCA property calculations      *
                            ***************************************

                                    ---------------------
                                    Active property flags
                                    ---------------------
   (+) Dipole Moment


------------------------------------------------------------------------------
                       ORCA ELECTRIC PROPERTIES CALCULATION
------------------------------------------------------------------------------

Dipole Moment Calculation                       ... on
Quadrupole Moment Calculation                   ... off
Polarizability Calculation                      ... off
GBWName                                         ... 4_4_orca.gbw
Electron density                                ... 4_4_orca.scfp
The origin for moment calculation is the CENTER OF MASS  = ( 0.587315, -0.589107 -0.346105)

-------------
DIPOLE MOMENT
-------------
                                X             Y             Z
Electronic contribution:      8.09400      -8.18628      -4.01455
Nuclear contribution   :     -6.72718       6.64874       4.25203
                        -----------------------------------------
Total Dipole Moment    :      1.36681      -1.53754       0.23748
                        -----------------------------------------
Magnitude (a.u.)       :      2.07090
Magnitude (Debye)      :      5.26380



--------------------
Rotational spectrum 
--------------------
 
Rotational constants in cm-1:     0.051102     0.029098     0.022040 
Rotational constants in MHz :  1532.000478   872.347029   660.743364 

 Dipole components along the rotational axes: 
x,y,z [a.u.] :     0.163733    -1.050812    -1.776962 
x,y,z [Debye]:     0.416176    -2.670952    -4.516678 

 

Timings for individual modules:

Sum of individual times         ...      169.399 sec (=   2.823 min)
GTO integral calculation        ...        0.313 sec (=   0.005 min)   0.2 %
SCF iterations                  ...      148.640 sec (=   2.477 min)  87.7 %
SCF Gradient evaluation         ...       20.445 sec (=   0.341 min)  12.1 %
                             ****ORCA TERMINATED NORMALLY****
TOTAL RUN TIME: 0 days 0 hours 2 minutes 49 seconds 874 msec
