
                                 *****************
                                 * O   R   C   A *
                                 *****************

                                            #,                                       
                                            ###                                      
                                            ####                                     
                                            #####                                    
                                            ######                                   
                                           ########,                                 
                                     ,,################,,,,,                         
                               ,,#################################,,                 
                          ,,##########################################,,             
                       ,#########################################, ''#####,          
                    ,#############################################,,   '####,        
                  ,##################################################,,,,####,       
                ,###########''''           ''''###############################       
              ,#####''   ,,,,##########,,,,          '''####'''          '####       
            ,##' ,,,,###########################,,,                        '##       
           ' ,,###''''                  '''############,,,                           
         ,,##''                                '''############,,,,        ,,,,,,###''
      ,#''                                            '''#######################'''  
     '                                                          ''''####''''         
             ,#######,   #######,   ,#######,      ##                                
            ,#'     '#,  ##    ##  ,#'     '#,    #''#        ######   ,####,        
            ##       ##  ##   ,#'  ##            #'  '#       #        #'  '#        
            ##       ##  #######   ##           ,######,      #####,   #    #        
            '#,     ,#'  ##    ##  '#,     ,#' ,#      #,         ##   #,  ,#        
             '#######'   ##     ##  '#######'  #'      '#     #####' # '####'        



                  #######################################################
                  #                        -***-                        #
                  #          Department of theory and spectroscopy      #
                  #    Directorship and core code : Frank Neese         #
                  #        Max Planck Institute fuer Kohlenforschung    #
                  #                Kaiser Wilhelm Platz 1               #
                  #                 D-45470 Muelheim/Ruhr               #
                  #                      Germany                        #
                  #                                                     #
                  #                  All rights reserved                #
                  #                        -***-                        #
                  #######################################################


                         Program Version 5.0.4 -  RELEASE  -


 With contributions from (in alphabetic order):
   Daniel Aravena         : Magnetic Suceptibility
   Michael Atanasov       : Ab Initio Ligand Field Theory (pilot matlab implementation)
   Alexander A. Auer      : GIAO ZORA, VPT2 properties, NMR spectrum
   Ute Becker             : Parallelization
   Giovanni Bistoni       : ED, misc. LED, open-shell LED, HFLD
   Martin Brehm           : Molecular dynamics
   Dmytro Bykov           : SCF Hessian
   Vijay G. Chilkuri      : MRCI spin determinant printing, contributions to CSF-ICE
   Dipayan Datta          : RHF DLPNO-CCSD density
   Achintya Kumar Dutta   : EOM-CC, STEOM-CC
   Dmitry Ganyushin       : Spin-Orbit,Spin-Spin,Magnetic field MRCI
   Miquel Garcia          : C-PCM and meta-GGA Hessian, CC/C-PCM, Gaussian charge scheme
   Yang Guo               : DLPNO-NEVPT2, F12-NEVPT2, CIM, IAO-localization
   Andreas Hansen         : Spin unrestricted coupled pair/coupled cluster methods
   Benjamin Helmich-Paris : MC-RPA, TRAH-SCF, COSX integrals
   Lee Huntington         : MR-EOM, pCC
   Robert Izsak           : Overlap fitted RIJCOSX, COSX-SCS-MP3, EOM
   Marcus Kettner         : VPT2
   Christian Kollmar      : KDIIS, OOCD, Brueckner-CCSD(T), CCSD density, CASPT2, CASPT2-K
   Simone Kossmann        : Meta GGA functionals, TD-DFT gradient, OOMP2, MP2 Hessian
   Martin Krupicka        : Initial AUTO-CI
   Lucas Lang             : DCDCAS
   Marvin Lechner         : AUTO-CI (C++ implementation), FIC-MRCC
   Dagmar Lenk            : GEPOL surface, SMD
   Dimitrios Liakos       : Extrapolation schemes; Compound Job, initial MDCI parallelization
   Dimitrios Manganas     : Further ROCIS development; embedding schemes
   Dimitrios Pantazis     : SARC Basis sets
   Anastasios Papadopoulos: AUTO-CI, single reference methods and gradients
   Taras Petrenko         : DFT Hessian,TD-DFT gradient, ASA, ECA, R-Raman, ABS, FL, XAS/XES, NRVS
   Peter Pinski           : DLPNO-MP2, DLPNO-MP2 Gradient
   Christoph Reimann      : Effective Core Potentials
   Marius Retegan         : Local ZFS, SOC
   Christoph Riplinger    : Optimizer, TS searches, QM/MM, DLPNO-CCSD(T), (RO)-DLPNO pert. Triples
   Tobias Risthaus        : Range-separated hybrids, TD-DFT gradient, RPA, STAB
   Michael Roemelt        : Original ROCIS implementation
   Masaaki Saitow         : Open-shell DLPNO-CCSD energy and density
   Barbara Sandhoefer     : DKH picture change effects
   Avijit Sen             : IP-ROCIS
   Kantharuban Sivalingam : CASSCF convergence, NEVPT2, FIC-MRCI
   Bernardo de Souza      : ESD, SOC TD-DFT
   Georgi Stoychev        : AutoAux, RI-MP2 NMR, DLPNO-MP2 response
   Willem Van den Heuvel  : Paramagnetic NMR
   Boris Wezisla          : Elementary symmetry handling
   Frank Wennmohs         : Technical directorship


 We gratefully acknowledge several colleagues who have allowed us to
 interface, adapt or use parts of their codes:
   Stefan Grimme, W. Hujo, H. Kruse, P. Pracht,  : VdW corrections, initial TS optimization,
                  C. Bannwarth, S. Ehlert          DFT functionals, gCP, sTDA/sTD-DF
   Ed Valeev, F. Pavosevic, A. Kumar             : LibInt (2-el integral package), F12 methods
   Garnet Chan, S. Sharma, J. Yang, R. Olivares  : DMRG
   Ulf Ekstrom                                   : XCFun DFT Library
   Mihaly Kallay                                 : mrcc  (arbitrary order and MRCC methods)
   Jiri Pittner, Ondrej Demel                    : Mk-CCSD
   Frank Weinhold                                : gennbo (NPA and NBO analysis)
   Christopher J. Cramer and Donald G. Truhlar   : smd solvation model
   Lars Goerigk                                  : TD-DFT with DH, B97 family of functionals
   V. Asgeirsson, H. Jonsson                     : NEB implementation
   FAccTs GmbH                                   : IRC, NEB, NEB-TS, DLPNO-Multilevel, CI-OPT
                                                   MM, QMMM, 2- and 3-layer-ONIOM, Crystal-QMMM,
                                                   LR-CPCM, SF, NACMEs, symmetry and pop. for TD-DFT,
                                                   nearIR, NL-DFT gradient (VV10), updates on ESD,
                                                   ML-optimized integration grids
   S Lehtola, MJT Oliveira, MAL Marques          : LibXC Library
   Liviu Ungur et al                             : ANISO software


 Your calculation uses the libint2 library for the computation of 2-el integrals
 For citations please refer to: http://libint.valeyev.net

 Your ORCA version has been built with support for libXC version: 5.1.0
 For citations please refer to: https://tddft.org/programs/libxc/

 This ORCA versions uses:
   CBLAS   interface :  Fast vector & matrix operations
   LAPACKE interface :  Fast linear algebra routines
   SCALAPACK package :  Parallel linear algebra routines
   Shared memory     :  Shared parallel matrices
   BLAS/LAPACK       :  OpenBLAS 0.3.15  USE64BITINT DYNAMIC_ARCH NO_AFFINITY SkylakeX SINGLE_THREADED
        Core in use  :  SkylakeX
   Copyright (c) 2011-2014, The OpenBLAS Project




***************************************
The coordinates will be read from file: reaction-5-prod-xtb.xyz
***************************************


Your calculation utilizes the geometrical counterpoise correction gCP
Please cite in your paper:
H.Kruse, S. Grimme J.Chem.Phys., 136, (2012), 154101 
   

Your calculation utilizes the atom-pairwise dispersion correction
with the Becke-Johnson damping scheme (D3BJ)
Cite in your paper:
S.Grimme, S.Ehrlich, L.Goerigk, J Comput Chem, (2011), 32, 1456–1465 
S.Grimme, J.Antony, S.Ehrlich and H.Krieg, J.Chem.Phys., 132, (2010), 154104 
   

Your calculation employs the composite approach PBEh-3c.
Please cite in your paper:
S. Grimme, J. G. Brandenburg, C. Bannwarth, A. Hansen J.Chem.Phys., 143, (2015), 054107 
   

================================================================================

----- Orbital basis set information -----
Your calculation utilizes the basis: def2-mSVP

----- AuxJ basis set information -----
Your calculation utilizes the auxiliary basis: def2/J
   F. Weigend, Phys. Chem. Chem. Phys. 8, 1057 (2006).

================================================================================
                                        WARNINGS
                       Please study these warnings very carefully!
================================================================================


WARNING: Geometry Optimization
  ===> : Switching off AutoStart
         For restart on a previous wavefunction, please use MOREAD

INFO   : the flag for use of the SHARK integral package has been found!

================================================================================
                                       INPUT FILE
================================================================================
NAME = reaction-5-prod-pbeh3c-orca_opt.inp
|  1> ! PBEh-3c OPT pal4
|  2> 
|  3> %geom
|  4>  maxiter 600
|  5> end 
|  6> 
|  7> *xyzfile 1 1 reaction-5-prod-xtb.xyz
|  8> 
|  9>                          ****END OF INPUT****
================================================================================

                       *****************************
                       * Geometry Optimization Run *
                       *****************************

Geometry optimization settings:
Update method            Update   .... BFGS
Choice of coordinates    CoordSys .... Z-matrix Internals
Initial Hessian          InHess   .... Almoef's Model

Convergence Tolerances:
Energy Change            TolE     ....  5.0000e-06 Eh
Max. Gradient            TolMAXG  ....  3.0000e-04 Eh/bohr
RMS Gradient             TolRMSG  ....  1.0000e-04 Eh/bohr
Max. Displacement        TolMAXD  ....  4.0000e-03 bohr
RMS Displacement         TolRMSD  ....  2.0000e-03 bohr
Strict Convergence                ....  False
------------------------------------------------------------------------------
                        ORCA OPTIMIZATION COORDINATE SETUP
------------------------------------------------------------------------------

The optimization will be done in new redundant internal coordinates
Making redundant internal coordinates   ...  (new redundants) done
Evaluating the initial hessian          ...  (Almloef) done
Evaluating the coordinates              ...  done
Calculating the B-matrix                .... done
Calculating the G-matrix                .... done
Diagonalizing the G-matrix              .... done
Small eigenvalue found = 9.476e-03
The first mode is                       ....   42
The number of degrees of freedom        ....   57

    -----------------------------------------------------------------
                    Redundant Internal Coordinates


    -----------------------------------------------------------------
         Definition                    Initial Value    Approx d2E/dq
    -----------------------------------------------------------------
      1. B(C   1,Sc  0)                  2.4683         0.120372   
      2. B(N   2,C   1)                  1.3596         0.625681   
      3. B(C   3,N   2)                  1.3631         0.617828   
      4. B(C   4,C   3)                  1.3558         0.708536   
      5. B(N   5,C   1)                  1.3556         0.635037   
      6. B(N   5,C   4)                  1.3638         0.616247   
      7. B(C   6,N   5)                  1.4414         0.463337   
      8. B(H   7,C   6)                  1.0912         0.358575   
      9. B(H   8,C   6)                  1.0967         0.351345   
     10. B(H   9,C   6)                  1.0910         0.358725   
     11. B(C  10,N   2)                  1.4445         0.458016   
     12. B(H  11,C  10)                  1.0967         0.351318   
     13. B(H  12,C  10)                  1.0946         0.354039   
     14. B(H  13,C  10)                  1.0889         0.361524   
     15. B(H  14,C   3)                  1.0704         0.386933   
     16. B(H  15,C   4)                  1.0703         0.387144   
     17. B(C  16,Sc  0)                  2.2911         0.230782   
     18. B(H  17,C  16)                  1.1084         0.336591   
     19. B(H  18,C  16)                  1.1061         0.339400   
     20. B(H  19,C  16)                  1.1062         0.339243   
     21. B(H  20,Sc  0)                  1.8418         0.230162   
     22. A(C   1,Sc  0,C  16)          109.6747         0.342949   
     23. A(C  16,Sc  0,H  20)          140.5508         0.355730   
     24. A(C   1,Sc  0,H  20)          109.7333         0.319193   
     25. A(N   2,C   1,N   5)          104.1933         0.430962   
     26. A(Sc  0,C   1,N   5)          130.7659         0.363222   
     27. A(Sc  0,C   1,N   2)          124.9048         0.362302   
     28. A(C   3,N   2,C  10)          123.1176         0.405676   
     29. A(C   1,N   2,C   3)          111.0680         0.428842   
     30. A(C   1,N   2,C  10)          125.8080         0.406582   
     31. A(C   4,C   3,H  14)          130.3073         0.365465   
     32. A(N   2,C   3,H  14)          122.8954         0.354819   
     33. A(N   2,C   3,C   4)          106.7971         0.441444   
     34. A(C   3,C   4,H  15)          130.5220         0.365499   
     35. A(C   3,C   4,N   5)          106.7378         0.441239   
     36. A(N   5,C   4,H  15)          122.7401         0.354697   
     37. A(C   1,N   5,C   4)          111.2029         0.429788   
     38. A(C   4,N   5,C   6)          122.5526         0.406321   
     39. A(C   1,N   5,C   6)          126.2407         0.408485   
     40. A(H   8,C   6,H   9)          109.2708         0.289544   
     41. A(H   7,C   6,H   9)          108.4528         0.290471   
     42. A(N   5,C   6,H   9)          109.9654         0.333827   
     43. A(H   7,C   6,H   8)          109.3574         0.289525   
     44. A(N   5,C   6,H   8)          109.6510         0.332678   
     45. A(N   5,C   6,H   7)          110.1200         0.333804   
     46. A(H  12,C  10,H  13)          108.4708         0.290245   
     47. A(H  11,C  10,H  13)          108.7205         0.289894   
     48. A(N   2,C  10,H  13)          109.1491         0.333618   
     49. A(H  11,C  10,H  12)          109.1694         0.288945   
     50. A(N   2,C  10,H  12)          110.6978         0.332462   
     51. A(N   2,C  10,H  11)          110.5817         0.332037   
     52. A(H  17,C  16,H  18)          103.1858         0.285133   
     53. A(Sc  0,C  16,H  18)          117.7446         0.329462   
     54. A(Sc  0,C  16,H  17)          109.9968         0.329010   
     55. A(H  18,C  16,H  19)          103.3108         0.285481   
     56. A(H  17,C  16,H  19)          103.2583         0.285112   
     57. A(Sc  0,C  16,H  19)          117.5080         0.329437   
     58. D(N   2,C   1,Sc  0,C  16)    177.5617         0.001558   
     59. D(N   5,C   1,Sc  0,C  16)      2.4949         0.001558   
     60. D(N   5,C   1,Sc  0,H  20)   -175.6672         0.001558   
     61. D(N   2,C   1,Sc  0,H  20)     -0.6004         0.001558   
     62. D(C  10,N   2,C   1,N   5)    179.4013         0.031746   
     63. D(C   3,N   2,C   1,Sc  0)   -175.8463         0.031746   
     64. D(C   3,N   2,C   1,N   5)      0.3016         0.031746   
     65. D(C  10,N   2,C   1,Sc  0)      3.2534         0.031746   
     66. D(H  14,C   3,N   2,C  10)      0.6953         0.030892   
     67. D(C   4,C   3,N   2,C  10)   -179.4070         0.030892   
     68. D(C   4,C   3,N   2,C   1)     -0.2787         0.030892   
     69. D(H  14,C   3,N   2,C   1)    179.8236         0.030892   
     70. D(N   5,C   4,C   3,H  14)   -179.9784         0.035431   
     71. D(H  15,C   4,C   3,N   2)   -179.7816         0.035431   
     72. D(N   5,C   4,C   3,N   2)      0.1342         0.035431   
     73. D(H  15,C   4,C   3,H  14)      0.1058         0.035431   
     74. D(C   6,N   5,C   4,H  15)      0.6551         0.030722   
     75. D(C   1,N   5,C   4,H  15)    179.9765         0.030722   
     76. D(C   6,N   5,C   1,N   2)    179.0762         0.032781   
     77. D(C   6,N   5,C   1,Sc  0)     -5.0954         0.032781   
     78. D(C   4,N   5,C   1,N   2)     -0.2146         0.032781   
     79. D(C   6,N   5,C   4,C   3)   -179.2689         0.030722   
     80. D(C   4,N   5,C   1,Sc  0)    175.6138         0.032781   
     81. D(C   1,N   5,C   4,C   3)      0.0525         0.030722   
     82. D(H   9,C   6,N   5,C   4)     58.1151         0.018331   
     83. D(H   9,C   6,N   5,C   1)   -121.1004         0.018331   
     84. D(H   8,C   6,N   5,C   4)    178.2858         0.018331   
     85. D(H   8,C   6,N   5,C   1)     -0.9298         0.018331   
     86. D(H   7,C   6,N   5,C   4)    -61.3398         0.018331   
     87. D(H   7,C   6,N   5,C   1)    119.4447         0.018331   
     88. D(H  11,C  10,N   2,C   1)     39.3295         0.017905   
     89. D(H  13,C  10,N   2,C   3)    -22.1152         0.017905   
     90. D(H  13,C  10,N   2,C   1)    158.8878         0.017905   
     91. D(H  12,C  10,N   2,C   3)     97.2067         0.017905   
     92. D(H  12,C  10,N   2,C   1)    -81.7903         0.017905   
     93. D(H  11,C  10,N   2,C   3)   -141.6736         0.017905   
     94. D(H  19,C  16,Sc  0,H  20)    117.0808         0.001723   
     95. D(H  19,C  16,Sc  0,C   1)    -60.1959         0.001723   
     96. D(H  18,C  16,Sc  0,H  20)   -118.3629         0.001723   
     97. D(H  18,C  16,Sc  0,C   1)     64.3603         0.001723   
     98. D(H  17,C  16,Sc  0,H  20)     -0.6077         0.001723   
     99. D(H  17,C  16,Sc  0,C   1)   -177.8845         0.001723   
    -----------------------------------------------------------------

Number of atoms                         .... 21
Number of degrees of freedom            .... 99

         *************************************************************
         *                GEOMETRY OPTIMIZATION CYCLE   1            *
         *************************************************************
---------------------------------
CARTESIAN COORDINATES (ANGSTROEM)
---------------------------------
  Sc    -0.395120   -0.256010   -2.236240
  C     -0.070050   -0.348740    0.208790
  N     -0.438970   -1.388160    1.003810
  C     -0.210630   -1.105330    2.317500
  C      0.321970    0.140600    2.363200
  N      0.399790    0.581950    1.075190
  C      0.935780    1.874490    0.729300
  H      0.338230    2.663690    1.188340
  H      0.925950    1.998250   -0.360350
  H      1.960900    1.962000    1.092400
  C     -1.017940   -2.632610    0.553480
  H     -0.540960   -2.965610   -0.376250
  H     -2.093730   -2.520350    0.385350
  H     -0.865660   -3.394260    1.316670
  H     -0.435140   -1.791830    3.107530
  H      0.643890    0.729110    3.197190
  C      0.332200    1.764420   -3.035020
  H      0.153670    1.826720   -4.127150
  H      1.409470    1.997410   -2.941760
  H     -0.160040    2.675160   -2.645120
  H     -1.193610   -1.810900   -2.816850

----------------------------
CARTESIAN COORDINATES (A.U.)
----------------------------
  NO LB      ZA    FRAG     MASS         X           Y           Z
   0 Sc   21.0000    0    44.960   -0.746669   -0.483789   -4.225881
   1 C     6.0000    0    12.011   -0.132375   -0.659023    0.394556
   2 N     7.0000    0    14.007   -0.829533   -2.623242    1.896926
   3 C     6.0000    0    12.011   -0.398033   -2.088771    4.379440
   4 C     6.0000    0    12.011    0.608435    0.265695    4.465801
   5 N     7.0000    0    14.007    0.755494    1.099726    2.031815
   6 C     6.0000    0    12.011    1.768368    3.542273    1.378177
   7 H     1.0000    0     1.008    0.639162    5.033645    2.245637
   8 H     1.0000    0     1.008    1.749792    3.776145   -0.680963
   9 H     1.0000    0     1.008    3.705564    3.707643    2.064337
  10 C     6.0000    0    12.011   -1.923628   -4.974912    1.045926
  11 H     1.0000    0     1.008   -1.022266   -5.604191   -0.711009
  12 H     1.0000    0     1.008   -3.956576   -4.762771    0.728206
  13 H     1.0000    0     1.008   -1.635860   -6.414222    2.488146
  14 H     1.0000    0     1.008   -0.822295   -3.386068    5.872381
  15 H     1.0000    0     1.008    1.216776    1.377818    6.041813
  16 C     6.0000    0    12.011    0.627767    3.334271   -5.735357
  17 H     1.0000    0     1.008    0.290394    3.452001   -7.799183
  18 H     1.0000    0     1.008    2.663512    3.774558   -5.559121
  19 H     1.0000    0     1.008   -0.302432    5.055320   -4.998552
  20 H     1.0000    0     1.008   -2.255596   -3.422105   -5.323075

--------------------------------
INTERNAL COORDINATES (ANGSTROEM)
--------------------------------
 Sc     0   0   0     0.000000000000     0.00000000     0.00000000
 C      1   0   0     2.468287069751     0.00000000     0.00000000
 N      2   1   0     1.359614909892   124.90484256     0.00000000
 C      3   2   1     1.363052963241   111.06804526   184.15365903
 C      4   3   2     1.355762816609   106.79714749   359.72132644
 N      2   1   3     1.355574587288   130.76587695   184.93316724
 C      6   2   1     1.441382955290   126.24066764   354.90455625
 H      7   6   2     1.091155517834   110.12000737   119.44468294
 H      7   6   2     1.096699725996   109.65099294   359.07022169
 H      7   6   2     1.091041073700   109.96541813   238.89960046
 C      3   2   1     1.444527317949   125.80795263     3.25339348
 H     11   3   2     1.096720927720   110.58173617    39.32947536
 H     11   3   2     1.094620540918   110.69784865   278.20969455
 H     11   3   2     1.088925570000   109.14912899   158.88779220
 H      4   3   2     1.070436542257   122.89541973   179.82360424
 H      5   4   3     1.070287730753   130.52204723   180.21838629
 C      1   2   3     2.291109175858   109.67474595   177.56169743
 H     17   1   2     1.108378179053   109.99675203   182.11549500
 H     17   1   2     1.106115916439   117.74464576    64.36028837
 H     17   1   2     1.106241192146   117.50803612   299.80405395
 H      1   2   3     1.841840700034   109.73332839   359.39959535

---------------------------
INTERNAL COORDINATES (A.U.)
---------------------------
 Sc     0   0   0     0.000000000000     0.00000000     0.00000000
 C      1   0   0     4.664386581728     0.00000000     0.00000000
 N      2   1   0     2.569299827291   124.90484256     0.00000000
 C      3   2   1     2.575796806555   111.06804526   184.15365903
 C      4   3   2     2.562020425945   106.79714749   359.72132644
 N      2   1   3     2.561664724077   130.76587695   184.93316724
 C      6   2   1     2.723819039600   126.24066764   354.90455625
 H      7   6   2     2.061985098224   110.12000737   119.44468294
 H      7   6   2     2.072462133279   109.65099294   359.07022169
 H      7   6   2     2.061768830152   109.96541813   238.89960046
 C      3   2   1     2.729761023891   125.80795263     3.25339348
 H     11   3   2     2.072502198732   110.58173617    39.32947536
 H     11   3   2     2.068533042900   110.69784865   278.20969455
 H     11   3   2     2.057771107524   109.14912899   158.88779220
 H      4   3   2     2.022831908608   122.89541973   179.82360424
 H      5   4   3     2.022550695619   130.52204723   180.21838629
 C      1   2   3     4.329568885285   109.67474595   177.56169743
 H     17   1   2     2.094531211224   109.99675203   182.11549500
 H     17   1   2     2.090256154441   117.74464576    64.36028837
 H     17   1   2     2.090492891218   117.50803612   299.80405395
 H      1   2   3     3.480574505373   109.73332839   359.39959535

---------------------
BASIS SET INFORMATION
---------------------
There are 4 groups of distinct atoms

 Group   1 Type Sc  : 14s9p5d1f contracted to 5s3p2d1f pattern {63311/531/41/1}
 Group   2 Type C   : 8s4p1d contracted to 4s2p1d pattern {5111/31/1}
 Group   3 Type N   : 8s4p1d contracted to 4s2p1d pattern {5111/31/1}
 Group   4 Type H   : 4s contracted to 2s pattern {31}

Atom   0Sc   basis set group =>   1
Atom   1C    basis set group =>   2
Atom   2N    basis set group =>   3
Atom   3C    basis set group =>   2
Atom   4C    basis set group =>   2
Atom   5N    basis set group =>   3
Atom   6C    basis set group =>   2
Atom   7H    basis set group =>   4
Atom   8H    basis set group =>   4
Atom   9H    basis set group =>   4
Atom  10C    basis set group =>   2
Atom  11H    basis set group =>   4
Atom  12H    basis set group =>   4
Atom  13H    basis set group =>   4
Atom  14H    basis set group =>   4
Atom  15H    basis set group =>   4
Atom  16C    basis set group =>   2
Atom  17H    basis set group =>   4
Atom  18H    basis set group =>   4
Atom  19H    basis set group =>   4
Atom  20H    basis set group =>   4
---------------------------------
AUXILIARY/J BASIS SET INFORMATION
---------------------------------
There are 4 groups of distinct atoms

 Group   1 Type Sc  : 19s5p5d3f3g contracted to 8s5p5d2f3g pattern {121111111/11111/11111/21/111}
 Group   2 Type C   : 12s5p4d2f1g contracted to 6s4p3d1f1g pattern {711111/2111/211/2/1}
 Group   3 Type N   : 12s5p4d2f1g contracted to 6s4p3d1f1g pattern {711111/2111/211/2/1}
 Group   4 Type H   : 5s2p1d contracted to 3s1p1d pattern {311/2/1}

Atom   0Sc   basis set group =>   1
Atom   1C    basis set group =>   2
Atom   2N    basis set group =>   3
Atom   3C    basis set group =>   2
Atom   4C    basis set group =>   2
Atom   5N    basis set group =>   3
Atom   6C    basis set group =>   2
Atom   7H    basis set group =>   4
Atom   8H    basis set group =>   4
Atom   9H    basis set group =>   4
Atom  10C    basis set group =>   2
Atom  11H    basis set group =>   4
Atom  12H    basis set group =>   4
Atom  13H    basis set group =>   4
Atom  14H    basis set group =>   4
Atom  15H    basis set group =>   4
Atom  16C    basis set group =>   2
Atom  17H    basis set group =>   4
Atom  18H    basis set group =>   4
Atom  19H    basis set group =>   4
Atom  20H    basis set group =>   4


           ************************************************************
           *        Program running with 4 parallel MPI-processes     *
           *              working on a common directory               *
           ************************************************************
------------------------------------------------------------------------------
                           ORCA GTO INTEGRAL CALCULATION
                           -- RI-GTO INTEGRALS CHOSEN --
------------------------------------------------------------------------------
------------------------------------------------------------------------------
                   ___                                                        
                  /   \      - P O W E R E D   B Y -                         
                 /     \                                                     
                 |  |  |   _    _      __       _____    __    __             
                 |  |  |  | |  | |    /  \     |  _  \  |  |  /  |          
                  \  \/   | |  | |   /    \    | | | |  |  | /  /          
                 / \  \   | |__| |  /  /\  \   | |_| |  |  |/  /          
                |  |  |   |  __  | /  /__\  \  |    /   |      \           
                |  |  |   | |  | | |   __   |  |    \   |  |\   \          
                \     /   | |  | | |  |  |  |  | |\  \  |  | \   \       
                 \___/    |_|  |_| |__|  |__|  |_| \__\ |__|  \__/        
                                                                              
                      - O R C A' S   B I G   F R I E N D -                    
                                      &                                       
                       - I N T E G R A L  F E E D E R -                       
                                                                              
 v1 FN, 2020, v2 2021                                                         
------------------------------------------------------------------------------


Reading SHARK input file reaction-5-prod-pbeh3c-orca_opt.SHARKINP.tmp ... ok
----------------------
SHARK INTEGRAL PACKAGE
----------------------

Number of atoms                             ...     21
Number of basis functions                   ...    175
Number of shells                            ...     91
Maximum angular momentum                    ...      3
Integral batch strategy                     ... SHARK/LIBINT Hybrid
RI-J (if used) integral strategy            ... SPLIT-RIJ (Revised 2003 algorithm where possible)
Printlevel                                  ...      1
Contraction scheme used                     ... SEGMENTED contraction
Coulomb Range Separation                    ... NOT USED
Exchange Range Separation                   ... NOT USED
Finite Nucleus Model                        ... NOT USED
Auxiliary Coulomb fitting basis             ... AVAILABLE
   # of basis functions in Aux-J            ...    613
   # of shells in Aux-J                     ...    203
   Maximum angular momentum in Aux-J        ...      4
Auxiliary J/K fitting basis                 ... NOT available
Auxiliary Correlation fitting basis         ... NOT available
Auxiliary 'external' fitting basis          ... NOT available
Integral threshold                          ...     2.500000e-11
Primitive cut-off                           ...     2.500000e-12
Primitive pair pre-selection threshold      ...     2.500000e-12

Calculating pre-screening integrals         ... done (  0.0 sec) Dimension = 91
Organizing shell pair data                  ... done (  0.0 sec)
Shell pair information
Total number of shell pairs                 ...      4186
Shell pairs after pre-screening             ...      3581
Total number of primitive shell pairs       ...     16651
Primitive shell pairs kept                  ...      9567
          la=0 lb=0:   1506 shell pairs
          la=1 lb=0:   1058 shell pairs
          la=1 lb=1:    183 shell pairs
          la=2 lb=0:    514 shell pairs
          la=2 lb=1:    179 shell pairs
          la=2 lb=2:     50 shell pairs
          la=3 lb=0:     61 shell pairs
          la=3 lb=1:     19 shell pairs
          la=3 lb=2:     10 shell pairs
          la=3 lb=3:      1 shell pairs

Calculating one electron integrals          ... done (  0.0 sec)
Calculating RI/J V-Matrix + Cholesky decomp.... done (  0.0 sec)
Calculating Nuclear repulsion               ... done (  0.0 sec) ENN=    566.726463129214 Eh

SHARK setup successfully completed in   0.2 seconds

Maximum memory used throughout the entire GTOINT-calculation: 17.3 MB


           ************************************************************
           *        Program running with 4 parallel MPI-processes     *
           *              working on a common directory               *
           ************************************************************
-------------------------------------------------------------------------------
                                 ORCA SCF
-------------------------------------------------------------------------------

------------
SCF SETTINGS
------------
Hamiltonian:
 Density Functional     Method          .... DFT(GTOs)
 Exchange Functional    Exchange        .... PBE
   PBE kappa parameter   XKappa         ....  1.024500
   PBE mue parameter    XMuePBE         ....  0.123457
 Correlation Functional Correlation     .... PBE
   PBE beta parameter  CBetaPBE         ....  0.030000
 LDA part of GGA corr.  LDAOpt          .... PW91-LDA
 Gradients option       PostSCFGGA      .... off
 Hybrid DFT is turned on
   Fraction HF Exchange ScalHFX         ....  0.420000
   Scaling of DF-GGA-X  ScalDFX         ....  0.580000
   Scaling of DF-GGA-C  ScalDFC         ....  1.000000
   Scaling of DF-LDA-C  ScalLDAC        ....  1.000000
   Perturbative correction              ....  0.000000
   Density functional embedding theory  .... OFF
 RI-approximation to the Coulomb term is turned on
   Number of AuxJ basis functions       .... 613
   RIJ-ON(X) (HFX calculated with O(N)) .... on
   Number of AuxJ basis functions       .... 613
   RIJ-COSX (HFX calculated with COS-X)).... on


General Settings:
 Integral files         IntName         .... reaction-5-prod-pbeh3c-orca_opt
 Hartree-Fock type      HFTyp           .... RHF
 Total Charge           Charge          ....    1
 Multiplicity           Mult            ....    1
 Number of Electrons    NEL             ....   82
 Basis Dimension        Dim             ....  175
 Nuclear Repulsion      ENuc            ....    566.7264631292 Eh

Convergence Acceleration:
 DIIS                   CNVDIIS         .... on
   Start iteration      DIISMaxIt       ....    12
   Startup error        DIISStart       ....  0.200000
   # of expansion vecs  DIISMaxEq       ....     5
   Bias factor          DIISBfac        ....   1.050
   Max. coefficient     DIISMaxC        ....  10.000
 Trust-Rad. Augm. Hess. CNVTRAH         .... auto
   Auto Start mean grad. ratio tolernc. ....  1.125000
   Auto Start start iteration           ....    20
   Auto Start num. interpolation iter.  ....    10
   Max. Number of Micro iterations      ....    16
   Max. Number of Macro iterations      .... Maxiter - #DIIS iter
   Number of Davidson start vectors     ....     2
   Converg. threshold I  (grad. norm)   ....   1.000e-05
   Converg. threshold II (energy diff.) ....   1.000e-08
   Grad. Scal. Fac. for Micro threshold ....   0.100
   Minimum threshold for Micro iter.    ....   0.010
   NR start threshold (gradient norm)   ....   0.001
   Initial trust radius                 ....   0.400
   Minimum AH scaling param. (alpha)    ....   1.000
   Maximum AH scaling param. (alpha)    .... 1000.000
   Orbital update algorithm             .... Taylor
   White noise on init. David. guess    .... on
   Maximum white noise                  ....   0.010
   Quad. conv. algorithm                .... NR
   COSX micro iterations for RIJONX calc.... off
 SOSCF                  CNVSOSCF        .... off
 Level Shifting         CNVShift        .... on
   Level shift para.    LevelShift      ....    0.2500
   Turn off err/grad.   ShiftErr        ....    0.0010
 Zerner damping         CNVZerner       .... off
 Static damping         CNVDamp         .... on
   Fraction old density DampFac         ....    0.7000
   Max. Damping (<1)    DampMax         ....    0.9800
   Min. Damping (>=0)   DampMin         ....    0.0000
   Turn off err/grad.   DampErr         ....    0.1000
 Fernandez-Rico         CNVRico         .... off

SCF Procedure:
 Maximum # iterations   MaxIter         ....   125
 SCF integral mode      SCFMode         .... Direct
   Integral package                     .... SHARK and LIBINT hybrid scheme
 Reset frequency        DirectResetFreq ....    20
 Integral Threshold     Thresh          ....  2.500e-11 Eh
 Primitive CutOff       TCut            ....  2.500e-12 Eh

Convergence Tolerance:
 Convergence Check Mode ConvCheckMode   .... Total+1el-Energy
 Convergence forced     ConvForced      .... 0
 Energy Change          TolE            ....  1.000e-08 Eh
 1-El. energy change                    ....  1.000e-05 Eh
 DIIS Error             TolErr          ....  5.000e-07


Diagonalization of the overlap matrix:
Smallest eigenvalue                        ... 1.408e-03
Time for diagonalization                   ...    0.006 sec
Threshold for overlap eigenvalues          ... 1.000e-08
Number of eigenvalues below threshold      ... 0
Time for construction of square roots      ...    0.003 sec
Total time needed                          ...    0.009 sec

--------------------------------
INITIAL GUESS: MINIMAL BASIS EHT
--------------------------------
The minimal basis has 70 functions
EHT matrix was diagonalized
Basis set overlap was calculated now projecting the orbitals
Using GuessMode=FMatrix for the initial guess
C*T matrix was formed
Effective Fockian was calculated
Effective Fockian was diagonalized
Initial density was built
                      ------------------
                      INITIAL GUESS DONE
                      ------------------
-------------------
DFT GRID GENERATION
-------------------

General Integration Accuracy     IntAcc      ... 4.159
Radial Grid Type                 RadialGrid  ... OptM3 with GC (2021)
Angular Grid (max. ang.)         AngularGrid ... 3 (Lebedev-194)
Angular grid pruning method      GridPruning ... 4 (adaptive)
Weight generation scheme         WeightScheme... Becke
Basis function cutoff            BFCut       ... 1.0000e-11
Integration weight cutoff        WCut        ... 1.0000e-14
Angular grids for H and He will be reduced by one unit
Partially contracted basis set               ... off
Rotationally invariant grid construction     ... off

Total number of grid points                  ...    48287
Total number of batches                      ...      767
Average number of points per batch           ...       62
Average number of grid points per atom       ...     2299
Time for grid setup =    0.216 sec

--------------------
COSX GRID GENERATION
--------------------

GRIDX 1
-------
General Integration Accuracy     IntAcc      ... 3.816
Radial Grid Type                 RadialGrid  ... OptM3 with GC (2021)
Angular Grid (max. ang.)         AngularGrid ... 1 (Lebedev-50)
Angular grid pruning method      GridPruning ... 4 (adaptive)
Weight generation scheme         WeightScheme... Becke
Basis function cutoff            BFCut       ... 1.0000e-11
Integration weight cutoff        WCut        ... 1.0000e-14
Angular grids for H and He will be reduced by one unit
Partially contracted basis set               ... on
Rotationally invariant grid construction     ... off

Total number of grid points                  ...    12335
Total number of batches                      ...      202
Average number of points per batch           ...       61
Average number of grid points per atom       ...      587
UseSFitting                                  ... on

GRIDX 2
-------
General Integration Accuracy     IntAcc      ... 4.020
Radial Grid Type                 RadialGrid  ... OptM3 with GC (2021)
Angular Grid (max. ang.)         AngularGrid ... 2 (Lebedev-110)
Angular grid pruning method      GridPruning ... 4 (adaptive)
Weight generation scheme         WeightScheme... Becke
Basis function cutoff            BFCut       ... 1.0000e-11
Integration weight cutoff        WCut        ... 1.0000e-14
Angular grids for H and He will be reduced by one unit
Partially contracted basis set               ... on
Rotationally invariant grid construction     ... off

Total number of grid points                  ...    26054
Total number of batches                      ...      420
Average number of points per batch           ...       62
Average number of grid points per atom       ...     1241
UseSFitting                                  ... on

GRIDX 3
-------
General Integration Accuracy     IntAcc      ... 4.338
Radial Grid Type                 RadialGrid  ... OptM3 with GC (2021)
Angular Grid (max. ang.)         AngularGrid ... 3 (Lebedev-194)
Angular grid pruning method      GridPruning ... 4 (adaptive)
Weight generation scheme         WeightScheme... Becke
Basis function cutoff            BFCut       ... 1.0000e-11
Integration weight cutoff        WCut        ... 1.0000e-14
Angular grids for H and He will be reduced by one unit
Partially contracted basis set               ... on
Rotationally invariant grid construction     ... off

Total number of grid points                  ...    57061
Total number of batches                      ...      903
Average number of points per batch           ...       63
Average number of grid points per atom       ...     2717
UseSFitting                                  ... on

Time for X-Grid setup             =    0.526 sec

--------------
SCF ITERATIONS
--------------
ITER       Energy         Delta-E        Max-DP      RMS-DP      [F,P]     Damp
               ***  Starting incremental Fock matrix formation  ***
  0  -1103.1512191986   0.000000000000 0.16356766  0.00401014  0.4039842 0.7000
  1  -1103.5475175240  -0.396298325438 0.09576067  0.00277990  0.2879934 0.7000
  2  -1103.8094003237  -0.261882799751 0.07760715  0.00201762  0.2041864 0.7000
                               ***Turning on DIIS***
  3  -1104.0056905183  -0.196290194601 0.05590522  0.00150645  0.1443923 0.7000
  4  -1104.1481623650  -0.142471846630 0.03469276  0.00116314  0.1019628 0.7000
  5  -1104.2495470819  -0.101384716939 0.11827210  0.00295487  0.0713632 0.0000
  6  -1104.4931020587  -0.243554976746 0.02592204  0.00028301  0.0064780 0.0000
  7  -1104.4938137975  -0.000711738856 0.01933689  0.00019782  0.0041077 0.0000
  8  -1104.4940938168  -0.000280019332 0.01353865  0.00014201  0.0024454 0.0000
  9  -1104.4942301959  -0.000136379079 0.00710842  0.00007711  0.0013158 0.0000
 10  -1104.4942744822  -0.000044286315 0.00653505  0.00007891  0.0006876 0.0000
               *** Restarting incremental Fock matrix formation ***
                                   *** Resetting DIIS ***
 11  -1104.4942771462  -0.000002663914 0.00048240  0.00002224  0.0002312 0.0000
 12  -1104.4942780420  -0.000000895858 0.00034892  0.00000785  0.0003482 0.0000
 13  -1104.4942787188  -0.000000676785 0.00013004  0.00000358  0.0000819 0.0000
 14  -1104.4942788272  -0.000000108399 0.00006568  0.00000155  0.0000343 0.0000
 15  -1104.4942788607  -0.000000033450 0.00003424  0.00000090  0.0000182 0.0000
 16  -1104.4942788658  -0.000000005179 0.00001399  0.00000039  0.0000079 0.0000
 17  -1104.4942788633   0.000000002485 0.00000591  0.00000016  0.0000024 0.0000
 18  -1104.4942788629   0.000000000450 0.00000247  0.00000005  0.0000014 0.0000
                            ***DIIS convergence achieved***

               *****************************************************
               *                     SUCCESS                       *
               *           SCF CONVERGED AFTER  19 CYCLES          *
               *****************************************************

Old exchange energy                            =    -36.245503743 Eh
New exchange energy                            =    -36.245462124 Eh
Exchange energy change after final integration =      0.000041619 Eh
Total energy after final integration           =  -1104.494237245 Eh
Final COS-X integration done in                =     3.064 sec

----------------
TOTAL SCF ENERGY
----------------

Total Energy       :        -1104.49423725 Eh          -30054.81615 eV

Components:
Nuclear Repulsion  :          566.72646313 Eh           15421.41107 eV
Electronic Energy  :        -1671.22070037 Eh          -45476.22722 eV
One Electron Energy:        -2616.30301638 Eh          -71193.22447 eV
Two Electron Energy:          945.08231600 Eh           25716.99725 eV
Max COSX asymmetry :            0.00000545 Eh               0.00015 eV

Virial components:
Potential Energy   :        -2204.93641996 Eh          -59999.37030 eV
Kinetic Energy     :         1100.44218271 Eh           29944.55414 eV
Virial Ratio       :            2.00368221


DFT components:
N(Alpha)           :       41.000010044548 electrons
N(Beta)            :       41.000010044548 electrons
N(Total)           :       82.000020089096 electrons
E(X)               :      -48.317607512602 Eh       
E(C)               :       -3.753915008202 Eh       
E(XC)              :      -52.071522520804 Eh       
DFET-embed. en.    :        0.000000000000 Eh       

---------------
SCF CONVERGENCE
---------------

  Last Energy change         ...   -1.3388e-09  Tolerance :   1.0000e-08
  Last MAX-Density change    ...    0.0000e+00  Tolerance :   1.0000e-07
  Last RMS-Density change    ...    0.0000e+00  Tolerance :   5.0000e-09
  Last DIIS Error            ...    5.5654e-07  Tolerance :   5.0000e-07

             **** THE GBW FILE WAS UPDATED (reaction-5-prod-pbeh3c-orca_opt.gbw) ****
             **** DENSITY reaction-5-prod-pbeh3c-orca_opt.scfp WAS UPDATED ****
             **** ENERGY FILE WAS UPDATED (reaction-5-prod-pbeh3c-orca_opt.en.tmp) ****
             **** THE GBW FILE WAS UPDATED (reaction-5-prod-pbeh3c-orca_opt.gbw) ****
             **** DENSITY reaction-5-prod-pbeh3c-orca_opt.scfp WAS UPDATED ****
----------------
ORBITAL ENERGIES
----------------

  NO   OCC          E(Eh)            E(eV) 
   0   2.0000    -162.966403     -4434.5413 
   1   2.0000     -18.280369      -497.4341 
   2   2.0000     -15.118956      -411.4077 
   3   2.0000     -15.115436      -411.3119 
   4   2.0000     -15.113684      -411.2643 
   5   2.0000     -14.874886      -404.7662 
   6   2.0000     -14.873853      -404.7381 
   7   2.0000     -10.663775      -290.1761 
   8   2.0000     -10.636727      -289.4401 
   9   2.0000     -10.634709      -289.3851 
  10   2.0000     -10.627638      -289.1927 
  11   2.0000     -10.624967      -289.1200 
  12   2.0000     -10.533208      -286.6232 
  13   2.0000      -2.471237       -67.2458 
  14   2.0000      -1.621889       -44.1338 
  15   2.0000      -1.607951       -43.7546 
  16   2.0000      -1.599186       -43.5161 
  17   2.0000      -1.320217       -35.9249 
  18   2.0000      -1.200367       -32.6637 
  19   2.0000      -1.032865       -28.1057 
  20   2.0000      -0.990419       -26.9507 
  21   2.0000      -0.932135       -25.3647 
  22   2.0000      -0.862888       -23.4804 
  23   2.0000      -0.852220       -23.1901 
  24   2.0000      -0.811735       -22.0884 
  25   2.0000      -0.757977       -20.6256 
  26   2.0000      -0.711445       -19.3594 
  27   2.0000      -0.683208       -18.5910 
  28   2.0000      -0.667222       -18.1560 
  29   2.0000      -0.662939       -18.0395 
  30   2.0000      -0.659435       -17.9441 
  31   2.0000      -0.608074       -16.5465 
  32   2.0000      -0.604665       -16.4538 
  33   2.0000      -0.594769       -16.1845 
  34   2.0000      -0.550357       -14.9760 
  35   2.0000      -0.548068       -14.9137 
  36   2.0000      -0.530841       -14.4449 
  37   2.0000      -0.494089       -13.4448 
  38   2.0000      -0.476272       -12.9600 
  39   2.0000      -0.443149       -12.0587 
  40   2.0000      -0.430208       -11.7066 
  41   0.0000      -0.220209        -5.9922 
  42   0.0000      -0.218032        -5.9330 
  43   0.0000      -0.201780        -5.4907 
  44   0.0000      -0.194147        -5.2830 
  45   0.0000      -0.172256        -4.6873 
  46   0.0000      -0.138447        -3.7673 
  47   0.0000      -0.093471        -2.5435 
  48   0.0000      -0.079638        -2.1670 
  49   0.0000      -0.072114        -1.9623 
  50   0.0000      -0.023002        -0.6259 
  51   0.0000      -0.003944        -0.1073 
  52   0.0000       0.008736         0.2377 
  53   0.0000       0.016568         0.4509 
  54   0.0000       0.038052         1.0355 
  55   0.0000       0.045233         1.2308 
  56   0.0000       0.056885         1.5479 
  57   0.0000       0.062061         1.6888 
  58   0.0000       0.069360         1.8874 
  59   0.0000       0.076968         2.0944 
  60   0.0000       0.078969         2.1489 
  61   0.0000       0.081549         2.2190 
  62   0.0000       0.097512         2.6534 
  63   0.0000       0.110008         2.9935 
  64   0.0000       0.115806         3.1512 
  65   0.0000       0.127909         3.4806 
  66   0.0000       0.146158         3.9772 
  67   0.0000       0.172854         4.7036 
  68   0.0000       0.211017         5.7421 
  69   0.0000       0.256988         6.9930 
  70   0.0000       0.276612         7.5270 
  71   0.0000       0.291909         7.9433 
  72   0.0000       0.309331         8.4173 
  73   0.0000       0.336907         9.1677 
  74   0.0000       0.339739         9.2448 
  75   0.0000       0.359999         9.7961 
  76   0.0000       0.372512        10.1366 
  77   0.0000       0.387039        10.5319 
  78   0.0000       0.400726        10.9043 
  79   0.0000       0.416933        11.3453 
  80   0.0000       0.427299        11.6274 
  81   0.0000       0.439749        11.9662 
  82   0.0000       0.447335        12.1726 
  83   0.0000       0.473567        12.8864 
  84   0.0000       0.492211        13.3937 
  85   0.0000       0.500595        13.6219 
  86   0.0000       0.514461        13.9992 
  87   0.0000       0.517293        14.0762 
  88   0.0000       0.536654        14.6031 
  89   0.0000       0.560595        15.2546 
  90   0.0000       0.575372        15.6567 
  91   0.0000       0.600175        16.3316 
  92   0.0000       0.637370        17.3437 
  93   0.0000       0.658324        17.9139 
  94   0.0000       0.699565        19.0361 
  95   0.0000       0.746838        20.3225 
  96   0.0000       0.751262        20.4429 
  97   0.0000       0.765695        20.8356 
  98   0.0000       0.786837        21.4109 
  99   0.0000       0.798382        21.7251 
 100   0.0000       0.802603        21.8399 
 101   0.0000       0.830947        22.6112 
 102   0.0000       0.841886        22.9089 
 103   0.0000       0.849708        23.1217 
 104   0.0000       0.867289        23.6001 
 105   0.0000       0.871158        23.7054 
 106   0.0000       0.885942        24.1077 
 107   0.0000       0.900437        24.5021 
 108   0.0000       0.910877        24.7862 
 109   0.0000       0.914001        24.8712 
 110   0.0000       0.918248        24.9868 
 111   0.0000       0.936150        25.4739 
 112   0.0000       0.939543        25.5663 
 113   0.0000       0.953916        25.9574 
 114   0.0000       0.963015        26.2050 
 115   0.0000       1.013436        27.5770 
 116   0.0000       1.040991        28.3268 
 117   0.0000       1.052530        28.6408 
 118   0.0000       1.104020        30.0419 
 119   0.0000       1.130360        30.7587 
 120   0.0000       1.146613        31.2009 
 121   0.0000       1.178502        32.0687 
 122   0.0000       1.198340        32.6085 
 123   0.0000       1.230384        33.4805 
 124   0.0000       1.270911        34.5833 
 125   0.0000       1.288831        35.0709 
 126   0.0000       1.304459        35.4961 
 127   0.0000       1.325791        36.0766 
 128   0.0000       1.430834        38.9350 
 129   0.0000       1.475523        40.1510 
 130   0.0000       1.481683        40.3187 
 131   0.0000       1.563751        42.5518 
 132   0.0000       1.703364        46.3509 
 133   0.0000       1.711497        46.5722 
 134   0.0000       1.737637        47.2835 
 135   0.0000       1.760405        47.9031 
 136   0.0000       1.820595        49.5409 
 137   0.0000       1.852305        50.4038 
 138   0.0000       1.856821        50.5267 
 139   0.0000       1.875327        51.0303 
 140   0.0000       1.907250        51.8989 
 141   0.0000       1.941404        52.8283 
 142   0.0000       1.969337        53.5884 
 143   0.0000       1.982088        53.9354 
 144   0.0000       2.034203        55.3535 
 145   0.0000       2.052377        55.8480 
 146   0.0000       2.075705        56.4828 
 147   0.0000       2.108679        57.3801 
 148   0.0000       2.132076        58.0167 
 149   0.0000       2.141370        58.2697 
 150   0.0000       2.155938        58.6661 
 151   0.0000       2.191582        59.6360 
 152   0.0000       2.215023        60.2738 
 153   0.0000       2.230574        60.6970 
 154   0.0000       2.241080        60.9829 
 155   0.0000       2.260141        61.5016 
 156   0.0000       2.359176        64.1965 
 157   0.0000       2.360943        64.2445 
 158   0.0000       2.404193        65.4214 
 159   0.0000       2.501393        68.0664 
 160   0.0000       2.504620        68.1542 
 161   0.0000       2.650158        72.1145 
 162   0.0000       2.699813        73.4656 
 163   0.0000       2.726353        74.1878 
 164   0.0000       2.951337        80.3100 
 165   0.0000       2.992398        81.4273 
 166   0.0000       3.071551        83.5811 
 167   0.0000      13.363453       363.6381 
 168   0.0000      13.551920       368.7665 
 169   0.0000      13.631476       370.9313 
 170   0.0000      13.647848       371.3768 
 171   0.0000      13.738971       373.8564 
 172   0.0000      13.954165       379.7121 
 173   0.0000      19.089847       519.4611 
 174   0.0000      19.296589       525.0869 

                    ********************************
                    * MULLIKEN POPULATION ANALYSIS *
                    ********************************

-----------------------
MULLIKEN ATOMIC CHARGES
-----------------------
   0 Sc:    0.875048
   1 C :    0.185506
   2 N :   -0.413112
   3 C :   -0.061399
   4 C :   -0.059037
   5 N :   -0.407717
   6 C :   -0.539096
   7 H :    0.277076
   8 H :    0.277662
   9 H :    0.278363
  10 C :   -0.519003
  11 H :    0.266582
  12 H :    0.276549
  13 H :    0.278244
  14 H :    0.307864
  15 H :    0.307521
  16 C :   -1.057929
  17 H :    0.264826
  18 H :    0.253035
  19 H :    0.252362
  20 H :   -0.043343
Sum of atomic charges:    1.0000000

--------------------------------
MULLIKEN REDUCED ORBITAL CHARGES
--------------------------------
  0 Scs       :     6.503230  s :     6.503230
      pz      :     4.157173  p :    12.550447
      px      :     4.086030
      py      :     4.307244
      dz2     :     0.264328  d :     1.042991
      dxz     :     0.084722
      dyz     :     0.301343
      dx2y2   :     0.178503
      dxy     :     0.214095
      f0      :     0.008622  f :     0.028283
      f+1     :     0.001839
      f-1     :     0.002724
      f+2     :     0.002872
      f-2     :     0.003235
      f+3     :     0.007084
      f-3     :     0.001907
  1 C s       :     3.221236  s :     3.221236
      pz      :     1.007115  p :     2.528645
      px      :     0.839004
      py      :     0.682527
      dz2     :     0.007128  d :     0.064613
      dxz     :     0.010339
      dyz     :     0.025463
      dx2y2   :     0.011000
      dxy     :     0.010684
  2 N s       :     3.533589  s :     3.533589
      pz      :     1.163985  p :     3.826967
      px      :     1.431356
      py      :     1.231626
      dz2     :     0.011840  d :     0.052557
      dxz     :     0.010911
      dyz     :     0.014279
      dx2y2   :     0.007997
      dxy     :     0.007530
  3 C s       :     3.158069  s :     3.158069
      pz      :     0.820519  p :     2.848324
      px      :     1.010403
      py      :     1.017401
      dz2     :     0.017035  d :     0.055006
      dxz     :     0.009416
      dyz     :     0.015105
      dx2y2   :     0.007136
      dxy     :     0.006314
  4 C s       :     3.159680  s :     3.159680
      pz      :     0.842797  p :     2.844836
      px      :     1.029503
      py      :     0.972536
      dz2     :     0.016337  d :     0.054522
      dxz     :     0.009154
      dyz     :     0.015659
      dx2y2   :     0.006344
      dxy     :     0.007028
  5 N s       :     3.532633  s :     3.532633
      pz      :     1.165322  p :     3.821873
      px      :     1.420808
      py      :     1.235743
      dz2     :     0.011902  d :     0.053211
      dxz     :     0.010786
      dyz     :     0.014740
      dx2y2   :     0.007970
      dxy     :     0.007812
  6 C s       :     3.381377  s :     3.381377
      pz      :     1.166144  p :     3.108509
      px      :     1.120262
      py      :     0.822104
      dz2     :     0.012000  d :     0.049210
      dxz     :     0.004688
      dyz     :     0.006710
      dx2y2   :     0.013491
      dxy     :     0.012321
  7 H s       :     0.722924  s :     0.722924
  8 H s       :     0.722338  s :     0.722338
  9 H s       :     0.721637  s :     0.721637
 10 C s       :     3.373578  s :     3.373578
      pz      :     1.142839  p :     3.096355
      px      :     1.107924
      py      :     0.845593
      dz2     :     0.007852  d :     0.049070
      dxz     :     0.005789
      dyz     :     0.012175
      dx2y2   :     0.014360
      dxy     :     0.008894
 11 H s       :     0.733418  s :     0.733418
 12 H s       :     0.723451  s :     0.723451
 13 H s       :     0.721756  s :     0.721756
 14 H s       :     0.692136  s :     0.692136
 15 H s       :     0.692479  s :     0.692479
 16 C s       :     3.473366  s :     3.473366
      pz      :     1.182278  p :     3.561960
      px      :     1.149187
      py      :     1.230494
      dz2     :     0.009592  d :     0.022603
      dxz     :     0.001059
      dyz     :     0.001966
      dx2y2   :     0.005907
      dxy     :     0.004079
 17 H s       :     0.735174  s :     0.735174
 18 H s       :     0.746965  s :     0.746965
 19 H s       :     0.747638  s :     0.747638
 20 H s       :     1.043343  s :     1.043343


                     *******************************
                     * LOEWDIN POPULATION ANALYSIS *
                     *******************************

----------------------
LOEWDIN ATOMIC CHARGES
----------------------
   0 Sc:    0.664208
   1 C :   -0.056628
   2 N :    0.001041
   3 C :   -0.075201
   4 C :   -0.079921
   5 N :    0.007665
   6 C :   -0.240088
   7 H :    0.154655
   8 H :    0.157437
   9 H :    0.155298
  10 C :   -0.238925
  11 H :    0.154290
  12 H :    0.153485
  13 H :    0.158728
  14 H :    0.169155
  15 H :    0.169993
  16 C :   -0.643509
  17 H :    0.159550
  18 H :    0.154012
  19 H :    0.153715
  20 H :   -0.078961

-------------------------------
LOEWDIN REDUCED ORBITAL CHARGES
-------------------------------
  0 Scs       :     6.477357  s :     6.477357
      pz      :     4.211168  p :    12.619418
      px      :     4.091323
      py      :     4.316928
      dz2     :     0.331941  d :     1.183196
      dxz     :     0.097903
      dyz     :     0.328543
      dx2y2   :     0.196011
      dxy     :     0.228797
      f0      :     0.017544  f :     0.055820
      f+1     :     0.004164
      f-1     :     0.005902
      f+2     :     0.005516
      f-2     :     0.005436
      f+3     :     0.012734
      f-3     :     0.004525
  1 C s       :     2.971999  s :     2.971999
      pz      :     1.184742  p :     2.944912
      px      :     0.895142
      py      :     0.865028
      dz2     :     0.015331  d :     0.139716
      dxz     :     0.018251
      dyz     :     0.054834
      dx2y2   :     0.025879
      dxy     :     0.025422
  2 N s       :     3.046332  s :     3.046332
      pz      :     1.214311  p :     3.826247
      px      :     1.373320
      py      :     1.238616
      dz2     :     0.032297  d :     0.126380
      dxz     :     0.024328
      dyz     :     0.038317
      dx2y2   :     0.016038
      dxy     :     0.015400
  3 C s       :     2.884332  s :     2.884332
      pz      :     0.957050  p :     3.068538
      px      :     1.031860
      py      :     1.079629
      dz2     :     0.040530  d :     0.122331
      dxz     :     0.019734
      dyz     :     0.033891
      dx2y2   :     0.014773
      dxy     :     0.013402
  4 C s       :     2.883530  s :     2.883530
      pz      :     0.966297  p :     3.075046
      px      :     1.045736
      py      :     1.063012
      dz2     :     0.038580  d :     0.121345
      dxz     :     0.018384
      dyz     :     0.035675
      dx2y2   :     0.013670
      dxy     :     0.015035
  5 N s       :     3.045182  s :     3.045182
      pz      :     1.215456  p :     3.819429
      px      :     1.366510
      py      :     1.237463
      dz2     :     0.032386  d :     0.127724
      dxz     :     0.024430
      dyz     :     0.039263
      dx2y2   :     0.015901
      dxy     :     0.015745
  6 C s       :     2.940657  s :     2.940657
      pz      :     1.144702  p :     3.204631
      px      :     1.125676
      py      :     0.934253
      dz2     :     0.021640  d :     0.094800
      dxz     :     0.007234
      dyz     :     0.013986
      dx2y2   :     0.027062
      dxy     :     0.024879
  7 H s       :     0.845345  s :     0.845345
  8 H s       :     0.842563  s :     0.842563
  9 H s       :     0.844702  s :     0.844702
 10 C s       :     2.941971  s :     2.941971
      pz      :     1.135816  p :     3.202499
      px      :     1.118535
      py      :     0.948147
      dz2     :     0.014280  d :     0.094455
      dxz     :     0.009612
      dyz     :     0.023777
      dx2y2   :     0.028341
      dxy     :     0.018445
 11 H s       :     0.845710  s :     0.845710
 12 H s       :     0.846515  s :     0.846515
 13 H s       :     0.841272  s :     0.841272
 14 H s       :     0.830845  s :     0.830845
 15 H s       :     0.830007  s :     0.830007
 16 C s       :     3.031499  s :     3.031499
      pz      :     1.174712  p :     3.575815
      px      :     1.148153
      py      :     1.252950
      dz2     :     0.014846  d :     0.036196
      dxz     :     0.001761
      dyz     :     0.003390
      dx2y2   :     0.009603
      dxy     :     0.006595
 17 H s       :     0.840450  s :     0.840450
 18 H s       :     0.845988  s :     0.845988
 19 H s       :     0.846285  s :     0.846285
 20 H s       :     1.078961  s :     1.078961


                      *****************************
                      * MAYER POPULATION ANALYSIS *
                      *****************************

  NA   - Mulliken gross atomic population
  ZA   - Total nuclear charge
  QA   - Mulliken gross atomic charge
  VA   - Mayer's total valence
  BVA  - Mayer's bonded valence
  FA   - Mayer's free valence

  ATOM       NA         ZA         QA         VA         BVA        FA
  0 Sc    20.1250    21.0000     0.8750     2.7601     2.7601    -0.0000
  1 C      5.8145     6.0000     0.1855     3.2178     3.2178     0.0000
  2 N      7.4131     7.0000    -0.4131     3.3964     3.3964    -0.0000
  3 C      6.0614     6.0000    -0.0614     3.7439     3.7439    -0.0000
  4 C      6.0590     6.0000    -0.0590     3.7380     3.7380    -0.0000
  5 N      7.4077     7.0000    -0.4077     3.4168     3.4168    -0.0000
  6 C      6.5391     6.0000    -0.5391     3.5982     3.5982    -0.0000
  7 H      0.7229     1.0000     0.2771     0.8860     0.8860    -0.0000
  8 H      0.7223     1.0000     0.2777     0.8922     0.8922     0.0000
  9 H      0.7216     1.0000     0.2784     0.8857     0.8857    -0.0000
 10 C      6.5190     6.0000    -0.5190     3.5973     3.5973     0.0000
 11 H      0.7334     1.0000     0.2666     0.8951     0.8951    -0.0000
 12 H      0.7235     1.0000     0.2765     0.8843     0.8843    -0.0000
 13 H      0.7218     1.0000     0.2782     0.8939     0.8939    -0.0000
 14 H      0.6921     1.0000     0.3079     0.8745     0.8745    -0.0000
 15 H      0.6925     1.0000     0.3075     0.8755     0.8755    -0.0000
 16 C      7.0579     6.0000    -1.0579     3.6535     3.6535     0.0000
 17 H      0.7352     1.0000     0.2648     0.8926     0.8926     0.0000
 18 H      0.7470     1.0000     0.2530     0.9004     0.9004     0.0000
 19 H      0.7476     1.0000     0.2524     0.9005     0.9005    -0.0000
 20 H      1.0433     1.0000    -0.0433     0.9949     0.9949    -0.0000

  Mayer bond orders larger than 0.100000
B(  0-Sc,  1-C ) :   0.6614 B(  0-Sc, 16-C ) :   0.9610 B(  0-Sc, 20-H ) :   0.9871 
B(  1-C ,  2-N ) :   1.2187 B(  1-C ,  5-N ) :   1.2338 B(  2-N ,  3-C ) :   1.1618 
B(  2-N , 10-C ) :   0.9040 B(  3-C ,  4-C ) :   1.6158 B(  3-C , 14-H ) :   0.8759 
B(  4-C ,  5-N ) :   1.1649 B(  4-C , 15-H ) :   0.8763 B(  5-N ,  6-C ) :   0.9086 
B(  6-C ,  7-H ) :   0.8945 B(  6-C ,  8-H ) :   0.8950 B(  6-C ,  9-H ) :   0.8943 
B( 10-C , 11-H ) :   0.8995 B( 10-C , 12-H ) :   0.8925 B( 10-C , 13-H ) :   0.9019 
B( 16-C , 17-H ) :   0.8884 B( 16-C , 18-H ) :   0.8950 B( 16-C , 19-H ) :   0.8952 


-------
TIMINGS
-------

Total SCF time: 0 days 0 hours 0 min 27 sec 

Total time                  ....      27.937 sec
Sum of individual times     ....      27.722 sec  ( 99.2%)

Fock matrix formation       ....      26.693 sec  ( 95.5%)
  Split-RI-J                ....       2.890 sec  ( 10.8% of F)
  Chain of spheres X        ....      20.917 sec  ( 78.4% of F)
  XC integration            ....       2.814 sec  ( 10.5% of F)
    Basis function eval.    ....       1.167 sec  ( 41.5% of XC)
    Density eval.           ....       0.558 sec  ( 19.8% of XC)
    XC-Functional eval.     ....       0.301 sec  ( 10.7% of XC)
    XC-Potential eval.      ....       0.599 sec  ( 21.3% of XC)
Diagonalization             ....       0.147 sec  (  0.5%)
Density matrix formation    ....       0.008 sec  (  0.0%)
Population analysis         ....       0.010 sec  (  0.0%)
Initial guess               ....       0.019 sec  (  0.1%)
Orbital Transformation      ....       0.000 sec  (  0.0%)
Orbital Orthonormalization  ....       0.000 sec  (  0.0%)
DIIS solution               ....       0.104 sec  (  0.4%)
Grid generation             ....       0.742 sec  (  2.7%)

Maximum memory used throughout the entire SCF-calculation: 70.1 MB


-------------------------------------------------------------------------------
                          DFT DISPERSION CORRECTION                            
                                                                               
                              DFTD3 V3.1  Rev 1                                
                          USING Becke-Johnson damping                          
-------------------------------------------------------------------------------
The PBEh-3c composite method is recognized
Using three-body term ABC
Active option DFTDOPT                   ...         4   

molecular C6(AA) [au] = 5416.108698 


            DFT-D V3
 parameters
 s6 scaling factor         :     1.0000 
 a1 scaling factor         :     0.4860 
 s8 scaling factor         :     0.0000 
 a2 scaling factor         :     4.5000 
 Damping factor alpha9(ATM):    16.0000 
 ad hoc parameters k1-k3   :    16.0000     1.3333    -4.0000 

 Edisp/kcal,au: -6.766927925072  -0.010783784919 
 E6   /kcal   :  -6.785682025 
 E8   /kcal   :  -0.000000000 
 E6(ABC)      :   0.018754100 
 % E8         :   0.000000000 
 % E6(ABC)    :  -0.277143493 

-------------------------   ----------------
Dispersion correction           -0.010783785
-------------------------   ----------------

------------------   -----------------
gCP correction             0.034969430
------------------   -----------------

-------------------------   --------------------
FINAL SINGLE POINT ENERGY     -1104.470051600119
-------------------------   --------------------



           ************************************************************
           *        Program running with 4 parallel MPI-processes     *
           *              working on a common directory               *
           ************************************************************
------------------------------------------------------------------------------
                         ORCA SCF GRADIENT CALCULATION
------------------------------------------------------------------------------

 ... reading COSX grid (gridx3)
Gradient of the Kohn-Sham DFT energy:
Kohn-Sham wavefunction type      ... RKS
Hartree-Fock exchange scaling    ...    0.420
Number of operators              ...    1
Number of atoms                  ...   21
Basis set dimensions             ...  175
Integral neglect threshold       ... 2.5e-11
Integral primitive cutoff        ... 2.5e-12
SHARK Integral package           ... ON

Nuc. rep. gradient       (SHARK) ... done (  0.0 sec)
HCore & Overlap gradient (SHARK) ... done (  0.1 sec)
RI-J gradient            (SHARK) ... done (  0.6 sec)
COSX-gradient                    ... done (  3.7 sec)
Exchange-correlation gradient    ... done
Dispersion correction            ... done
gCP correction                   ... done

------------------
CARTESIAN GRADIENT
------------------

   1   Sc  :   -0.013085434   -0.019415112   -0.027039046
   2   C   :    0.003243737    0.003019367    0.005156546
   3   N   :   -0.006338848   -0.012566343    0.005148382
   4   C   :   -0.002603457   -0.006960056    0.002319867
   5   C   :    0.003316000    0.006140804    0.003382615
   6   N   :    0.005890598    0.012156406    0.006599395
   7   C   :   -0.002494704   -0.007044181    0.007000668
   8   H   :   -0.000550773    0.001067256    0.002366854
   9   H   :   -0.000613626   -0.000548683   -0.007180675
  10   H   :    0.001375340    0.000146667    0.002313285
  11   C   :    0.005025199    0.004843617    0.007876535
  12   H   :    0.003034938   -0.001122996   -0.005636911
  13   H   :   -0.003976563    0.001120599   -0.000170096
  14   H   :   -0.000347217   -0.000384077    0.002599124
  15   H   :    0.000779635    0.003040845   -0.003592523
  16   H   :   -0.001677584   -0.002406465   -0.003999175
  17   C   :    0.005216760    0.007964568    0.009320456
  18   H   :   -0.000031997    0.002206012   -0.005627292
  19   H   :    0.004402345    0.008622467   -0.002800362
  20   H   :    0.002372437    0.009506595   -0.002201564
  21   H   :   -0.003515274   -0.009581957    0.004405488

Difference to translation invariance:
           :   -0.0005784856   -0.0001946651    0.0002415727

Difference to rotation invariance:
           :   -0.0003815619    0.0011380264    0.0010400861

Norm of the cartesian gradient     ...    0.0532243188
RMS gradient                       ...    0.0067056339
MAX gradient                       ...    0.0270390456

-------
TIMINGS
-------

Total SCF gradient time            ...        5.603 sec

One electron gradient       ....       0.102 sec  (  1.8%)
RI-J Coulomb gradient       ....       0.581 sec  ( 10.4%)
COSX gradient               ....       3.682 sec  ( 65.7%)
XC gradient                 ....       0.856 sec  ( 15.3%)

Maximum memory used throughout the entire SCFGRAD-calculation: 43.4 MB
------------------------------------------------------------------------------
                         ORCA GEOMETRY RELAXATION STEP
------------------------------------------------------------------------------

Reading the OPT-File                    .... done
Getting information on internals        .... done
Copying old internal coords+grads       .... done
Making the new internal coordinates     .... (new redundants).... done
Validating the new internal coordinates .... (new redundants).... done
Calculating the B-matrix                .... done
Calculating the G,G- and P matrices     .... done
Transforming gradient to internals      .... done
Projecting the internal gradient        .... done
Number of atoms                         ....  21
Number of internal coordinates          ....  99
Current Energy                          .... -1104.470051600 Eh
Current gradient norm                   ....     0.053224319 Eh/bohr
Maximum allowed component of the step   ....  0.300
Current trust radius                    ....  0.300
Evaluating the initial hessian          ....  (Almloef) done
Projecting the Hessian                  .... done
Forming the augmented Hessian           .... done
Diagonalizing the augmented Hessian     .... done
Last element of RFO vector              ....  0.969920804
Lowest eigenvalues of augmented Hessian:
 -0.012613386  0.001568231  0.001722557  0.001737084  0.017914858
Length of the computed step             ....  0.250969660
The final length of the internal step   ....  0.250969660
Converting the step to cartesian space:
 Initial RMS(Int)=    0.0252233999
Transforming coordinates:
 Iter   0:  RMS(Cart)=    0.0641455347 RMS(Int)=    0.6316541834
 Iter   1:  RMS(Cart)=    0.0011109843 RMS(Int)=    0.0003818793
 Iter   2:  RMS(Cart)=    0.0000400149 RMS(Int)=    0.0000162450
 Iter   3:  RMS(Cart)=    0.0000009483 RMS(Int)=    0.0000004307
 Iter   4:  RMS(Cart)=    0.0000000350 RMS(Int)=    0.0000000121
done
Storing new coordinates                 .... done

                                .--------------------.
          ----------------------|Geometry convergence|-------------------------
          Item                value                   Tolerance       Converged
          ---------------------------------------------------------------------
          RMS gradient        0.0056944614            0.0001000000      NO
          MAX gradient        0.0293161560            0.0003000000      NO
          RMS step            0.0252233999            0.0020000000      NO
          MAX step            0.1829804176            0.0040000000      NO
          ........................................................
          Max(Bonds)      0.0968      Max(Angles)    3.02
          Max(Dihed)        1.04      Max(Improp)    0.00
          ---------------------------------------------------------------------

The optimization has not yet converged - more geometry cycles are needed


    ---------------------------------------------------------------------------
                         Redundant Internal Coordinates
                            (Angstroem and degrees)

        Definition                    Value    dE/dq     Step     New-Value
    ----------------------------------------------------------------------------
     1. B(C   1,Sc  0)                2.4683  0.024334 -0.0968    2.3715   
     2. B(N   2,C   1)                1.3596  0.012883 -0.0111    1.3485   
     3. B(C   3,N   2)                1.3631 -0.001409  0.0013    1.3644   
     4. B(C   4,C   3)                1.3558  0.003046 -0.0018    1.3540   
     5. B(N   5,C   1)                1.3556  0.012657 -0.0107    1.3448   
     6. B(N   5,C   4)                1.3638 -0.001106  0.0011    1.3648   
     7. B(C   6,N   5)                1.4414 -0.007577  0.0084    1.4498   
     8. B(H   7,C   6)                1.0912  0.002052 -0.0029    1.0882   
     9. B(H   8,C   6)                1.0967  0.007085 -0.0103    1.0864   
    10. B(H   9,C   6)                1.0910  0.002103 -0.0030    1.0880   
    11. B(C  10,N   2)                1.4445 -0.006840  0.0077    1.4522   
    12. B(H  11,C  10)                1.0967  0.006456 -0.0094    1.0873   
    13. B(H  12,C  10)                1.0946  0.004040 -0.0058    1.0888   
    14. B(H  13,C  10)                1.0889  0.002022 -0.0029    1.0861   
    15. B(H  14,C   3)                1.0704 -0.004783  0.0063    1.0768   
    16. B(H  15,C   4)                1.0703 -0.004943  0.0065    1.0768   
    17. B(C  16,Sc  0)                2.2911  0.029316 -0.0637    2.2274   
    18. B(H  17,C  16)                1.1084  0.005676 -0.0086    1.0998   
    19. B(H  18,C  16)                1.1061  0.005916 -0.0089    1.0972   
    20. B(H  19,C  16)                1.1062  0.005978 -0.0090    1.0973   
    21. B(H  20,Sc  0)                1.8418  0.008203 -0.0179    1.8240   
    22. A(C   1,Sc  0,C  16)          109.67 -0.012028    1.88    111.55   
    23. A(C  16,Sc  0,H  20)          140.55  0.018991   -3.02    137.53   
    24. A(C   1,Sc  0,H  20)          109.73 -0.006954    1.13    110.87   
    25. A(N   2,C   1,N   5)          104.19 -0.005395    0.61    104.81   
    26. A(Sc  0,C   1,N   5)          130.77  0.004523   -0.58    130.19   
    27. A(Sc  0,C   1,N   2)          124.90  0.000868   -0.02    124.89   
    28. A(C   3,N   2,C  10)          123.12 -0.004521    0.63    123.75   
    29. A(C   1,N   2,C   3)          111.07  0.000831   -0.15    110.92   
    30. A(C   1,N   2,C  10)          125.81  0.003692   -0.49    125.32   
    31. A(C   4,C   3,H  14)          130.31 -0.000817    0.06    130.36   
    32. A(N   2,C   3,H  14)          122.90 -0.001090    0.10    123.00   
    33. A(N   2,C   3,C   4)          106.80  0.001907   -0.16    106.64   
    34. A(C   3,C   4,H  15)          130.52 -0.000649    0.03    130.56   
    35. A(C   3,C   4,N   5)          106.74  0.001874   -0.16    106.58   
    36. A(N   5,C   4,H  15)          122.74 -0.001226    0.12    122.86   
    37. A(C   1,N   5,C   4)          111.20  0.000781   -0.15    111.06   
    38. A(C   4,N   5,C   6)          122.55 -0.004241    0.60    123.15   
    39. A(C   1,N   5,C   6)          126.24  0.003462   -0.45    125.79   
    40. A(H   8,C   6,H   9)          109.27  0.001596   -0.37    108.90   
    41. A(H   7,C   6,H   9)          108.45 -0.000464    0.27    108.72   
    42. A(N   5,C   6,H   9)          109.97 -0.000783    0.18    110.15   
    43. A(H   7,C   6,H   8)          109.36  0.001588   -0.38    108.97   
    44. A(N   5,C   6,H   8)          109.65 -0.001365    0.16    109.81   
    45. A(N   5,C   6,H   7)          110.12 -0.000526    0.13    110.25   
    46. A(H  12,C  10,H  13)          108.47  0.000426    0.04    108.51   
    47. A(H  11,C  10,H  13)          108.72  0.001552   -0.39    108.33   
    48. A(N   2,C  10,H  13)          109.15 -0.001195    0.21    109.36   
    49. A(H  11,C  10,H  12)          109.17  0.000823   -0.15    109.02   
    50. A(N   2,C  10,H  12)          110.70 -0.001038    0.23    110.93   
    51. A(N   2,C  10,H  11)          110.58 -0.000503    0.05    110.63   
    52. A(H  17,C  16,H  18)          103.19 -0.004654    1.04    104.22   
    53. A(Sc  0,C  16,H  18)          117.74  0.008373   -1.57    116.17   
    54. A(Sc  0,C  16,H  17)          110.00 -0.000978    0.30    110.30   
    55. A(H  18,C  16,H  19)          103.31 -0.009559    1.43    104.74   
    56. A(H  17,C  16,H  19)          103.26 -0.004468    0.98    104.24   
    57. A(Sc  0,C  16,H  19)          117.51  0.008255   -1.57    115.94   
    58. D(N   2,C   1,Sc  0,C  16)    177.56  0.000359   -0.78    176.78   
    59. D(N   5,C   1,Sc  0,C  16)      2.49  0.000700   -1.04      1.45   
    60. D(N   5,C   1,Sc  0,H  20)   -175.67  0.000030   -0.79   -176.46   
    61. D(N   2,C   1,Sc  0,H  20)     -0.60 -0.000311   -0.53     -1.13   
    62. D(C  10,N   2,C   1,N   5)    179.40  0.000528   -0.68    178.72   
    63. D(C   3,N   2,C   1,Sc  0)   -175.85  0.000285   -0.56   -176.41   
    64. D(C   3,N   2,C   1,N   5)      0.30  0.000373   -0.40     -0.10   
    65. D(C  10,N   2,C   1,Sc  0)      3.25  0.000439   -0.84      2.41   
    66. D(H  14,C   3,N   2,C  10)      0.70 -0.000392    0.47      1.17   
    67. D(C   4,C   3,N   2,C  10)   -179.41 -0.000546    0.60   -178.80   
    68. D(C   4,C   3,N   2,C   1)     -0.28 -0.000311    0.32      0.04   
    69. D(H  14,C   3,N   2,C   1)    179.82 -0.000158    0.19    180.01   
    70. D(N   5,C   4,C   3,H  14)   -179.98 -0.000069    0.05   -179.93   
    71. D(H  15,C   4,C   3,N   2)   -179.78  0.000029    0.00   -179.78   
    72. D(N   5,C   4,C   3,N   2)      0.13  0.000099   -0.10      0.04   
    73. D(H  15,C   4,C   3,H  14)      0.11 -0.000140    0.15      0.25   
    74. D(C   6,N   5,C   4,H  15)      0.66  0.000123   -0.18      0.47   
[...]
 103   0.0000       0.854056        23.2400 
 104   0.0000       0.877665        23.8825 
 105   0.0000       0.881062        23.9749 
 106   0.0000       0.890501        24.2318 
 107   0.0000       0.901061        24.5191 
 108   0.0000       0.917772        24.9739 
 109   0.0000       0.935633        25.4599 
 110   0.0000       0.936774        25.4909 
 111   0.0000       0.949073        25.8256 
 112   0.0000       0.967127        26.3169 
 113   0.0000       0.971104        26.4251 
 114   0.0000       1.002606        27.2823 
 115   0.0000       1.010842        27.5064 
 116   0.0000       1.041069        28.3289 
 117   0.0000       1.065569        28.9956 
 118   0.0000       1.085206        29.5299 
 119   0.0000       1.139336        31.0029 
 120   0.0000       1.152960        31.3736 
 121   0.0000       1.199850        32.6496 
 122   0.0000       1.209348        32.9080 
 123   0.0000       1.233057        33.5532 
 124   0.0000       1.267209        34.4825 
 125   0.0000       1.288581        35.0641 
 126   0.0000       1.312971        35.7278 
 127   0.0000       1.338014        36.4092 
 128   0.0000       1.459914        39.7263 
 129   0.0000       1.478060        40.2201 
 130   0.0000       1.488063        40.4922 
 131   0.0000       1.575430        42.8696 
 132   0.0000       1.705325        46.4043 
 133   0.0000       1.750024        47.6206 
 134   0.0000       1.781295        48.4715 
 135   0.0000       1.808802        49.2200 
 136   0.0000       1.830344        49.8062 
 137   0.0000       1.842056        50.1249 
 138   0.0000       1.861731        50.6603 
 139   0.0000       1.864254        50.7289 
 140   0.0000       1.899821        51.6968 
 141   0.0000       1.927283        52.4440 
 142   0.0000       1.939232        52.7692 
 143   0.0000       1.967335        53.5339 
 144   0.0000       2.035636        55.3925 
 145   0.0000       2.051109        55.8135 
 146   0.0000       2.099624        57.1337 
 147   0.0000       2.103104        57.2284 
 148   0.0000       2.129853        57.9563 
 149   0.0000       2.165811        58.9347 
 150   0.0000       2.191884        59.6442 
 151   0.0000       2.201169        59.8969 
 152   0.0000       2.210474        60.1500 
 153   0.0000       2.228767        60.6478 
 154   0.0000       2.245343        61.0989 
 155   0.0000       2.277603        61.9767 
 156   0.0000       2.351851        63.9971 
 157   0.0000       2.359805        64.2136 
 158   0.0000       2.410560        65.5947 
 159   0.0000       2.509411        68.2846 
 160   0.0000       2.521620        68.6168 
 161   0.0000       2.652327        72.1735 
 162   0.0000       2.703947        73.5781 
 163   0.0000       2.723503        74.1103 
 164   0.0000       2.946391        80.1754 
 165   0.0000       3.006630        81.8146 
 166   0.0000       3.063496        83.3620 
 167   0.0000      13.353914       363.3785 
 168   0.0000      13.557792       368.9263 
 169   0.0000      13.635786       371.0486 
 170   0.0000      13.655348       371.5809 
 171   0.0000      13.760162       374.4330 
 172   0.0000      13.950612       379.6155 
 173   0.0000      19.091839       519.5154 
 174   0.0000      19.323821       525.8279 

                    ********************************
                    * MULLIKEN POPULATION ANALYSIS *
                    ********************************

-----------------------
MULLIKEN ATOMIC CHARGES
-----------------------
   0 Sc:    0.869353
   1 C :    0.172469
   2 N :   -0.410597
   3 C :   -0.060487
   4 C :   -0.061010
   5 N :   -0.413134
   6 C :   -0.536475
   7 H :    0.284422
   8 H :    0.268530
   9 H :    0.278588
  10 C :   -0.538733
  11 H :    0.279914
  12 H :    0.284104
  13 H :    0.277326
  14 H :    0.308089
  15 H :    0.307512
  16 C :   -1.067234
  17 H :    0.283860
  18 H :    0.254916
  19 H :    0.258171
  20 H :   -0.039584
Sum of atomic charges:    1.0000000

--------------------------------
MULLIKEN REDUCED ORBITAL CHARGES
--------------------------------
  0 Scs       :     6.476387  s :     6.476387
      pz      :     4.152931  p :    12.430774
      px      :     4.093956
      py      :     4.183887
      dz2     :     0.276667  d :     1.189556
      dxz     :     0.114836
      dyz     :     0.312032
      dx2y2   :     0.224217
      dxy     :     0.261804
      f0      :     0.011115  f :     0.033930
      f+1     :     0.001703
      f-1     :     0.003347
      f+2     :     0.004012
      f-2     :     0.005233
      f+3     :     0.004269
      f-3     :     0.004251
  1 C s       :     3.200224  s :     3.200224
      pz      :     1.049172  p :     2.561296
      px      :     0.826744
      py      :     0.685380
      dz2     :     0.007773  d :     0.066011
      dxz     :     0.010878
      dyz     :     0.024306
      dx2y2   :     0.012119
      dxy     :     0.010934
  2 N s       :     3.535853  s :     3.535853
      pz      :     1.165984  p :     3.821744
      px      :     1.409387
      py      :     1.246372
      dz2     :     0.012537  d :     0.053001
      dxz     :     0.010536
      dyz     :     0.014121
      dx2y2   :     0.007972
      dxy     :     0.007835
  3 C s       :     3.164642  s :     3.164642
      pz      :     0.817509  p :     2.841151
      px      :     1.031964
      py      :     0.991678
      dz2     :     0.017239  d :     0.054694
      dxz     :     0.009979
      dyz     :     0.013973
      dx2y2   :     0.006320
      dxy     :     0.007183
  4 C s       :     3.163734  s :     3.163734
      pz      :     0.854729  p :     2.842618
      px      :     0.997212
      py      :     0.990677
      dz2     :     0.015947  d :     0.054658
      dxz     :     0.009590
      dyz     :     0.015410
      dx2y2   :     0.007673
      dxy     :     0.006038
  5 N s       :     3.534423  s :     3.534423
      pz      :     1.167578  p :     3.825737
      px      :     1.413722
      py      :     1.244436
      dz2     :     0.012007  d :     0.052974
      dxz     :     0.011229
      dyz     :     0.013964
      dx2y2   :     0.007958
      dxy     :     0.007816
  6 C s       :     3.379863  s :     3.379863
      pz      :     1.159161  p :     3.107928
      px      :     1.089355
      py      :     0.859413
      dz2     :     0.012086  d :     0.048684
      dxz     :     0.004142
      dyz     :     0.006836
      dx2y2   :     0.013412
      dxy     :     0.012206
  7 H s       :     0.715578  s :     0.715578
  8 H s       :     0.731470  s :     0.731470
  9 H s       :     0.721412  s :     0.721412
 10 C s       :     3.382103  s :     3.382103
      pz      :     1.135761  p :     3.108252
      px      :     1.124832
      py      :     0.847659
      dz2     :     0.011941  d :     0.048378
      dxz     :     0.005501
      dyz     :     0.006371
      dx2y2   :     0.011221
      dxy     :     0.013345
 11 H s       :     0.720086  s :     0.720086
 12 H s       :     0.715896  s :     0.715896
 13 H s       :     0.722674  s :     0.722674
 14 H s       :     0.691911  s :     0.691911
 15 H s       :     0.692488  s :     0.692488
 16 C s       :     3.471505  s :     3.471505
      pz      :     1.182500  p :     3.574043
      px      :     1.137700
      py      :     1.253843
      dz2     :     0.005317  d :     0.021686
      dxz     :     0.005536
      dyz     :     0.002612
      dx2y2   :     0.001890
      dxy     :     0.006330
 17 H s       :     0.716140  s :     0.716140
 18 H s       :     0.745084  s :     0.745084
 19 H s       :     0.741829  s :     0.741829
 20 H s       :     1.039584  s :     1.039584


                     *******************************
                     * LOEWDIN POPULATION ANALYSIS *
                     *******************************

----------------------
LOEWDIN ATOMIC CHARGES
----------------------
   0 Sc:    0.537952
   1 C :   -0.046203
   2 N :    0.009578
   3 C :   -0.074241
   4 C :   -0.075746
   5 N :    0.007522
   6 C :   -0.236534
   7 H :    0.159530
   8 H :    0.153744
   9 H :    0.153632
  10 C :   -0.240084
  11 H :    0.161066
  12 H :    0.159337
  13 H :    0.153429
  14 H :    0.171400
  15 H :    0.171035
  16 C :   -0.600266
  17 H :    0.178062
  18 H :    0.160209
  19 H :    0.164868
  20 H :   -0.068290

-------------------------------
LOEWDIN REDUCED ORBITAL CHARGES
-------------------------------
  0 Scs       :     6.465923  s :     6.465923
      pz      :     4.225156  p :    12.526553
      px      :     4.094746
      py      :     4.206651
      dz2     :     0.366323  d :     1.391838
      dxz     :     0.131977
      dyz     :     0.356352
      dx2y2   :     0.256739
      dxy     :     0.280447
      f0      :     0.026150  f :     0.077735
      f+1     :     0.004419
      f-1     :     0.008899
      f+2     :     0.010563
      f-2     :     0.009141
      f+3     :     0.008560
      f-3     :     0.010001
  1 C s       :     2.940498  s :     2.940498
      pz      :     1.197785  p :     2.960449
      px      :     0.891230
      py      :     0.871434
      dz2     :     0.017106  d :     0.145256
      dxz     :     0.020320
      dyz     :     0.052980
      dx2y2   :     0.027951
      dxy     :     0.026898
  2 N s       :     3.044353  s :     3.044353
      pz      :     1.212897  p :     3.818783
      px      :     1.361219
      py      :     1.244667
      dz2     :     0.033720  d :     0.127286
      dxz     :     0.024183
      dyz     :     0.037342
      dx2y2   :     0.015891
      dxy     :     0.016149
  3 C s       :     2.885142  s :     2.885142
      pz      :     0.953152  p :     3.067649
      px      :     1.045416
      py      :     1.069081
      dz2     :     0.040996  d :     0.121450
      dxz     :     0.020455
      dyz     :     0.032053
      dx2y2   :     0.012885
      dxy     :     0.015061
  4 C s       :     2.884980  s :     2.884980
      pz      :     0.970382  p :     3.069392
      px      :     1.030476
      py      :     1.068534
      dz2     :     0.037283  d :     0.121374
      dxz     :     0.020206
      dyz     :     0.034236
      dx2y2   :     0.016021
      dxy     :     0.013628
  5 N s       :     3.043921  s :     3.043921
      pz      :     1.216036  p :     3.821287
      px      :     1.359492
      py      :     1.245759
      dz2     :     0.032862  d :     0.127270
      dxz     :     0.025686
      dyz     :     0.037094
      dx2y2   :     0.015696
      dxy     :     0.015932
  6 C s       :     2.939960  s :     2.939960
      pz      :     1.143610  p :     3.203254
      px      :     1.105230
      py      :     0.954414
      dz2     :     0.021719  d :     0.093320
      dxz     :     0.006679
      dyz     :     0.013775
      dx2y2   :     0.026617
      dxy     :     0.024530
  7 H s       :     0.840470  s :     0.840470
  8 H s       :     0.846256  s :     0.846256
  9 H s       :     0.846368  s :     0.846368
 10 C s       :     2.942227  s :     2.942227
      pz      :     1.129802  p :     3.205139
      px      :     1.126651
      py      :     0.948686
      dz2     :     0.021509  d :     0.092718
      dxz     :     0.009078
      dyz     :     0.013530
      dx2y2   :     0.022390
      dxy     :     0.026212
 11 H s       :     0.838934  s :     0.838934
 12 H s       :     0.840663  s :     0.840663
 13 H s       :     0.846571  s :     0.846571
 14 H s       :     0.828600  s :     0.828600
 15 H s       :     0.828965  s :     0.828965
 16 C s       :     2.999666  s :     2.999666
      pz      :     1.163209  p :     3.563483
      px      :     1.120163
      py      :     1.280110
      dz2     :     0.008774  d :     0.037117
      dxz     :     0.008683
      dyz     :     0.005032
      dx2y2   :     0.003857
      dxy     :     0.010771
 17 H s       :     0.821938  s :     0.821938
 18 H s       :     0.839791  s :     0.839791
 19 H s       :     0.835132  s :     0.835132
 20 H s       :     1.068290  s :     1.068290


                      *****************************
                      * MAYER POPULATION ANALYSIS *
                      *****************************

  NA   - Mulliken gross atomic population
  ZA   - Total nuclear charge
  QA   - Mulliken gross atomic charge
  VA   - Mayer's total valence
  BVA  - Mayer's bonded valence
  FA   - Mayer's free valence

  ATOM       NA         ZA         QA         VA         BVA        FA
  0 Sc    20.1306    21.0000     0.8694     2.8086     2.8086    -0.0000
  1 C      5.8275     6.0000     0.1725     3.1985     3.1985    -0.0000
  2 N      7.4106     7.0000    -0.4106     3.4053     3.4053    -0.0000
  3 C      6.0605     6.0000    -0.0605     3.7409     3.7409     0.0000
  4 C      6.0610     6.0000    -0.0610     3.7396     3.7396     0.0000
  5 N      7.4131     7.0000    -0.4131     3.4083     3.4083    -0.0000
  6 C      6.5365     6.0000    -0.5365     3.6001     3.6001    -0.0000
  7 H      0.7156     1.0000     0.2844     0.8862     0.8862    -0.0000
  8 H      0.7315     1.0000     0.2685     0.8932     0.8932    -0.0000
  9 H      0.7214     1.0000     0.2786     0.8828     0.8828     0.0000
 10 C      6.5387     6.0000    -0.5387     3.5770     3.5770     0.0000
 11 H      0.7201     1.0000     0.2799     0.8959     0.8959    -0.0000
 12 H      0.7159     1.0000     0.2841     0.8863     0.8863    -0.0000
 13 H      0.7227     1.0000     0.2773     0.8837     0.8837     0.0000
 14 H      0.6919     1.0000     0.3081     0.8758     0.8758    -0.0000
 15 H      0.6925     1.0000     0.3075     0.8761     0.8761    -0.0000
 16 C      7.0672     6.0000    -1.0672     3.6443     3.6443     0.0000
 17 H      0.7161     1.0000     0.2839     0.8848     0.8848     0.0000
 18 H      0.7451     1.0000     0.2549     0.8982     0.8982    -0.0000
 19 H      0.7418     1.0000     0.2582     0.8966     0.8966     0.0000
 20 H      1.0396     1.0000    -0.0396     0.9946     0.9946    -0.0000

  Mayer bond orders larger than 0.100000
B(  0-Sc,  1-C ) :   0.6465 B(  0-Sc, 16-C ) :   0.9898 B(  0-Sc, 20-H ) :   0.9782 
B(  1-C ,  2-N ) :   1.2280 B(  1-C ,  5-N ) :   1.2287 B(  2-N ,  3-C ) :   1.1637 
B(  2-N , 10-C ) :   0.9040 B(  3-C ,  4-C ) :   1.6212 B(  3-C , 14-H ) :   0.8763 
B(  4-C ,  5-N ) :   1.1610 B(  4-C , 15-H ) :   0.8766 B(  5-N ,  6-C ) :   0.9092 
B(  6-C ,  7-H ) :   0.8959 B(  6-C ,  8-H ) :   0.8971 B(  6-C ,  9-H ) :   0.8920 
B( 10-C , 11-H ) :   0.8823 B( 10-C , 12-H ) :   0.8959 B( 10-C , 13-H ) :   0.8925 
B( 16-C , 17-H ) :   0.8705 B( 16-C , 18-H ) :   0.8858 B( 16-C , 19-H ) :   0.8833 


-------
TIMINGS
-------

Total SCF time: 0 days 0 hours 0 min 17 sec 

Total time                  ....      17.486 sec
Sum of individual times     ....      17.116 sec  ( 97.9%)

Fock matrix formation       ....      16.218 sec  ( 92.7%)
  Split-RI-J                ....       1.442 sec  (  8.9% of F)
  Chain of spheres X        ....      13.556 sec  ( 83.6% of F)
  XC integration            ....       1.202 sec  (  7.4% of F)
    Basis function eval.    ....       0.543 sec  ( 45.2% of XC)
    Density eval.           ....       0.245 sec  ( 20.4% of XC)
    XC-Functional eval.     ....       0.136 sec  ( 11.3% of XC)
    XC-Potential eval.      ....       0.196 sec  ( 16.3% of XC)
Diagonalization             ....       0.068 sec  (  0.4%)
Density matrix formation    ....       0.004 sec  (  0.0%)
Population analysis         ....       0.031 sec  (  0.2%)
Initial guess               ....       0.009 sec  (  0.0%)
Orbital Transformation      ....       0.000 sec  (  0.0%)
Orbital Orthonormalization  ....       0.005 sec  (  0.0%)
DIIS solution               ....       0.043 sec  (  0.2%)
Grid generation             ....       0.743 sec  (  4.2%)

Maximum memory used throughout the entire SCF-calculation: 70.2 MB


-------------------------------------------------------------------------------
                          DFT DISPERSION CORRECTION                            
                                                                               
                              DFTD3 V3.1  Rev 1                                
                          USING Becke-Johnson damping                          
-------------------------------------------------------------------------------
The PBEh-3c composite method is recognized
Using three-body term ABC
Active option DFTDOPT                   ...         4   

molecular C6(AA) [au] = 5394.381017 


            DFT-D V3
 parameters
 s6 scaling factor         :     1.0000 
 a1 scaling factor         :     0.4860 
 s8 scaling factor         :     0.0000 
 a2 scaling factor         :     4.5000 
 Damping factor alpha9(ATM):    16.0000 
 ad hoc parameters k1-k3   :    16.0000     1.3333    -4.0000 

 Edisp/kcal,au: -6.907235981457  -0.011007380016 
 E6   /kcal   :  -6.932914853 
 E8   /kcal   :  -0.000000000 
 E6(ABC)      :   0.025678871 
 % E8         :   0.000000000 
 % E6(ABC)    :  -0.371767686 

-------------------------   ----------------
Dispersion correction           -0.011007380
-------------------------   ----------------

------------------   -----------------
gCP correction             0.037179487
------------------   -----------------

-------------------------   --------------------
FINAL SINGLE POINT ENERGY     -1104.490034490128
-------------------------   --------------------

                                *** OPTIMIZATION RUN DONE ***

                            ***************************************
                            *     ORCA property calculations      *
                            ***************************************

                                    ---------------------
                                    Active property flags
                                    ---------------------
   (+) Dipole Moment


------------------------------------------------------------------------------
                       ORCA ELECTRIC PROPERTIES CALCULATION
------------------------------------------------------------------------------

Dipole Moment Calculation                       ... on
Quadrupole Moment Calculation                   ... off
Polarizability Calculation                      ... off
GBWName                                         ... reaction-5-prod-pbeh3c-orca_opt.gbw
Electron density                                ... reaction-5-prod-pbeh3c-orca_opt.scfp
The origin for moment calculation is the CENTER OF MASS  = ( 0.187134, -0.339791 -0.377953)

-------------
DIPOLE MOMENT
-------------
                                X             Y             Z
Electronic contribution:      3.20322      -4.10495      -3.88637
Nuclear contribution   :     -2.15136       3.79456       4.63092
                        -----------------------------------------
Total Dipole Moment    :      1.05186      -0.31039       0.74456
                        -----------------------------------------
Magnitude (a.u.)       :      1.32556
Magnitude (Debye)      :      3.36931



--------------------
Rotational spectrum 
--------------------
 
Rotational constants in cm-1:     0.059339     0.030032     0.020707 
Rotational constants in MHz :  1778.952100   900.337375   620.775979 

 Dipole components along the rotational axes: 
x,y,z [a.u.] :     0.668111     0.311640    -1.101646 
x,y,z [Debye]:     1.698203     0.792127    -2.800161 

 

Timings for individual modules:

Sum of individual times         ...      687.658 sec (=  11.461 min)
GTO integral calculation        ...       12.593 sec (=   0.210 min)   1.8 %
SCF iterations                  ...      530.082 sec (=   8.835 min)  77.1 %
SCF Gradient evaluation         ...      143.189 sec (=   2.386 min)  20.8 %
Geometry relaxation             ...        1.793 sec (=   0.030 min)   0.3 %
                             ****ORCA TERMINATED NORMALLY****
TOTAL RUN TIME: 0 days 0 hours 11 minutes 37 seconds 33 msec
