
                                 *****************
                                 * O   R   C   A *
                                 *****************

                                            #,                                       
                                            ###                                      
                                            ####                                     
                                            #####                                    
                                            ######                                   
                                           ########,                                 
                                     ,,################,,,,,                         
                               ,,#################################,,                 
                          ,,##########################################,,             
                       ,#########################################, ''#####,          
                    ,#############################################,,   '####,        
                  ,##################################################,,,,####,       
                ,###########''''           ''''###############################       
              ,#####''   ,,,,##########,,,,          '''####'''          '####       
            ,##' ,,,,###########################,,,                        '##       
           ' ,,###''''                  '''############,,,                           
         ,,##''                                '''############,,,,        ,,,,,,###''
      ,#''                                            '''#######################'''  
     '                                                          ''''####''''         
             ,#######,   #######,   ,#######,      ##                                
            ,#'     '#,  ##    ##  ,#'     '#,    #''#        ######   ,####,        
            ##       ##  ##   ,#'  ##            #'  '#       #        #'  '#        
            ##       ##  #######   ##           ,######,      #####,   #    #        
            '#,     ,#'  ##    ##  '#,     ,#' ,#      #,         ##   #,  ,#        
             '#######'   ##     ##  '#######'  #'      '#     #####' # '####'        



                  #######################################################
                  #                        -***-                        #
                  #          Department of theory and spectroscopy      #
                  #    Directorship and core code : Frank Neese         #
                  #        Max Planck Institute fuer Kohlenforschung    #
                  #                Kaiser Wilhelm Platz 1               #
                  #                 D-45470 Muelheim/Ruhr               #
                  #                      Germany                        #
                  #                                                     #
                  #                  All rights reserved                #
                  #                        -***-                        #
                  #######################################################


                         Program Version 5.0.4 -  RELEASE  -


 With contributions from (in alphabetic order):
   Daniel Aravena         : Magnetic Suceptibility
   Michael Atanasov       : Ab Initio Ligand Field Theory (pilot matlab implementation)
   Alexander A. Auer      : GIAO ZORA, VPT2 properties, NMR spectrum
   Ute Becker             : Parallelization
   Giovanni Bistoni       : ED, misc. LED, open-shell LED, HFLD
   Martin Brehm           : Molecular dynamics
   Dmytro Bykov           : SCF Hessian
   Vijay G. Chilkuri      : MRCI spin determinant printing, contributions to CSF-ICE
   Dipayan Datta          : RHF DLPNO-CCSD density
   Achintya Kumar Dutta   : EOM-CC, STEOM-CC
   Dmitry Ganyushin       : Spin-Orbit,Spin-Spin,Magnetic field MRCI
   Miquel Garcia          : C-PCM and meta-GGA Hessian, CC/C-PCM, Gaussian charge scheme
   Yang Guo               : DLPNO-NEVPT2, F12-NEVPT2, CIM, IAO-localization
   Andreas Hansen         : Spin unrestricted coupled pair/coupled cluster methods
   Benjamin Helmich-Paris : MC-RPA, TRAH-SCF, COSX integrals
   Lee Huntington         : MR-EOM, pCC
   Robert Izsak           : Overlap fitted RIJCOSX, COSX-SCS-MP3, EOM
   Marcus Kettner         : VPT2
   Christian Kollmar      : KDIIS, OOCD, Brueckner-CCSD(T), CCSD density, CASPT2, CASPT2-K
   Simone Kossmann        : Meta GGA functionals, TD-DFT gradient, OOMP2, MP2 Hessian
   Martin Krupicka        : Initial AUTO-CI
   Lucas Lang             : DCDCAS
   Marvin Lechner         : AUTO-CI (C++ implementation), FIC-MRCC
   Dagmar Lenk            : GEPOL surface, SMD
   Dimitrios Liakos       : Extrapolation schemes; Compound Job, initial MDCI parallelization
   Dimitrios Manganas     : Further ROCIS development; embedding schemes
   Dimitrios Pantazis     : SARC Basis sets
   Anastasios Papadopoulos: AUTO-CI, single reference methods and gradients
   Taras Petrenko         : DFT Hessian,TD-DFT gradient, ASA, ECA, R-Raman, ABS, FL, XAS/XES, NRVS
   Peter Pinski           : DLPNO-MP2, DLPNO-MP2 Gradient
   Christoph Reimann      : Effective Core Potentials
   Marius Retegan         : Local ZFS, SOC
   Christoph Riplinger    : Optimizer, TS searches, QM/MM, DLPNO-CCSD(T), (RO)-DLPNO pert. Triples
   Tobias Risthaus        : Range-separated hybrids, TD-DFT gradient, RPA, STAB
   Michael Roemelt        : Original ROCIS implementation
   Masaaki Saitow         : Open-shell DLPNO-CCSD energy and density
   Barbara Sandhoefer     : DKH picture change effects
   Avijit Sen             : IP-ROCIS
   Kantharuban Sivalingam : CASSCF convergence, NEVPT2, FIC-MRCI
   Bernardo de Souza      : ESD, SOC TD-DFT
   Georgi Stoychev        : AutoAux, RI-MP2 NMR, DLPNO-MP2 response
   Willem Van den Heuvel  : Paramagnetic NMR
   Boris Wezisla          : Elementary symmetry handling
   Frank Wennmohs         : Technical directorship


 We gratefully acknowledge several colleagues who have allowed us to
 interface, adapt or use parts of their codes:
   Stefan Grimme, W. Hujo, H. Kruse, P. Pracht,  : VdW corrections, initial TS optimization,
                  C. Bannwarth, S. Ehlert          DFT functionals, gCP, sTDA/sTD-DF
   Ed Valeev, F. Pavosevic, A. Kumar             : LibInt (2-el integral package), F12 methods
   Garnet Chan, S. Sharma, J. Yang, R. Olivares  : DMRG
   Ulf Ekstrom                                   : XCFun DFT Library
   Mihaly Kallay                                 : mrcc  (arbitrary order and MRCC methods)
   Jiri Pittner, Ondrej Demel                    : Mk-CCSD
   Frank Weinhold                                : gennbo (NPA and NBO analysis)
   Christopher J. Cramer and Donald G. Truhlar   : smd solvation model
   Lars Goerigk                                  : TD-DFT with DH, B97 family of functionals
   V. Asgeirsson, H. Jonsson                     : NEB implementation
   FAccTs GmbH                                   : IRC, NEB, NEB-TS, DLPNO-Multilevel, CI-OPT
                                                   MM, QMMM, 2- and 3-layer-ONIOM, Crystal-QMMM,
                                                   LR-CPCM, SF, NACMEs, symmetry and pop. for TD-DFT,
                                                   nearIR, NL-DFT gradient (VV10), updates on ESD,
                                                   ML-optimized integration grids
   S Lehtola, MJT Oliveira, MAL Marques          : LibXC Library
   Liviu Ungur et al                             : ANISO software


 Your calculation uses the libint2 library for the computation of 2-el integrals
 For citations please refer to: http://libint.valeyev.net

 Your ORCA version has been built with support for libXC version: 5.1.0
 For citations please refer to: https://tddft.org/programs/libxc/

 This ORCA versions uses:
   CBLAS   interface :  Fast vector & matrix operations
   LAPACKE interface :  Fast linear algebra routines
   SCALAPACK package :  Parallel linear algebra routines
   Shared memory     :  Shared parallel matrices
   BLAS/LAPACK       :  OpenBLAS 0.3.15  USE64BITINT DYNAMIC_ARCH NO_AFFINITY SkylakeX SINGLE_THREADED
        Core in use  :  SkylakeX
   Copyright (c) 2011-2014, The OpenBLAS Project




***************************************
The coordinates will be read from file: reaction-5-rct-xtb.xyz
***************************************


Your calculation utilizes the geometrical counterpoise correction gCP
Please cite in your paper:
H.Kruse, S. Grimme J.Chem.Phys., 136, (2012), 154101 
   

Your calculation utilizes the atom-pairwise dispersion correction
with the Becke-Johnson damping scheme (D3BJ)
Cite in your paper:
S.Grimme, S.Ehrlich, L.Goerigk, J Comput Chem, (2011), 32, 1456–1465 
S.Grimme, J.Antony, S.Ehrlich and H.Krieg, J.Chem.Phys., 132, (2010), 154104 
   

Your calculation employs the composite approach PBEh-3c.
Please cite in your paper:
S. Grimme, J. G. Brandenburg, C. Bannwarth, A. Hansen J.Chem.Phys., 143, (2015), 054107 
   

================================================================================

----- Orbital basis set information -----
Your calculation utilizes the basis: def2-mSVP

----- AuxJ basis set information -----
Your calculation utilizes the auxiliary basis: def2/J
   F. Weigend, Phys. Chem. Chem. Phys. 8, 1057 (2006).

================================================================================
                                        WARNINGS
                       Please study these warnings very carefully!
================================================================================


WARNING: Geometry Optimization
  ===> : Switching off AutoStart
         For restart on a previous wavefunction, please use MOREAD

INFO   : the flag for use of the SHARK integral package has been found!

================================================================================
                                       INPUT FILE
================================================================================
NAME = reaction-5-rct-pbeh3c-orca_opt.inp
|  1> ! PBEh-3c OPT pal4
|  2> 
|  3> %geom
|  4>  maxiter 600
|  5> end 
|  6> 
|  7> *xyzfile 1 1 reaction-5-rct-xtb.xyz
|  8> 
|  9>                          ****END OF INPUT****
================================================================================

                       *****************************
                       * Geometry Optimization Run *
                       *****************************

Geometry optimization settings:
Update method            Update   .... BFGS
Choice of coordinates    CoordSys .... Z-matrix Internals
Initial Hessian          InHess   .... Almoef's Model

Convergence Tolerances:
Energy Change            TolE     ....  5.0000e-06 Eh
Max. Gradient            TolMAXG  ....  3.0000e-04 Eh/bohr
RMS Gradient             TolRMSG  ....  1.0000e-04 Eh/bohr
Max. Displacement        TolMAXD  ....  4.0000e-03 bohr
RMS Displacement         TolRMSD  ....  2.0000e-03 bohr
Strict Convergence                ....  False
------------------------------------------------------------------------------
                        ORCA OPTIMIZATION COORDINATE SETUP
------------------------------------------------------------------------------

The optimization will be done in new redundant internal coordinates
Making redundant internal coordinates   ...  (new redundants) done
Evaluating the initial hessian          ...  (Almloef) done
Evaluating the coordinates              ...  done
Calculating the B-matrix                .... done
Calculating the G-matrix                .... done
Diagonalizing the G-matrix              .... done
The first mode is                       ....   50
The number of degrees of freedom        ....   57

    -----------------------------------------------------------------
                    Redundant Internal Coordinates


    -----------------------------------------------------------------
         Definition                    Initial Value    Approx d2E/dq
    -----------------------------------------------------------------
      1. B(C   1,Sc  0)                  2.7838         0.037775   
      2. B(N   2,C   1)                  1.3540         0.638715   
      3. B(C   3,N   2)                  1.3674         0.607989   
      4. B(C   4,C   3)                  1.3550         0.710539   
      5. B(N   5,C   1)                  1.3544         0.637788   
      6. B(N   5,C   4)                  1.3671         0.608705   
      7. B(C   6,N   5)                  1.4396         0.466452   
      8. B(H   7,C   6)                  1.0904         0.359513   
      9. B(H   8,C   6)                  1.0926         0.356736   
     10. B(H   9,C   6)                  1.0990         0.348400   
     11. B(C  10,N   2)                  1.4396         0.466315   
     12. B(H  11,C  10)                  1.0977         0.350107   
     13. B(H  12,C  10)                  1.0919         0.357651   
     14. B(H  13,C  10)                  1.0912         0.358524   
     15. B(H  14,C   3)                  1.0700         0.387521   
     16. B(H  15,C   4)                  1.0700         0.387494   
     17. B(C  16,Sc  0)                  3.4410         0.003378   
     18. B(H  17,C  16)                  1.0863         0.365014   
     19. B(H  18,C  16)                  1.0829         0.369597   
     20. B(H  19,H   9)                  3.5177         0.000009   
     21. B(H  19,N   2)                  3.4408         0.000057   
     22. B(H  19,C   1)                  2.7131         0.000927   
     23. B(H  19,N   5)                  3.3804         0.000072   
     24. B(H  19,Sc  0)                  3.1342         0.001996   
     25. B(H  19,C  16)                  1.0945         0.354239   
     26. B(H  20,H   9)                  2.7578         0.000151   
     27. B(H  20,H   8)                  3.1726         0.000033   
     28. B(H  20,C   6)                  3.3307         0.000096   
     29. B(H  20,C   1)                  3.4390         0.000064   
     30. B(H  20,Sc  0)                  3.1588         0.001823   
     31. B(H  20,C  16)                  1.0932         0.355882   
     32. A(C   1,Sc  0,C  16)           68.1597         0.164094   
     33. A(Sc  0,C   1,N   2)          127.4268         0.300226   
     34. A(N   2,C   1,N   5)          104.2011         0.432898   
     35. A(Sc  0,C   1,N   5)          126.3588         0.300157   
     36. A(C   3,N   2,C  10)          123.7774         0.405812   
     37. A(C   1,N   2,C  10)          124.9394         0.409367   
     38. A(C   1,N   2,C   3)          111.2682         0.429193   
     39. A(N   2,C   3,C   4)          106.6335         0.440390   
     40. A(N   2,C   3,H  14)          122.7484         0.353946   
     41. A(C   4,C   3,H  14)          130.6176         0.365736   
     42. A(C   3,C   4,H  15)          130.5837         0.365732   
     43. A(C   3,C   4,N   5)          106.6082         0.440483   
     44. A(N   5,C   4,H  15)          122.8074         0.354012   
     45. A(C   1,N   5,C   4)          111.2874         0.429172   
     46. A(C   4,N   5,C   6)          123.9805         0.405917   
     47. A(C   1,N   5,C   6)          124.6988         0.409283   
     48. A(H   8,C   6,H   9)          109.1710         0.288911   
     49. A(H   7,C   6,H   9)          109.0033         0.289262   
     50. A(N   5,C   6,H   9)          109.4087         0.332583   
     51. A(H   7,C   6,H   8)          108.4042         0.290337   
     52. A(N   5,C   6,H   8)          110.5074         0.333890   
     53. A(N   5,C   6,H   7)          110.3147         0.334320   
     54. A(H  12,C  10,H  13)          108.4048         0.290328   
     55. A(H  11,C  10,H  13)          109.0823         0.289359   
     56. A(N   2,C  10,H  13)          110.4317         0.334151   
     57. A(H  11,C  10,H  12)          108.9875         0.289248   
     58. A(N   2,C  10,H  12)          110.4439         0.334016   
     59. A(N   2,C  10,H  11)          109.4569         0.332836   
     60. A(H  17,C  16,H  20)          109.9765         0.290920   
     61. A(H  18,C  16,H  19)          108.2485         0.291280   
     62. A(H  17,C  16,H  19)          110.4633         0.290709   
     63. A(H  17,C  16,H  18)          108.1048         0.292656   
     64. A(Sc  0,C  16,H  20)           66.0227         0.182430   
     65. A(Sc  0,C  16,H  19)           64.7313         0.182332   
     66. A(Sc  0,C  16,H  18)          166.0441         0.183233   
     67. A(Sc  0,C  16,H  17)           85.8354         0.182967   
     68. A(H  19,C  16,H  20)          111.6345         0.289556   
     69. A(H  18,C  16,H  20)          108.3052         0.291491   
     70. D(N   5,C   1,Sc  0,C  16)    -83.5765         0.001508   
     71. D(N   2,C   1,Sc  0,C  16)    115.1645         0.001508   
     72. D(C   3,N   2,C   1,Sc  0)    164.8757         0.041434   
     73. D(C  10,N   2,C   1,Sc  0)    -16.4954         0.041434   
     74. D(C  10,N   2,C   1,N   5)    178.9843         0.041434   
     75. D(C   3,N   2,C   1,N   5)      0.3555         0.041434   
     76. D(C   4,C   3,N   2,C   1)     -0.1780         0.032446   
     77. D(H  14,C   3,N   2,C  10)      1.4072         0.032446   
     78. D(H  14,C   3,N   2,C   1)   -179.9450         0.032446   
     79. D(C   4,C   3,N   2,C  10)   -178.8257         0.032446   
     80. D(H  15,C   4,C   3,H  14)     -0.0224         0.035649   
     81. D(H  15,C   4,C   3,N   2)   -179.7642         0.035649   
     82. D(N   5,C   4,C   3,H  14)    179.6638         0.035649   
     83. D(N   5,C   4,C   3,N   2)     -0.0781         0.035649   
     84. D(C   4,N   5,C   1,Sc  0)   -165.1471         0.041303   
     85. D(C   6,N   5,C   4,H  15)     -1.9892         0.032529   
     86. D(C   6,N   5,C   4,C   3)    178.2944         0.032529   
     87. D(C   1,N   5,C   4,H  15)   -179.9731         0.032529   
     88. D(C   1,N   5,C   4,C   3)      0.3105         0.032529   
     89. D(C   6,N   5,C   1,N   2)   -178.3731         0.041303   
     90. D(C   6,N   5,C   1,Sc  0)     16.8863         0.041303   
     91. D(C   4,N   5,C   1,N   2)     -0.4065         0.041303   
     92. D(H   9,C   6,N   5,C   4)    169.4737         0.021215   
     93. D(H   9,C   6,N   5,C   1)    -12.8113         0.021215   
     94. D(H   8,C   6,N   5,C   4)    -70.2935         0.021215   
     95. D(H   8,C   6,N   5,C   1)    107.4215         0.021215   
     96. D(H   7,C   6,N   5,C   4)     49.5681         0.021215   
     97. D(H   7,C   6,N   5,C   1)   -132.7169         0.021215   
     98. D(H  12,C  10,N   2,C   1)   -115.5839         0.019922   
     99. D(H  11,C  10,N   2,C   3)   -177.1243         0.019922   
    100. D(H  11,C  10,N   2,C   1)      4.4129         0.019922   
    101. D(H  13,C  10,N   2,C   3)    -57.0179         0.019922   
    102. D(H  13,C  10,N   2,C   1)    124.5193         0.019922   
    103. D(H  12,C  10,N   2,C   3)     62.8788         0.019922   
    104. D(H  20,C  16,Sc  0,C   1)     93.3978         0.001500   
    105. D(H  19,C  16,Sc  0,C   1)    -37.6080         0.001500   
    106. D(H  18,C  16,Sc  0,C   1)     24.7682         0.001500   
    107. D(H  17,C  16,Sc  0,C   1)   -152.5685         0.001500   
    -----------------------------------------------------------------

Number of atoms                         .... 21
Number of degrees of freedom            .... 107

         *************************************************************
         *                GEOMETRY OPTIMIZATION CYCLE   1            *
         *************************************************************
---------------------------------
CARTESIAN COORDINATES (ANGSTROEM)
---------------------------------
  Sc     1.896620   -1.175020   -2.058330
  C      0.396820   -0.499830    0.187570
  N     -0.465230   -1.290460    0.869550
  C     -0.767840   -0.756090    2.091320
  C     -0.075410    0.404490    2.189320
  N      0.628230    0.539210    1.024970
  C      1.468150    1.667430    0.718400
  H      2.145070    1.872080    1.548440
  H      0.861890    2.558650    0.539930
  H      2.060640    1.447980   -0.180810
  C     -1.024140   -2.520950    0.373490
  H     -0.583170   -2.754920   -0.604090
  H     -2.106590   -2.430740    0.262510
  H     -0.815660   -3.339710    1.064050
  H     -1.432590   -1.231110    2.782270
  H     -0.028860    1.122580    2.981260
  C     -0.423840    1.268200   -2.755750
  H     -0.406860    0.883290   -3.771440
  H     -1.132790    2.085900   -2.717560
  H     -0.756710    0.493150   -2.058360
  H      0.562280    1.655890   -2.486740

----------------------------
CARTESIAN COORDINATES (A.U.)
----------------------------
  NO LB      ZA    FRAG     MASS         X           Y           Z
   0 Sc   21.0000    0    44.960    3.584092   -2.220466   -3.889680
   1 C     6.0000    0    12.011    0.749881   -0.944542    0.354456
   2 N     7.0000    0    14.007   -0.879157   -2.438616    1.643211
   3 C     6.0000    0    12.011   -1.451007   -1.428803    3.952022
   4 C     6.0000    0    12.011   -0.142504    0.764375    4.137215
   5 N     7.0000    0    14.007    1.187183    1.018959    1.936913
   6 C     6.0000    0    12.011    2.774401    3.150986    1.357579
   7 H     1.0000    0     1.008    4.053595    3.537719    2.926128
   8 H     1.0000    0     1.008    1.628736    4.835148    1.020320
   9 H     1.0000    0     1.008    3.894045    2.736286   -0.341681
  10 C     6.0000    0    12.011   -1.935344   -4.763905    0.705794
  11 H     1.0000    0     1.008   -1.102032   -5.206044   -1.141565
  12 H     1.0000    0     1.008   -3.980878   -4.593433    0.496072
  13 H     1.0000    0     1.008   -1.541374   -6.311137    2.010763
  14 H     1.0000    0     1.008   -2.707203   -2.326461    5.257728
  15 H     1.0000    0     1.008   -0.054537    2.121369    5.633765
  16 C     6.0000    0    12.011   -0.800942    2.396551   -5.207613
  17 H     1.0000    0     1.008   -0.768854    1.669176   -7.126989
  18 H     1.0000    0     1.008   -2.140663    3.941780   -5.135444
  19 H     1.0000    0     1.008   -1.429975    0.931918   -3.889737
  20 H     1.0000    0     1.008    1.062555    3.129179   -4.699258

--------------------------------
INTERNAL COORDINATES (ANGSTROEM)
--------------------------------
 Sc     0   0   0     0.000000000000     0.00000000     0.00000000
 C      1   0   0     2.783765145644     0.00000000     0.00000000
 N      2   1   0     1.354002481460   127.42679069     0.00000000
 C      3   2   1     1.367423139303   111.26815438   164.87573125
 C      4   3   2     1.354994184969   106.63351461   359.82204128
 N      2   1   3     1.354397825493   126.35875827   161.25906227
 C      6   2   1     1.439559356088   124.69875120    16.88628039
 H      7   6   2     1.090444272074   110.31471350   227.28310968
 H      7   6   2     1.092554720323   110.50741416   107.42153136
 H      7   6   2     1.098991049418   109.40872936   347.18874031
 C      3   2   1     1.439639382554   124.93935551   343.50459903
 H     11   3   2     1.097660766448   109.45692731     4.41294410
 H     11   3   2     1.091857319891   110.44389923   244.41610130
 H     11   3   2     1.091194282243   110.43168863   124.51933527
 H      4   3   2     1.070022647144   122.74841270   180.05499415
 H      5   4   3     1.070041641339   130.58365746   180.23575414
 C      1   2   3     3.440966904287    68.15970753   115.16447383
 H     17   1   2     1.086310362926    85.83538878   207.43150841
 H     17   1   2     1.082913601632   166.04410887    24.76824594
 H     17   1   2     1.094466880038    64.73129981   322.39201917
 H     17   1   2     1.093207469148    66.02274721    93.39782352

---------------------------
INTERNAL COORDINATES (A.U.)
---------------------------
 Sc     0   0   0     0.000000000000     0.00000000     0.00000000
 C      1   0   0     5.260553746422     0.00000000     0.00000000
 N      2   1   0     2.558693874609   127.42679069     0.00000000
 C      3   2   1     2.584055242469   111.26815438   164.87573125
 C      4   3   2     2.560567922647   106.63351461   359.82204128
 N      2   1   3     2.559440966560   126.35875827   161.25906227
 C      6   2   1     2.720372936530   124.69875120    16.88628039
 H      7   6   2     2.060641038524   110.31471350   227.28310968
 H      7   6   2     2.064629207733   110.50741416   107.42153136
 H      7   6   2     2.076792107030   109.40872936   347.18874031
 C      3   2   1     2.720524164634   124.93935551   343.50459903
 H     11   3   2     2.074278236537   109.45692731     4.41294410
 H     11   3   2     2.063311311912   110.44389923   244.41610130
 H     11   3   2     2.062058352340   110.43168863   124.51933527
 H      4   3   2     2.022049760195   122.74841270   180.05499415
 H      5   4   3     2.022085654023   130.58365746   180.23575414
 C      1   2   3     6.502485084990    68.15970753   115.16447383
 H     17   1   2     2.052829082370    85.83538878   207.43150841
 H     17   1   2     2.046410133783   166.04410887    24.76824594
 H     17   1   2     2.068242665919    64.73129981   322.39201917
 H     17   1   2     2.065862724246    66.02274721    93.39782352

---------------------
BASIS SET INFORMATION
---------------------
There are 4 groups of distinct atoms

 Group   1 Type Sc  : 14s9p5d1f contracted to 5s3p2d1f pattern {63311/531/41/1}
 Group   2 Type C   : 8s4p1d contracted to 4s2p1d pattern {5111/31/1}
 Group   3 Type N   : 8s4p1d contracted to 4s2p1d pattern {5111/31/1}
 Group   4 Type H   : 4s contracted to 2s pattern {31}

Atom   0Sc   basis set group =>   1
Atom   1C    basis set group =>   2
Atom   2N    basis set group =>   3
Atom   3C    basis set group =>   2
Atom   4C    basis set group =>   2
Atom   5N    basis set group =>   3
Atom   6C    basis set group =>   2
Atom   7H    basis set group =>   4
Atom   8H    basis set group =>   4
Atom   9H    basis set group =>   4
Atom  10C    basis set group =>   2
Atom  11H    basis set group =>   4
Atom  12H    basis set group =>   4
Atom  13H    basis set group =>   4
Atom  14H    basis set group =>   4
Atom  15H    basis set group =>   4
Atom  16C    basis set group =>   2
Atom  17H    basis set group =>   4
Atom  18H    basis set group =>   4
Atom  19H    basis set group =>   4
Atom  20H    basis set group =>   4
---------------------------------
AUXILIARY/J BASIS SET INFORMATION
---------------------------------
There are 4 groups of distinct atoms

 Group   1 Type Sc  : 19s5p5d3f3g contracted to 8s5p5d2f3g pattern {121111111/11111/11111/21/111}
 Group   2 Type C   : 12s5p4d2f1g contracted to 6s4p3d1f1g pattern {711111/2111/211/2/1}
 Group   3 Type N   : 12s5p4d2f1g contracted to 6s4p3d1f1g pattern {711111/2111/211/2/1}
 Group   4 Type H   : 5s2p1d contracted to 3s1p1d pattern {311/2/1}

Atom   0Sc   basis set group =>   1
Atom   1C    basis set group =>   2
Atom   2N    basis set group =>   3
Atom   3C    basis set group =>   2
Atom   4C    basis set group =>   2
Atom   5N    basis set group =>   3
Atom   6C    basis set group =>   2
Atom   7H    basis set group =>   4
Atom   8H    basis set group =>   4
Atom   9H    basis set group =>   4
Atom  10C    basis set group =>   2
Atom  11H    basis set group =>   4
Atom  12H    basis set group =>   4
Atom  13H    basis set group =>   4
Atom  14H    basis set group =>   4
Atom  15H    basis set group =>   4
Atom  16C    basis set group =>   2
Atom  17H    basis set group =>   4
Atom  18H    basis set group =>   4
Atom  19H    basis set group =>   4
Atom  20H    basis set group =>   4


           ************************************************************
           *        Program running with 4 parallel MPI-processes     *
           *              working on a common directory               *
           ************************************************************
------------------------------------------------------------------------------
                           ORCA GTO INTEGRAL CALCULATION
                           -- RI-GTO INTEGRALS CHOSEN --
------------------------------------------------------------------------------
------------------------------------------------------------------------------
                   ___                                                        
                  /   \      - P O W E R E D   B Y -                         
                 /     \                                                     
                 |  |  |   _    _      __       _____    __    __             
                 |  |  |  | |  | |    /  \     |  _  \  |  |  /  |          
                  \  \/   | |  | |   /    \    | | | |  |  | /  /          
                 / \  \   | |__| |  /  /\  \   | |_| |  |  |/  /          
                |  |  |   |  __  | /  /__\  \  |    /   |      \           
                |  |  |   | |  | | |   __   |  |    \   |  |\   \          
                \     /   | |  | | |  |  |  |  | |\  \  |  | \   \       
                 \___/    |_|  |_| |__|  |__|  |_| \__\ |__|  \__/        
                                                                              
                      - O R C A' S   B I G   F R I E N D -                    
                                      &                                       
                       - I N T E G R A L  F E E D E R -                       
                                                                              
 v1 FN, 2020, v2 2021                                                         
------------------------------------------------------------------------------


Reading SHARK input file reaction-5-rct-pbeh3c-orca_opt.SHARKINP.tmp ... ok
----------------------
SHARK INTEGRAL PACKAGE
----------------------

Number of atoms                             ...     21
Number of basis functions                   ...    175
Number of shells                            ...     91
Maximum angular momentum                    ...      3
Integral batch strategy                     ... SHARK/LIBINT Hybrid
RI-J (if used) integral strategy            ... SPLIT-RIJ (Revised 2003 algorithm where possible)
Printlevel                                  ...      1
Contraction scheme used                     ... SEGMENTED contraction
Coulomb Range Separation                    ... NOT USED
Exchange Range Separation                   ... NOT USED
Finite Nucleus Model                        ... NOT USED
Auxiliary Coulomb fitting basis             ... AVAILABLE
   # of basis functions in Aux-J            ...    613
   # of shells in Aux-J                     ...    203
   Maximum angular momentum in Aux-J        ...      4
Auxiliary J/K fitting basis                 ... NOT available
Auxiliary Correlation fitting basis         ... NOT available
Auxiliary 'external' fitting basis          ... NOT available
Integral threshold                          ...     2.500000e-11
Primitive cut-off                           ...     2.500000e-12
Primitive pair pre-selection threshold      ...     2.500000e-12

Calculating pre-screening integrals         ... done (  0.0 sec) Dimension = 91
Organizing shell pair data                  ... done (  0.0 sec)
Shell pair information
Total number of shell pairs                 ...      4186
Shell pairs after pre-screening             ...      3640
Total number of primitive shell pairs       ...     16651
Primitive shell pairs kept                  ...      9594
          la=0 lb=0:   1540 shell pairs
          la=1 lb=0:   1070 shell pairs
          la=1 lb=1:    185 shell pairs
          la=2 lb=0:    521 shell pairs
          la=2 lb=1:    182 shell pairs
          la=2 lb=2:     51 shell pairs
          la=3 lb=0:     61 shell pairs
          la=3 lb=1:     19 shell pairs
          la=3 lb=2:     10 shell pairs
          la=3 lb=3:      1 shell pairs

Calculating one electron integrals          ... done (  0.0 sec)
Calculating RI/J V-Matrix + Cholesky decomp.... done (  0.0 sec)
Calculating Nuclear repulsion               ... done (  0.0 sec) ENN=    550.225048863864 Eh

SHARK setup successfully completed in   0.3 seconds

Maximum memory used throughout the entire GTOINT-calculation: 17.3 MB


           ************************************************************
           *        Program running with 4 parallel MPI-processes     *
           *              working on a common directory               *
           ************************************************************
-------------------------------------------------------------------------------
                                 ORCA SCF
-------------------------------------------------------------------------------

------------
SCF SETTINGS
------------
Hamiltonian:
 Density Functional     Method          .... DFT(GTOs)
 Exchange Functional    Exchange        .... PBE
   PBE kappa parameter   XKappa         ....  1.024500
   PBE mue parameter    XMuePBE         ....  0.123457
 Correlation Functional Correlation     .... PBE
   PBE beta parameter  CBetaPBE         ....  0.030000
 LDA part of GGA corr.  LDAOpt          .... PW91-LDA
 Gradients option       PostSCFGGA      .... off
 Hybrid DFT is turned on
   Fraction HF Exchange ScalHFX         ....  0.420000
   Scaling of DF-GGA-X  ScalDFX         ....  0.580000
   Scaling of DF-GGA-C  ScalDFC         ....  1.000000
   Scaling of DF-LDA-C  ScalLDAC        ....  1.000000
   Perturbative correction              ....  0.000000
   Density functional embedding theory  .... OFF
 RI-approximation to the Coulomb term is turned on
   Number of AuxJ basis functions       .... 613
   RIJ-ON(X) (HFX calculated with O(N)) .... on
   Number of AuxJ basis functions       .... 613
   RIJ-COSX (HFX calculated with COS-X)).... on


General Settings:
 Integral files         IntName         .... reaction-5-rct-pbeh3c-orca_opt
 Hartree-Fock type      HFTyp           .... RHF
 Total Charge           Charge          ....    1
 Multiplicity           Mult            ....    1
 Number of Electrons    NEL             ....   82
 Basis Dimension        Dim             ....  175
 Nuclear Repulsion      ENuc            ....    550.2250488639 Eh

Convergence Acceleration:
 DIIS                   CNVDIIS         .... on
   Start iteration      DIISMaxIt       ....    12
   Startup error        DIISStart       ....  0.200000
   # of expansion vecs  DIISMaxEq       ....     5
   Bias factor          DIISBfac        ....   1.050
   Max. coefficient     DIISMaxC        ....  10.000
 Trust-Rad. Augm. Hess. CNVTRAH         .... auto
   Auto Start mean grad. ratio tolernc. ....  1.125000
   Auto Start start iteration           ....    20
   Auto Start num. interpolation iter.  ....    10
   Max. Number of Micro iterations      ....    16
   Max. Number of Macro iterations      .... Maxiter - #DIIS iter
   Number of Davidson start vectors     ....     2
   Converg. threshold I  (grad. norm)   ....   1.000e-05
   Converg. threshold II (energy diff.) ....   1.000e-08
   Grad. Scal. Fac. for Micro threshold ....   0.100
   Minimum threshold for Micro iter.    ....   0.010
   NR start threshold (gradient norm)   ....   0.001
   Initial trust radius                 ....   0.400
   Minimum AH scaling param. (alpha)    ....   1.000
   Maximum AH scaling param. (alpha)    .... 1000.000
   Orbital update algorithm             .... Taylor
   White noise on init. David. guess    .... on
   Maximum white noise                  ....   0.010
   Quad. conv. algorithm                .... NR
   COSX micro iterations for RIJONX calc.... off
 SOSCF                  CNVSOSCF        .... off
 Level Shifting         CNVShift        .... on
   Level shift para.    LevelShift      ....    0.2500
   Turn off err/grad.   ShiftErr        ....    0.0010
 Zerner damping         CNVZerner       .... off
 Static damping         CNVDamp         .... on
   Fraction old density DampFac         ....    0.7000
   Max. Damping (<1)    DampMax         ....    0.9800
   Min. Damping (>=0)   DampMin         ....    0.0000
   Turn off err/grad.   DampErr         ....    0.1000
 Fernandez-Rico         CNVRico         .... off

SCF Procedure:
 Maximum # iterations   MaxIter         ....   125
 SCF integral mode      SCFMode         .... Direct
   Integral package                     .... SHARK and LIBINT hybrid scheme
 Reset frequency        DirectResetFreq ....    20
 Integral Threshold     Thresh          ....  2.500e-11 Eh
 Primitive CutOff       TCut            ....  2.500e-12 Eh

Convergence Tolerance:
 Convergence Check Mode ConvCheckMode   .... Total+1el-Energy
 Convergence forced     ConvForced      .... 0
 Energy Change          TolE            ....  1.000e-08 Eh
 1-El. energy change                    ....  1.000e-05 Eh
 DIIS Error             TolErr          ....  5.000e-07


Diagonalization of the overlap matrix:
Smallest eigenvalue                        ... 1.398e-03
Time for diagonalization                   ...    0.006 sec
Threshold for overlap eigenvalues          ... 1.000e-08
Number of eigenvalues below threshold      ... 0
Time for construction of square roots      ...    0.003 sec
Total time needed                          ...    0.010 sec

--------------------------------
INITIAL GUESS: MINIMAL BASIS EHT
--------------------------------
The minimal basis has 70 functions
EHT matrix was diagonalized
Basis set overlap was calculated now projecting the orbitals
Using GuessMode=FMatrix for the initial guess
C*T matrix was formed
Effective Fockian was calculated
Effective Fockian was diagonalized
Initial density was built
                      ------------------
                      INITIAL GUESS DONE
                      ------------------
-------------------
DFT GRID GENERATION
-------------------

General Integration Accuracy     IntAcc      ... 4.159
Radial Grid Type                 RadialGrid  ... OptM3 with GC (2021)
Angular Grid (max. ang.)         AngularGrid ... 3 (Lebedev-194)
Angular grid pruning method      GridPruning ... 4 (adaptive)
Weight generation scheme         WeightScheme... Becke
Basis function cutoff            BFCut       ... 1.0000e-11
Integration weight cutoff        WCut        ... 1.0000e-14
Angular grids for H and He will be reduced by one unit
Partially contracted basis set               ... off
Rotationally invariant grid construction     ... off

Total number of grid points                  ...    48273
Total number of batches                      ...      768
Average number of points per batch           ...       62
Average number of grid points per atom       ...     2299
Time for grid setup =    0.221 sec

--------------------
COSX GRID GENERATION
--------------------

GRIDX 1
-------
General Integration Accuracy     IntAcc      ... 3.816
Radial Grid Type                 RadialGrid  ... OptM3 with GC (2021)
Angular Grid (max. ang.)         AngularGrid ... 1 (Lebedev-50)
Angular grid pruning method      GridPruning ... 4 (adaptive)
Weight generation scheme         WeightScheme... Becke
Basis function cutoff            BFCut       ... 1.0000e-11
Integration weight cutoff        WCut        ... 1.0000e-14
Angular grids for H and He will be reduced by one unit
Partially contracted basis set               ... on
Rotationally invariant grid construction     ... off

Total number of grid points                  ...    12319
Total number of batches                      ...      202
Average number of points per batch           ...       60
Average number of grid points per atom       ...      587
UseSFitting                                  ... on

GRIDX 2
-------
General Integration Accuracy     IntAcc      ... 4.020
Radial Grid Type                 RadialGrid  ... OptM3 with GC (2021)
Angular Grid (max. ang.)         AngularGrid ... 2 (Lebedev-110)
Angular grid pruning method      GridPruning ... 4 (adaptive)
Weight generation scheme         WeightScheme... Becke
Basis function cutoff            BFCut       ... 1.0000e-11
Integration weight cutoff        WCut        ... 1.0000e-14
Angular grids for H and He will be reduced by one unit
Partially contracted basis set               ... on
Rotationally invariant grid construction     ... off

Total number of grid points                  ...    26022
Total number of batches                      ...      417
Average number of points per batch           ...       62
Average number of grid points per atom       ...     1239
UseSFitting                                  ... on

GRIDX 3
-------
General Integration Accuracy     IntAcc      ... 4.338
Radial Grid Type                 RadialGrid  ... OptM3 with GC (2021)
Angular Grid (max. ang.)         AngularGrid ... 3 (Lebedev-194)
Angular grid pruning method      GridPruning ... 4 (adaptive)
Weight generation scheme         WeightScheme... Becke
Basis function cutoff            BFCut       ... 1.0000e-11
Integration weight cutoff        WCut        ... 1.0000e-14
Angular grids for H and He will be reduced by one unit
Partially contracted basis set               ... on
Rotationally invariant grid construction     ... off

Total number of grid points                  ...    57001
Total number of batches                      ...      902
Average number of points per batch           ...       63
Average number of grid points per atom       ...     2714
UseSFitting                                  ... on

Time for X-Grid setup             =    0.532 sec

--------------
SCF ITERATIONS
--------------
ITER       Energy         Delta-E        Max-DP      RMS-DP      [F,P]     Damp
               ***  Starting incremental Fock matrix formation  ***
  0  -1102.7090572072   0.000000000000 0.58557372  0.00918467  0.4143611 0.7000
  1  -1101.5221597873   1.186897419902 0.20060680  0.00469748  0.2890495 0.7000
  2  -1102.7633188453  -1.241159058070 0.12307407  0.00309104  0.2042940 0.7000
                               ***Turning on DIIS***
  3  -1103.2252077507  -0.461888905404 0.08463352  0.00248339  0.1449760 0.7000
  4  -1103.4676493916  -0.242441640836 0.16875605  0.00354907  0.1406590 0.7000
  5  -1103.7175277784  -0.249878386847 0.33602721  0.00768740  0.0769590 0.0000
  6  -1104.3122907535  -0.594762975049 0.02217730  0.00052835  0.1302072 0.7000
  7  -1104.3330957113  -0.020804957839 0.02802052  0.00065504  0.1069082 0.7000
  8  -1104.3531824580  -0.020086746683 0.10542244  0.00238316  0.0811587 0.0000
  9  -1104.4026352010  -0.049452743039 0.03765294  0.00072500  0.0164574 0.0000
 10  -1104.4076987835  -0.005063582505 0.05473295  0.00071159  0.0182720 0.0000
 11  -1104.4118204997  -0.004121716189 0.06633592  0.00072465  0.0170491 0.0000
 12  -1104.4155021631  -0.003681663410 0.08678252  0.00083466  0.0155929 0.0000
 13  -1104.4192407880  -0.003738624868 0.09698869  0.00087418  0.0154809 0.0000
 14  -1104.4227643469  -0.003523558874 0.12834269  0.00112824  0.0153971 0.0000
 15  -1104.4267324026  -0.003968055752 0.09188419  0.00080140  0.0160373 0.0000
 16  -1104.4294493308  -0.002716928192 0.15772554  0.00143736  0.0127186 0.0000
 17  -1104.4330116575  -0.003562326713 0.05276524  0.00051799  0.0184821 0.0000
 18  -1104.4346757765  -0.001664118996 0.08661888  0.00094244  0.0123173 0.0000
 19  -1104.4368282185  -0.002152441935 0.04196672  0.00057917  0.0142021 0.0000
               *** Restarting incremental Fock matrix formation ***
                                   *** Resetting DIIS ***

 WARNING: the maximum gradient error descreased on average only by a factor   1.0
          during the last 20 iterations

                      *** Initiating the TRAH-SCF procedure ***


TRAH GRIDX
----------

General Integration Accuracy     IntAcc      ... 3.067
Radial Grid Type                 RadialGrid  ... OptM3 with GC (2021)
Angular Grid (max. ang.)         AngularGrid ... 1 (Lebedev-50)
Angular grid pruning method      GridPruning ... 4 (adaptive)
Weight generation scheme         WeightScheme... Becke
Basis function cutoff            BFCut       ... 1.0000e-11
Integration weight cutoff        WCut        ... 1.0000e-14
Angular grids for H and He will be reduced by one unit
Partially contracted basis set               ... on
Rotationally invariant grid construction     ... off

Total number of grid points                  ...     6563
Total number of batches                      ...      117
Average number of points per batch           ...       56
Average number of grid points per atom       ...      313


TRAH GRID
---------

General Integration Accuracy     IntAcc      ... 3.467
Radial Grid Type                 RadialGrid  ... OptM3 with GC (2021)
Angular Grid (max. ang.)         AngularGrid ... 1 (Lebedev-50)
Angular grid pruning method      GridPruning ... 4 (adaptive)
Weight generation scheme         WeightScheme... Becke
Basis function cutoff            BFCut       ... 1.0000e-11
Integration weight cutoff        WCut        ... 1.0000e-14
Angular grids for H and He will be reduced by one unit
Partially contracted basis set               ... off
Rotationally invariant grid construction     ... off

Total number of grid points                  ...    16386
Total number of batches                      ...      266
Average number of points per batch           ...       61
Average number of grid points per atom       ...      780

 --------------------------------------------------------------------------------------------
   Iter.        energy            ||Error||_2        Shift      TRadius  Mac/Mic        Rej.
 --------------------------------------------------------------------------------------------
    0      -1104.438304269224     4.179889e-02                     0.400 (TRAH MAcro)   No
    0     dE    -2.205074e-04     1.065127e-01    -4.4096e-04      0.011 (TRAH MIcro)
    0     dE    -2.538419e-03     1.575958e-01    -4.9479e-03      0.161 (TRAH MIcro)
    0     dE    -4.069284e-03     8.288462e-02    -7.6122e-03      0.263 (TRAH MIcro)
    0     dE    -4.526284e-03     2.796215e-02    -8.3376e-03      0.293 (TRAH MIcro)
    0     dE    -4.617767e-03     1.562970e-02    -8.4821e-03      0.298 (TRAH MIcro)
    0     dE    -4.692860e-03     2.476021e-02    -8.5933e-03      0.304 (TRAH MIcro)
    0     dE    -4.859968e-03     3.542739e-02    -8.8100e-03      0.321 (TRAH MIcro)
    0     dE    -4.986409e-03     1.744437e-02    -8.9504e-03      0.338 (TRAH MIcro)
    0     dE    -5.021245e-03     9.161778e-03    -8.9864e-03      0.343 (TRAH MIcro)
    0     dE    -5.038459e-03     6.055643e-03    -9.0034e-03      0.345 (TRAH MIcro)
    0     dE    -5.058954e-03     7.948014e-03    -9.0216e-03      0.349 (TRAH MIcro)
    0     dE    -5.082297e-03     8.102262e-03    -9.0406e-03      0.353 (TRAH MIcro)
    0     dE    -5.100107e-03     5.321921e-03    -9.0546e-03      0.356 (TRAH MIcro)
    0     dE    -5.104472e-03     2.135103e-03    -9.0577e-03      0.357 (TRAH MIcro)
    1      -1104.443103278597     6.277687e-02                     0.480 (TRAH MAcro)   No
    1     dE    -2.845978e-04     1.439122e-01    -5.6915e-04      0.009 (TRAH MIcro)
    1     dE    -6.256080e-04     2.905450e-02    -1.2499e-03      0.032 (TRAH MIcro)
    1     dE    -7.859203e-04     2.615201e-02    -1.5671e-03      0.055 (TRAH MIcro)
    1     dE    -8.739454e-04     2.116220e-02    -1.7383e-03      0.074 (TRAH MIcro)
    1     dE    -9.775358e-04     2.791100e-02    -1.9347e-03      0.103 (TRAH MIcro)
    1     dE    -1.029782e-03     1.655037e-02    -2.0313e-03      0.118 (TRAH MIcro)
    1     dE    -1.056680e-03     7.341579e-03    -2.0802e-03      0.126 (TRAH MIcro)
    1     dE    -1.060193e-03     3.797128e-03    -2.0865e-03      0.127 (TRAH MIcro)
    2      -1104.444296345973     1.053959e-02                     0.576 (TRAH MAcro)   No
    2     dE    -2.867863e-06     4.644692e-02    -5.7357e-06      0.001 (TRAH MIcro)
    2     dE    -2.412222e-05     1.442554e-02    -4.8242e-05      0.007 (TRAH MIcro)
    2     dE    -5.733374e-05     2.260337e-02    -1.1460e-04      0.024 (TRAH MIcro)
    2     dE    -1.020970e-04     2.052918e-02    -2.0358e-04      0.055 (TRAH MIcro)
    2     dE    -1.420342e-04     1.502599e-02    -2.8205e-04      0.085 (TRAH MIcro)
    2     dE    -1.480120e-04     7.158639e-03    -2.9369e-04      0.089 (TRAH MIcro)
    2     dE    -1.490914e-04     1.751246e-03    -2.9579e-04      0.090 (TRAH MIcro)
    2     dE    -1.493238e-04     1.055910e-03    -2.9624e-04      0.090 (TRAH MIcro)
    2     dE    -1.494351e-04     6.021647e-04    -2.9646e-04      0.090 (TRAH MIcro)
    3      -1104.444458740340     4.890296e-03                     0.691 (TRAH MAcro)   No
    3     dE    -1.597355e-06     2.003561e-02    -3.1947e-06      0.001 (TRAH MIcro)
    3     dE    -4.061216e-06     3.760804e-03    -8.1224e-06      0.003 (TRAH MIcro)
    3     dE    -4.992285e-06     3.426874e-03    -9.9844e-06      0.004 (TRAH MIcro)
    3     dE    -5.679171e-06     2.607338e-03    -1.1358e-05      0.006 (TRAH MIcro)
    3     dE    -6.848628e-06     5.833302e-03    -1.3696e-05      0.010 (TRAH MIcro)
    3     dE    -7.828692e-06     3.249776e-03    -1.5654e-05      0.014 (TRAH MIcro)
    3     dE    -8.286834e-06     1.508212e-03    -1.6569e-05      0.016 (TRAH MIcro)
    3     dE    -8.378722e-06     8.226466e-04    -1.6753e-05      0.017 (TRAH MIcro)
    3     dE    -8.439455e-06     9.770797e-04    -1.6874e-05      0.017 (TRAH MIcro)
    3     dE    -8.512125e-06     1.224361e-03    -1.7019e-05      0.018 (TRAH MIcro)
    3     dE    -8.555383e-06     3.773066e-04    -1.7105e-05      0.018 (TRAH MIcro)
    4      -1104.444467587251     4.291837e-04                           (NR   MAcro)
    4     dE    -1.524079e-08     1.710774e-04                           (NR   MIcro)
    4     dE    -2.168500e-08     1.848923e-04                           (NR   MIcro)
    4     dE    -2.870662e-08     2.459615e-04                           (NR   MIcro)
    4     dE    -4.246973e-08     2.734244e-04                           (NR   MIcro)
    4     dE    -5.363145e-08     2.269122e-04                           (NR   MIcro)
    4     dE    -5.959325e-08     1.120367e-04                           (NR   MIcro)
    4     dE    -6.080029e-08     5.027514e-05                           (NR   MIcro)
    4     dE    -6.105120e-08     2.155814e-05                           (NR   MIcro)
    4     dE    -6.110333e-08     7.833707e-06                           (NR   MIcro)
    4     dE    -6.111390e-08     8.017086e-06                           (NR   MIcro)
    4     dE    -6.113146e-08     9.904807e-06                           (NR   MIcro)
    4     dE    -6.114155e-08     5.194935e-06                           (NR   MIcro)
    4     dE    -6.114383e-08     1.536245e-06                           (NR   MIcro)
    5      -1104.444467638673     3.136714e-06                           (NR   MAcro)
    5     dE    -1.398374e-12     1.461381e-06                           (NR   MIcro)
    5     dE    -2.728035e-12     2.664833e-06                           (NR   MIcro)
    5     dE    -5.453729e-12     3.940285e-06                           (NR   MIcro)
    5     dE    -7.946499e-12     2.500717e-06                           (NR   MIcro)
    5     dE    -8.544127e-12     1.405737e-06                           (NR   MIcro)
    5     dE    -8.783695e-12     7.862638e-07                           (NR   MIcro)
    6      -1104.444467638466     7.879471e-07                           (NR   MAcro)

               *****************************************************
               *                     SUCCESS                       *
               *           SCF CONVERGED AFTER  88 CYCLES          *
               *****************************************************

Old exchange energy                            =    -36.264755250 Eh
New exchange energy                            =    -36.264750624 Eh
Exchange energy change after final integration =      0.000004626 Eh
Total energy after final integration           =  -1104.444463012 Eh
Final COS-X integration done in                =     3.074 sec

----------------
TOTAL SCF ENERGY
----------------

Total Energy       :        -1104.44446301 Eh          -30053.46173 eV

Components:
Nuclear Repulsion  :          550.22504886 Eh           14972.38476 eV
Electronic Energy  :        -1654.66951188 Eh          -45025.84649 eV
One Electron Energy:        -2584.93339185 Eh          -70339.61359 eV
Two Electron Energy:          930.26387997 Eh           25313.76710 eV
Max COSX asymmetry :            0.00000421 Eh               0.00011 eV

Virial components:
Potential Energy   :        -2205.28279851 Eh          -60008.79574 eV
Kinetic Energy     :         1100.83833550 Eh           29955.33401 eV
Virial Ratio       :            2.00327580


DFT components:
N(Alpha)           :       40.999983760730 electrons
N(Beta)            :       40.999983760730 electrons
N(Total)           :       81.999967521461 electrons
E(X)               :      -48.335462318586 Eh       
E(C)               :       -3.745096116973 Eh       
E(XC)              :      -52.080558435558 Eh       
DFET-embed. en.    :        0.000000000000 Eh       

---------------
SCF CONVERGENCE
---------------

  Last Energy change         ...    2.0646e-10  Tolerance :   1.0000e-08
  Last Orbital Gradient      ...    7.8795e-07  Tolerance :   1.0000e-05
  Last Orbital Rotation      ...    2.3551e-05

             **** THE GBW FILE WAS UPDATED (reaction-5-rct-pbeh3c-orca_opt.gbw) ****
             **** DENSITY reaction-5-rct-pbeh3c-orca_opt.scfp WAS UPDATED ****
             **** ENERGY FILE WAS UPDATED (reaction-5-rct-pbeh3c-orca_opt.en.tmp) ****
             **** THE GBW FILE WAS UPDATED (reaction-5-rct-pbeh3c-orca_opt.gbw) ****
             **** DENSITY reaction-5-rct-pbeh3c-orca_opt.scfp WAS UPDATED ****
----------------
ORBITAL ENERGIES
----------------

  NO   OCC          E(Eh)            E(eV) 
   0   2.0000    -162.922835     -4433.3557 
   1   2.0000     -18.228483      -496.0222 
   2   2.0000     -15.071133      -410.1064 
   3   2.0000     -15.067779      -410.0151 
   4   2.0000     -15.052128      -409.5892 
   5   2.0000     -14.846584      -403.9961 
   6   2.0000     -14.846520      -403.9944 
   7   2.0000     -10.638828      -289.4972 
   8   2.0000     -10.612947      -288.7930 
   9   2.0000     -10.612045      -288.7684 
  10   2.0000     -10.611807      -288.7619 
  11   2.0000     -10.609957      -288.7116 
  12   2.0000     -10.542720      -286.8820 
  13   2.0000      -2.437486       -66.3274 
  14   2.0000      -1.587767       -43.2053 
  15   2.0000      -1.578461       -42.9521 
  16   2.0000      -1.565966       -42.6121 
  17   2.0000      -1.295101       -35.2415 
  18   2.0000      -1.176153       -32.0047 
  19   2.0000      -1.012386       -27.5484 
  20   2.0000      -0.966037       -26.2872 
  21   2.0000      -0.913734       -24.8640 
  22   2.0000      -0.904585       -24.6150 
  23   2.0000      -0.827556       -22.5189 
  24   2.0000      -0.789795       -21.4914 
  25   2.0000      -0.736820       -20.0499 
  26   2.0000      -0.689225       -18.7548 
  27   2.0000      -0.663985       -18.0679 
  28   2.0000      -0.646591       -17.5946 
  29   2.0000      -0.644897       -17.5485 
  30   2.0000      -0.637900       -17.3581 
  31   2.0000      -0.592754       -16.1297 
  32   2.0000      -0.585668       -15.9368 
  33   2.0000      -0.579963       -15.7816 
  34   2.0000      -0.575190       -15.6517 
  35   2.0000      -0.574191       -15.6245 
  36   2.0000      -0.571033       -15.5386 
  37   2.0000      -0.475354       -12.9351 
  38   2.0000      -0.470913       -12.8142 
  39   2.0000      -0.418160       -11.3787 
  40   2.0000      -0.340058        -9.2534 
  41   0.0000      -0.197720        -5.3802 
  42   0.0000      -0.193516        -5.2658 
  43   0.0000      -0.193308        -5.2602 
  44   0.0000      -0.179129        -4.8744 
  45   0.0000      -0.174171        -4.7394 
  46   0.0000      -0.134613        -3.6630 
  47   0.0000      -0.127846        -3.4789 
  48   0.0000      -0.080304        -2.1852 
  49   0.0000      -0.075249        -2.0476 
  50   0.0000      -0.058191        -1.5835 
  51   0.0000      -0.037448        -1.0190 
  52   0.0000       0.027138         0.7385 
  53   0.0000       0.032505         0.8845 
  54   0.0000       0.054639         1.4868 
  55   0.0000       0.062722         1.7068 
  56   0.0000       0.067210         1.8289 
  57   0.0000       0.069126         1.8810 
  58   0.0000       0.082387         2.2419 
  59   0.0000       0.084649         2.3034 
  60   0.0000       0.088806         2.4165 
  61   0.0000       0.095492         2.5985 
  62   0.0000       0.100353         2.7307 
  63   0.0000       0.104790         2.8515 
  64   0.0000       0.116208         3.1622 
  65   0.0000       0.127340         3.4651 
  66   0.0000       0.133783         3.6404 
  67   0.0000       0.180526         4.9124 
  68   0.0000       0.210106         5.7173 
  69   0.0000       0.228855         6.2275 
  70   0.0000       0.284973         7.7545 
  71   0.0000       0.294401         8.0111 
  72   0.0000       0.296935         8.0800 
  73   0.0000       0.344565         9.3761 
  74   0.0000       0.353765         9.6264 
  75   0.0000       0.358268         9.7490 
  76   0.0000       0.363818         9.9000 
  77   0.0000       0.379750        10.3335 
  78   0.0000       0.387891        10.5550 
  79   0.0000       0.394730        10.7412 
  80   0.0000       0.407939        11.1006 
  81   0.0000       0.416740        11.3401 
  82   0.0000       0.443937        12.0801 
  83   0.0000       0.453914        12.3516 
  84   0.0000       0.463393        12.6096 
  85   0.0000       0.498231        13.5576 
  86   0.0000       0.514327        13.9956 
  87   0.0000       0.520593        14.1660 
  88   0.0000       0.556549        15.1445 
  89   0.0000       0.563562        15.3353 
  90   0.0000       0.580670        15.8008 
  91   0.0000       0.595257        16.1978 
  92   0.0000       0.662541        18.0287 
  93   0.0000       0.668431        18.1889 
  94   0.0000       0.718140        19.5416 
  95   0.0000       0.759491        20.6668 
  96   0.0000       0.768809        20.9203 
  97   0.0000       0.777780        21.1645 
  98   0.0000       0.801502        21.8100 
  99   0.0000       0.804571        21.8935 
 100   0.0000       0.808072        21.9887 
 101   0.0000       0.818151        22.2630 
 102   0.0000       0.835754        22.7420 
 103   0.0000       0.847203        23.0536 
 104   0.0000       0.853357        23.2210 
 105   0.0000       0.865432        23.5496 
 106   0.0000       0.871595        23.7173 
 107   0.0000       0.896679        24.3999 
 108   0.0000       0.910388        24.7729 
 109   0.0000       0.916190        24.9308 
 110   0.0000       0.924511        25.1572 
 111   0.0000       0.928827        25.2747 
 112   0.0000       0.933730        25.4081 
 113   0.0000       0.954808        25.9817 
 114   0.0000       0.969991        26.3948 
 115   0.0000       0.978496        26.6262 
 116   0.0000       1.016721        27.6664 
 117   0.0000       1.026840        27.9417 
 118   0.0000       1.051001        28.5992 
 119   0.0000       1.087073        29.5808 
 120   0.0000       1.117150        30.3992 
 121   0.0000       1.155372        31.4393 
 122   0.0000       1.208485        32.8845 
 123   0.0000       1.240648        33.7597 
 124   0.0000       1.245411        33.8893 
 125   0.0000       1.284133        34.9430 
 126   0.0000       1.307428        35.5769 
 127   0.0000       1.349619        36.7250 
 128   0.0000       1.448972        39.4285 
 129   0.0000       1.485060        40.4105 
 130   0.0000       1.513415        41.1821 
 131   0.0000       1.556180        42.3458 
 132   0.0000       1.584790        43.1243 
 133   0.0000       1.591388        43.3039 
 134   0.0000       1.704083        46.3704 
 135   0.0000       1.784090        48.5476 
 136   0.0000       1.858199        50.5642 
 137   0.0000       1.868268        50.8382 
 138   0.0000       1.884121        51.2696 
 139   0.0000       1.892737        51.5040 
 140   0.0000       1.936564        52.6966 
 141   0.0000       1.951852        53.1126 
 142   0.0000       1.975129        53.7460 
 143   0.0000       2.040327        55.5201 
 144   0.0000       2.046679        55.6930 
 145   0.0000       2.115047        57.5533 
 146   0.0000       2.118022        57.6343 
 147   0.0000       2.140862        58.2558 
 148   0.0000       2.153067        58.5879 
 149   0.0000       2.181614        59.3647 
 150   0.0000       2.188345        59.5479 
 151   0.0000       2.203543        59.9615 
 152   0.0000       2.208707        60.1020 
 153   0.0000       2.238709        60.9184 
 154   0.0000       2.241188        60.9858 
 155   0.0000       2.288355        62.2693 
 156   0.0000       2.376740        64.6744 
 157   0.0000       2.387788        64.9750 
 158   0.0000       2.434654        66.2503 
 159   0.0000       2.506309        68.2001 
 160   0.0000       2.530813        68.8669 
 161   0.0000       2.669180        72.6321 
 162   0.0000       2.728843        74.2556 
 163   0.0000       2.747767        74.7706 
 164   0.0000       2.971892        80.8693 
 165   0.0000       3.012506        81.9745 
 166   0.0000       3.098703        84.3200 
 167   0.0000      13.385029       364.2251 
 168   0.0000      13.562951       369.0667 
 169   0.0000      13.593714       369.9038 
 170   0.0000      13.654277       371.5518 
 171   0.0000      13.751219       374.1897 
 172   0.0000      13.973427       380.2363 
 173   0.0000      19.125095       520.4203 
 174   0.0000      19.295246       525.0503 

                    ********************************
                    * MULLIKEN POPULATION ANALYSIS *
                    ********************************

-----------------------
MULLIKEN ATOMIC CHARGES
-----------------------
   0 Sc:    0.592300
   1 C :    0.185776
   2 N :   -0.408352
   3 C :   -0.064970
   4 C :   -0.065684
   5 N :   -0.407800
   6 C :   -0.506052
   7 H :    0.270477
   8 H :    0.270765
   9 H :    0.235211
  10 C :   -0.508923
  11 H :    0.240676
  12 H :    0.271027
  13 H :    0.268297
  14 H :    0.295829
  15 H :    0.295973
  16 C :   -0.929391
  17 H :    0.246769
  18 H :    0.281560
  19 H :    0.228756
  20 H :    0.207756
Sum of atomic charges:    1.0000000

--------------------------------
MULLIKEN REDUCED ORBITAL CHARGES
--------------------------------
  0 Scs       :     7.176021  s :     7.176021
      pz      :     4.074390  p :    12.141011
      px      :     4.044560
      py      :     4.022060
      dz2     :     0.074443  d :     1.087071
      dxz     :     0.514368
      dyz     :     0.122507
      dx2y2   :     0.066467
      dxy     :     0.309286
      f0      :     0.000218  f :     0.003597
      f+1     :     0.001514
      f-1     :     0.000391
      f+2     :     0.000493
      f-2     :     0.000679
      f+3     :     0.000100
      f-3     :     0.000201
  1 C s       :     3.278917  s :     3.278917
      pz      :     0.969488  p :     2.468028
      px      :     0.798462
      py      :     0.700078
      dz2     :     0.008233  d :     0.067279
      dxz     :     0.011701
      dyz     :     0.022465
      dx2y2   :     0.014057
      dxy     :     0.010823
  2 N s       :     3.525698  s :     3.525698
      pz      :     1.210852  p :     3.830290
      px      :     1.360633
      py      :     1.258805
      dz2     :     0.012396  d :     0.052365
      dxz     :     0.008600
      dyz     :     0.013103
      dx2y2   :     0.009484
      dxy     :     0.008781
  3 C s       :     3.158181  s :     3.158181
      pz      :     0.843482  p :     2.852160
      px      :     1.052127
      py      :     0.956551
      dz2     :     0.014378  d :     0.054629
      dxz     :     0.011215
      dyz     :     0.012687
      dx2y2   :     0.006789
      dxy     :     0.009560
  4 C s       :     3.157865  s :     3.157865
      pz      :     0.881615  p :     2.853100
      px      :     0.942679
      py      :     1.028806
      dz2     :     0.012921  d :     0.054719
      dxz     :     0.011343
      dyz     :     0.013803
      dx2y2   :     0.010622
      dxy     :     0.006029
  5 N s       :     3.525089  s :     3.525089
      pz      :     1.210395  p :     3.830409
      px      :     1.368114
      py      :     1.251901
      dz2     :     0.012124  d :     0.052302
      dxz     :     0.010388
      dyz     :     0.011384
      dx2y2   :     0.008680
      dxy     :     0.009726
  6 C s       :     3.364513  s :     3.364513
      pz      :     1.148423  p :     3.091690
      px      :     1.022822
      py      :     0.920445
      dz2     :     0.008152  d :     0.049849
      dxz     :     0.011859
      dyz     :     0.005424
      dx2y2   :     0.008240
      dxy     :     0.016173
  7 H s       :     0.729523  s :     0.729523
  8 H s       :     0.729235  s :     0.729235
  9 H s       :     0.764789  s :     0.764789
 10 C s       :     3.364660  s :     3.364660
      pz      :     1.114582  p :     3.094497
      px      :     1.114766
      py      :     0.865150
      dz2     :     0.008318  d :     0.049766
      dxz     :     0.005661
      dyz     :     0.012062
      dx2y2   :     0.015763
      dxy     :     0.007962
 11 H s       :     0.759324  s :     0.759324
 12 H s       :     0.728973  s :     0.728973
 13 H s       :     0.731703  s :     0.731703
 14 H s       :     0.704171  s :     0.704171
 15 H s       :     0.704027  s :     0.704027
 16 C s       :     3.461621  s :     3.461621
      pz      :     1.137815  p :     3.438120
      px      :     1.133731
      py      :     1.166574
      dz2     :     0.007915  d :     0.029650
      dxz     :     0.001987
      dyz     :     0.007478
      dx2y2   :     0.004146
      dxy     :     0.008124
 17 H s       :     0.753231  s :     0.753231
 18 H s       :     0.718440  s :     0.718440
 19 H s       :     0.771244  s :     0.771244
 20 H s       :     0.792244  s :     0.792244


                     *******************************
                     * LOEWDIN POPULATION ANALYSIS *
                     *******************************

----------------------
LOEWDIN ATOMIC CHARGES
----------------------
   0 Sc:    0.512565
   1 C :   -0.085577
   2 N :   -0.011886
   3 C :   -0.089600
   4 C :   -0.089057
   5 N :   -0.012264
   6 C :   -0.236144
   7 H :    0.150702
   8 H :    0.149289
   9 H :    0.141473
  10 C :   -0.238144
  11 H :    0.144213
  12 H :    0.149967
  13 H :    0.149463
  14 H :    0.164115
  15 H :    0.164014
  16 C :   -0.526407
  17 H :    0.141837
  18 H :    0.157976
  19 H :    0.135566
  20 H :    0.127902

-------------------------------
LOEWDIN REDUCED ORBITAL CHARGES
-------------------------------
  0 Scs       :     7.138323  s :     7.138323
      pz      :     4.099149  p :    12.187843
      px      :     4.059691
      py      :     4.029003
      dz2     :     0.086917  d :     1.152252
      dxz     :     0.545366
      dyz     :     0.129319
      dx2y2   :     0.070061
      dxy     :     0.320589
      f0      :     0.000529  f :     0.009016
      f+1     :     0.004031
      f-1     :     0.000960
      f+2     :     0.001144
      f-2     :     0.001644
      f+3     :     0.000255
      f-3     :     0.000452
  1 C s       :     3.023803  s :     3.023803
      pz      :     1.147671  p :     2.918327
      px      :     0.908669
      py      :     0.861987
      dz2     :     0.015555  d :     0.143448
      dxz     :     0.022672
      dyz     :     0.047119
      dx2y2   :     0.031158
      dxy     :     0.026944
  2 N s       :     3.045721  s :     3.045721
      pz      :     1.243461  p :     3.839430
      px      :     1.339756
      py      :     1.256213
      dz2     :     0.031336  d :     0.126735
      dxz     :     0.022093
      dyz     :     0.033036
      dx2y2   :     0.020206
      dxy     :     0.020065
  3 C s       :     2.884130  s :     2.884130
      pz      :     0.964482  p :     3.083760
      px      :     1.068805
      py      :     1.050473
      dz2     :     0.033652  d :     0.121711
      dxz     :     0.022995
      dyz     :     0.029713
      dx2y2   :     0.014363
      dxy     :     0.020988
  4 C s       :     2.884123  s :     2.884123
      pz      :     0.982063  p :     3.083056
      px      :     1.017024
      py      :     1.083969
      dz2     :     0.029790  d :     0.121879
      dxz     :     0.025872
      dyz     :     0.028899
      dx2y2   :     0.022485
      dxy     :     0.014832
  5 N s       :     3.045232  s :     3.045232
      pz      :     1.247046  p :     3.840368
      px      :     1.333447
      py      :     1.259874
      dz2     :     0.031029  d :     0.126664
      dxz     :     0.024404
      dyz     :     0.031069
      dx2y2   :     0.018902
      dxy     :     0.021260
  6 C s       :     2.940065  s :     2.940065
      pz      :     1.139506  p :     3.200078
      px      :     1.062963
      py      :     0.997609
      dz2     :     0.014734  d :     0.096002
      dxz     :     0.021121
      dyz     :     0.010877
      dx2y2   :     0.017343
      dxy     :     0.031926
  7 H s       :     0.849298  s :     0.849298
  8 H s       :     0.850711  s :     0.850711
  9 H s       :     0.858527  s :     0.858527
 10 C s       :     2.940240  s :     2.940240
      pz      :     1.118686  p :     3.202023
      px      :     1.120818
      py      :     0.962519
      dz2     :     0.015215  d :     0.095882
      dxz     :     0.009655
      dyz     :     0.023694
      dx2y2   :     0.030948
      dxy     :     0.016369
 11 H s       :     0.855787  s :     0.855787
 12 H s       :     0.850033  s :     0.850033
 13 H s       :     0.850537  s :     0.850537
 14 H s       :     0.835885  s :     0.835885
 15 H s       :     0.835986  s :     0.835986
 16 C s       :     3.004530  s :     3.004530
      pz      :     1.155837  p :     3.473945
      px      :     1.149769
      py      :     1.168339
      dz2     :     0.012816  d :     0.047932
      dxz     :     0.003309
      dyz     :     0.012021
      dx2y2   :     0.006642
      dxy     :     0.013144
 17 H s       :     0.858163  s :     0.858163
 18 H s       :     0.842024  s :     0.842024
 19 H s       :     0.864434  s :     0.864434
 20 H s       :     0.872098  s :     0.872098


                      *****************************
                      * MAYER POPULATION ANALYSIS *
                      *****************************

  NA   - Mulliken gross atomic population
  ZA   - Total nuclear charge
  QA   - Mulliken gross atomic charge
  VA   - Mayer's total valence
  BVA  - Mayer's bonded valence
  FA   - Mayer's free valence

  ATOM       NA         ZA         QA         VA         BVA        FA
  0 Sc    20.4077    21.0000     0.5923     0.7120     0.7120    -0.0000
  1 C      5.8142     6.0000     0.1858     3.1401     3.1401    -0.0000
  2 N      7.4084     7.0000    -0.4084     3.3889     3.3889    -0.0000
  3 C      6.0650     6.0000    -0.0650     3.7412     3.7412    -0.0000
  4 C      6.0657     6.0000    -0.0657     3.7419     3.7419    -0.0000
  5 N      7.4078     7.0000    -0.4078     3.3873     3.3873    -0.0000
  6 C      6.5061     6.0000    -0.5061     3.6340     3.6340    -0.0000
  7 H      0.7295     1.0000     0.2705     0.8906     0.8906    -0.0000
  8 H      0.7292     1.0000     0.2708     0.8868     0.8868    -0.0000
  9 H      0.7648     1.0000     0.2352     0.9138     0.9138    -0.0000
 10 C      6.5089     6.0000    -0.5089     3.6307     3.6307    -0.0000
 11 H      0.7593     1.0000     0.2407     0.9130     0.9130     0.0000
 12 H      0.7290     1.0000     0.2710     0.8878     0.8878    -0.0000
 13 H      0.7317     1.0000     0.2683     0.8901     0.8901     0.0000
 14 H      0.7042     1.0000     0.2958     0.8811     0.8811    -0.0000
 15 H      0.7040     1.0000     0.2960     0.8810     0.8810    -0.0000
 16 C      6.9294     6.0000    -0.9294     3.7042     3.7042     0.0000
 17 H      0.7532     1.0000     0.2468     0.9016     0.9016     0.0000
 18 H      0.7184     1.0000     0.2816     0.8950     0.8950     0.0000
 19 H      0.7712     1.0000     0.2288     0.9097     0.9097     0.0000
 20 H      0.7922     1.0000     0.2078     0.9155     0.9155     0.0000

  Mayer bond orders larger than 0.100000
B(  0-Sc,  1-C ) :   0.5574 B(  1-C ,  2-N ) :   1.2324 B(  1-C ,  5-N ) :   1.2322 
B(  2-N ,  3-C ) :   1.1316 B(  2-N , 10-C ) :   0.9205 B(  3-C ,  4-C ) :   1.6515 
B(  3-C , 14-H ) :   0.8820 B(  4-C ,  5-N ) :   1.1312 B(  4-C , 15-H ) :   0.8819 
B(  5-N ,  6-C ) :   0.9201 B(  6-C ,  7-H ) :   0.8998 B(  6-C ,  8-H ) :   0.8959 
B(  6-C ,  9-H ) :   0.9120 B( 10-C , 11-H ) :   0.9112 B( 10-C , 12-H ) :   0.8971 
B( 10-C , 13-H ) :   0.8991 B( 16-C , 17-H ) :   0.9176 B( 16-C , 18-H ) :   0.9091 
B( 16-C , 19-H ) :   0.9086 B( 16-C , 20-H ) :   0.9216 

-------
TIMINGS
-------

Total SCF time: 0 days 0 hours 1 min 19 sec 

Total time                  ....      79.352 sec
Sum of individual times     ....      78.387 sec  ( 98.8%)

Fock matrix formation       ....      77.041 sec  ( 97.1%)
  Split-RI-J                ....      13.785 sec  ( 17.9% of F)
  Chain of spheres X        ....      54.428 sec  ( 70.6% of F)
  XC integration            ....       8.317 sec  ( 10.8% of F)
    Basis function eval.    ....       2.990 sec  ( 35.9% of XC)
    Density eval.           ....       1.733 sec  ( 20.8% of XC)
    XC-Functional eval.     ....       0.462 sec  (  5.5% of XC)
    XC-Potential eval.      ....       2.278 sec  ( 27.4% of XC)
Diagonalization             ....       0.164 sec  (  0.2%)
Density matrix formation    ....       0.047 sec  (  0.1%)
Population analysis         ....       0.011 sec  (  0.0%)
Initial guess               ....       0.019 sec  (  0.0%)
Orbital Transformation      ....       0.233 sec  (  0.3%)
Orbital Orthonormalization  ....       0.000 sec  (  0.0%)
DIIS solution               ....       0.116 sec  (  0.1%)
Grid generation             ....       0.753 sec  (  0.9%)

Maximum memory used throughout the entire SCF-calculation: 70.1 MB


-------------------------------------------------------------------------------
                          DFT DISPERSION CORRECTION                            
                                                                               
                              DFTD3 V3.1  Rev 1                                
                          USING Becke-Johnson damping                          
-------------------------------------------------------------------------------
The PBEh-3c composite method is recognized
Using three-body term ABC
Active option DFTDOPT                   ...         4   

molecular C6(AA) [au] = 8204.395278 


            DFT-D V3
 parameters
 s6 scaling factor         :     1.0000 
 a1 scaling factor         :     0.4860 
 s8 scaling factor         :     0.0000 
 a2 scaling factor         :     4.5000 
 Damping factor alpha9(ATM):    16.0000 
 ad hoc parameters k1-k3   :    16.0000     1.3333    -4.0000 

 Edisp/kcal,au: -7.890671379723  -0.012574583913 
 E6   /kcal   :  -7.969868568 
 E8   /kcal   :  -0.000000000 
 E6(ABC)      :   0.079197188 
 % E8         :   0.000000000 
 % E6(ABC)    :  -1.003681235 

-------------------------   ----------------
Dispersion correction           -0.012574584
-------------------------   ----------------

------------------   -----------------
gCP correction             0.027378753
------------------   -----------------

-------------------------   --------------------
FINAL SINGLE POINT ENERGY     -1104.429658842591
-------------------------   --------------------



           ************************************************************
           *        Program running with 4 parallel MPI-processes     *
           *              working on a common directory               *
           ************************************************************
------------------------------------------------------------------------------
                         ORCA SCF GRADIENT CALCULATION
------------------------------------------------------------------------------

 ... reading COSX grid (gridx3)
Gradient of the Kohn-Sham DFT energy:
Kohn-Sham wavefunction type      ... RKS
Hartree-Fock exchange scaling    ...    0.420
Number of operators              ...    1
Number of atoms                  ...   21
Basis set dimensions             ...  175
Integral neglect threshold       ... 2.5e-11
Integral primitive cutoff        ... 2.5e-12
SHARK Integral package           ... ON

Nuc. rep. gradient       (SHARK) ... done (  0.0 sec)
HCore & Overlap gradient (SHARK) ... done (  0.1 sec)
RI-J gradient            (SHARK) ... done (  0.6 sec)
COSX-gradient                    ... done (  3.7 sec)
Exchange-correlation gradient    ... done
Dispersion correction            ... done
gCP correction                   ... done

------------------
CARTESIAN GRADIENT
------------------

   1   Sc  :    0.019671639   -0.009107999   -0.025918057
   2   C   :   -0.015513054    0.008987442    0.007977702
   3   N   :   -0.009647926   -0.010153227    0.008768153
   4   C   :   -0.004738352   -0.007693106    0.000599220
   5   C   :    0.004277004    0.007870238    0.001927452
   6   N   :    0.002818816    0.012341899    0.010607275
   7   C   :   -0.004287118   -0.005091550    0.004016104
   8   H   :   -0.000261944    0.001016357    0.002198983
   9   H   :   -0.001938912    0.001996197    0.001093696
  10   H   :    0.003704636   -0.002572890   -0.006910414
  11   C   :    0.001759442    0.006856901    0.004523361
  12   H   :    0.003286448   -0.001186433   -0.006688945
  13   H   :   -0.002366127    0.000197334    0.001223019
  14   H   :   -0.000609893   -0.000913570    0.002125403
  15   H   :    0.003345480    0.001600839   -0.003534292
  16   H   :    0.000391513   -0.003238264   -0.003931969
  17   C   :   -0.000937909    0.004083002   -0.000521105
  18   H   :   -0.000417963    0.000400016    0.000982052
  19   H   :    0.001716461   -0.002662621   -0.000607560
  20   H   :   -0.002028471   -0.003563979    0.002313532
  21   H   :    0.001802434    0.000758447   -0.000233765

Difference to translation invariance:
           :    0.0000262058   -0.0000749668    0.0000098452

Difference to rotation invariance:
           :   -0.0010409100    0.0006642211   -0.0001146061

Norm of the cartesian gradient     ...    0.0512857987
RMS gradient                       ...    0.0064614033
MAX gradient                       ...    0.0259180570

-------
TIMINGS
-------

Total SCF gradient time            ...        5.609 sec

One electron gradient       ....       0.102 sec  (  1.8%)
RI-J Coulomb gradient       ....       0.577 sec  ( 10.3%)
COSX gradient               ....       3.676 sec  ( 65.5%)
XC gradient                 ....       0.884 sec  ( 15.8%)

Maximum memory used throughout the entire SCFGRAD-calculation: 43.4 MB
------------------------------------------------------------------------------
                         ORCA GEOMETRY RELAXATION STEP
------------------------------------------------------------------------------

Reading the OPT-File                    .... done
Getting information on internals        .... done
Copying old internal coords+grads       .... done
Making the new internal coordinates     .... (new redundants).... done
Validating the new internal coordinates .... (new redundants).... done
[...]
 103   0.0000       0.858656        23.3652 
 104   0.0000       0.874445        23.7948 
 105   0.0000       0.881698        23.9922 
 106   0.0000       0.892270        24.2799 
 107   0.0000       0.896792        24.4030 
 108   0.0000       0.924108        25.1463 
 109   0.0000       0.933661        25.4062 
 110   0.0000       0.936543        25.4846 
 111   0.0000       0.944576        25.7032 
 112   0.0000       0.958282        26.0762 
 113   0.0000       0.963847        26.2276 
 114   0.0000       0.970149        26.3991 
 115   0.0000       0.982451        26.7339 
 116   0.0000       1.010150        27.4876 
 117   0.0000       1.012951        27.5638 
 118   0.0000       1.027153        27.9503 
 119   0.0000       1.046199        28.4685 
 120   0.0000       1.102664        30.0050 
 121   0.0000       1.115417        30.3520 
 122   0.0000       1.167378        31.7660 
 123   0.0000       1.216049        33.0904 
 124   0.0000       1.227969        33.4147 
 125   0.0000       1.281594        34.8740 
 126   0.0000       1.297166        35.2977 
 127   0.0000       1.334451        36.3123 
 128   0.0000       1.469245        39.9802 
 129   0.0000       1.480852        40.2960 
 130   0.0000       1.507467        41.0203 
 131   0.0000       1.576625        42.9022 
 132   0.0000       1.596448        43.4416 
 133   0.0000       1.603174        43.6246 
 134   0.0000       1.715486        46.6807 
 135   0.0000       1.754237        47.7352 
 136   0.0000       1.826453        49.7003 
 137   0.0000       1.847706        50.2786 
 138   0.0000       1.867911        50.8284 
 139   0.0000       1.874457        51.0066 
 140   0.0000       1.904239        51.8170 
 141   0.0000       1.934534        52.6413 
 142   0.0000       1.970389        53.6170 
 143   0.0000       2.040408        55.5223 
 144   0.0000       2.049963        55.7823 
 145   0.0000       2.103050        57.2269 
 146   0.0000       2.108385        57.3721 
 147   0.0000       2.134044        58.0703 
 148   0.0000       2.173593        59.1465 
 149   0.0000       2.194307        59.7101 
 150   0.0000       2.195553        59.7440 
 151   0.0000       2.206222        60.0344 
 152   0.0000       2.209910        60.1347 
 153   0.0000       2.216661        60.3184 
 154   0.0000       2.246745        61.1371 
 155   0.0000       2.278625        62.0045 
 156   0.0000       2.357324        64.1460 
 157   0.0000       2.365061        64.3566 
 158   0.0000       2.416991        65.7697 
 159   0.0000       2.513447        68.3944 
 160   0.0000       2.530406        68.8558 
 161   0.0000       2.651221        72.1434 
 162   0.0000       2.709340        73.7249 
 163   0.0000       2.727390        74.2160 
 164   0.0000       2.948082        80.2214 
 165   0.0000       3.010780        81.9275 
 166   0.0000       3.066474        83.4430 
 167   0.0000      13.358337       363.4988 
 168   0.0000      13.560648       369.0040 
 169   0.0000      13.599559       370.0628 
 170   0.0000      13.655810       371.5935 
 171   0.0000      13.766989       374.6188 
 172   0.0000      13.955879       379.7588 
 173   0.0000      19.101023       519.7653 
 174   0.0000      19.330013       525.9964 

                    ********************************
                    * MULLIKEN POPULATION ANALYSIS *
                    ********************************

-----------------------
MULLIKEN ATOMIC CHARGES
-----------------------
   0 Sc:    0.525310
   1 C :    0.204947
   2 N :   -0.415035
   3 C :   -0.060996
   4 C :   -0.061487
   5 N :   -0.414017
   6 C :   -0.523256
   7 H :    0.282717
   8 H :    0.283641
   9 H :    0.253373
  10 C :   -0.518491
  11 H :    0.254773
  12 H :    0.280235
  13 H :    0.280053
  14 H :    0.306611
  15 H :    0.306619
  16 C :   -0.907709
  17 H :    0.248793
  18 H :    0.262334
  19 H :    0.206159
  20 H :    0.205426
Sum of atomic charges:    1.0000000

--------------------------------
MULLIKEN REDUCED ORBITAL CHARGES
--------------------------------
  0 Scs       :     7.298343  s :     7.298343
      pz      :     4.062263  p :    12.123331
      px      :     4.035477
      py      :     4.025591
      dz2     :     0.205655  d :     1.041976
      dxz     :     0.482966
      dyz     :     0.150387
      dx2y2   :     0.044994
      dxy     :     0.157973
      f0      :     0.001251  f :     0.011040
      f+1     :     0.004399
      f-1     :     0.001490
      f+2     :     0.001234
      f-2     :     0.002104
      f+3     :     0.000200
      f-3     :     0.000361
  1 C s       :     3.183197  s :     3.183197
      pz      :     0.973349  p :     2.545444
      px      :     0.864444
      py      :     0.707651
      dz2     :     0.008141  d :     0.066412
      dxz     :     0.010066
      dyz     :     0.019306
      dx2y2   :     0.016554
      dxy     :     0.012344
  2 N s       :     3.536083  s :     3.536083
      pz      :     1.275150  p :     3.826017
      px      :     1.317367
      py      :     1.233500
      dz2     :     0.011795  d :     0.052936
      dxz     :     0.006913
      dyz     :     0.012064
      dx2y2   :     0.011213
      dxy     :     0.010950
  3 C s       :     3.163093  s :     3.163093
      pz      :     0.905425  p :     2.843183
      px      :     1.035703
      py      :     0.902055
      dz2     :     0.010733  d :     0.054720
      dxz     :     0.010467
      dyz     :     0.013117
      dx2y2   :     0.008035
      dxy     :     0.012368
  4 C s       :     3.163569  s :     3.163569
      pz      :     0.906991  p :     2.843151
      px      :     0.886121
      py      :     1.050039
      dz2     :     0.010738  d :     0.054767
      dxz     :     0.011487
      dyz     :     0.012060
      dx2y2   :     0.012900
      dxy     :     0.007582
  5 N s       :     3.536471  s :     3.536471
      pz      :     1.274056  p :     3.824649
      px      :     1.327303
      py      :     1.223290
      dz2     :     0.011755  d :     0.052896
      dxz     :     0.008630
      dyz     :     0.010420
      dx2y2   :     0.010449
      dxy     :     0.011641
  6 C s       :     3.375277  s :     3.375277
      pz      :     1.163949  p :     3.099259
      px      :     1.011151
      py      :     0.924160
      dz2     :     0.005860  d :     0.048720
      dxz     :     0.010953
      dyz     :     0.010037
      dx2y2   :     0.006304
      dxy     :     0.015566
  7 H s       :     0.717283  s :     0.717283
  8 H s       :     0.716359  s :     0.716359
  9 H s       :     0.746627  s :     0.746627
 10 C s       :     3.373883  s :     3.373883
      pz      :     1.161264  p :     3.095943
      px      :     1.135361
      py      :     0.799319
      dz2     :     0.006278  d :     0.048665
      dxz     :     0.008420
      dyz     :     0.011836
      dx2y2   :     0.014032
      dxy     :     0.008098
 11 H s       :     0.745227  s :     0.745227
 12 H s       :     0.719765  s :     0.719765
 13 H s       :     0.719947  s :     0.719947
 14 H s       :     0.693389  s :     0.693389
 15 H s       :     0.693381  s :     0.693381
 16 C s       :     3.449492  s :     3.449492
      pz      :     1.138759  p :     3.428384
      px      :     1.115806
      py      :     1.173818
      dz2     :     0.007425  d :     0.029834
      dxz     :     0.002317
      dyz     :     0.007715
      dx2y2   :     0.007927
      dxy     :     0.004450
 17 H s       :     0.751207  s :     0.751207
 18 H s       :     0.737666  s :     0.737666
 19 H s       :     0.793841  s :     0.793841
 20 H s       :     0.794574  s :     0.794574


                     *******************************
                     * LOEWDIN POPULATION ANALYSIS *
                     *******************************

----------------------
LOEWDIN ATOMIC CHARGES
----------------------
   0 Sc:    0.372709
   1 C :   -0.049593
   2 N :    0.010972
   3 C :   -0.075128
   4 C :   -0.074847
   5 N :    0.011175
   6 C :   -0.236958
   7 H :    0.157515
   8 H :    0.155488
   9 H :    0.149888
  10 C :   -0.236783
  11 H :    0.150331
  12 H :    0.155176
  13 H :    0.157085
  14 H :    0.170622
  15 H :    0.170587
  16 C :   -0.527084
  17 H :    0.143323
  18 H :    0.149804
  19 H :    0.121830
  20 H :    0.123890

-------------------------------
LOEWDIN REDUCED ORBITAL CHARGES
-------------------------------
  0 Scs       :     7.239427  s :     7.239427
      pz      :     4.108891  p :    12.198313
      px      :     4.056781
      py      :     4.032641
      dz2     :     0.238309  d :     1.159363
      dxz     :     0.535987
      dyz     :     0.166185
      dx2y2   :     0.049751
      dxy     :     0.169132
      f0      :     0.003657  f :     0.030188
      f+1     :     0.012067
      f-1     :     0.003903
      f+2     :     0.003199
      f-2     :     0.005842
      f+3     :     0.000404
      f-3     :     0.001116
  1 C s       :     2.932456  s :     2.932456
      pz      :     1.096282  p :     2.971503
      px      :     0.974594
      py      :     0.900627
      dz2     :     0.015902  d :     0.145634
      dxz     :     0.020569
      dyz     :     0.042187
      dx2y2   :     0.037277
      dxy     :     0.029699
  2 N s       :     3.043861  s :     3.043861
      pz      :     1.279286  p :     3.818280
      px      :     1.305863
      py      :     1.233131
      dz2     :     0.027629  d :     0.126888
      dxz     :     0.018063
      dyz     :     0.029367
      dx2y2   :     0.025735
      dxy     :     0.026094
  3 C s       :     2.884283  s :     2.884283
      pz      :     0.986344  p :     3.069322
      px      :     1.056146
      py      :     1.026831
      dz2     :     0.023912  d :     0.121523
      dxz     :     0.020483
      dyz     :     0.030774
      dx2y2   :     0.018282
      dxy     :     0.028071
  4 C s       :     2.884361  s :     2.884361
      pz      :     0.986343  p :     3.068872
      px      :     0.986445
      py      :     1.096084
      dz2     :     0.023914  d :     0.121614
      dxz     :     0.026608
      dyz     :     0.024591
      dx2y2   :     0.027967
      dxy     :     0.018534
  5 N s       :     3.042986  s :     3.042986
      pz      :     1.279185  p :     3.818981
      px      :     1.302683
      py      :     1.237113
      dz2     :     0.027560  d :     0.126858
      dxz     :     0.020414
      dyz     :     0.027225
      dx2y2   :     0.024775
      dxy     :     0.026885
  6 C s       :     2.941643  s :     2.941643
      pz      :     1.149739  p :     3.201868
      px      :     1.054736
      py      :     0.997394
      dz2     :     0.010386  d :     0.093446
      dxz     :     0.019447
      dyz     :     0.019244
      dx2y2   :     0.013485
      dxy     :     0.030885
  7 H s       :     0.842485  s :     0.842485
  8 H s       :     0.844512  s :     0.844512
  9 H s       :     0.850112  s :     0.850112
 10 C s       :     2.942143  s :     2.942143
      pz      :     1.150010  p :     3.201229
      px      :     1.134137
      py      :     0.917082
      dz2     :     0.011173  d :     0.093411
      dxz     :     0.014008
      dyz     :     0.023319
      dx2y2   :     0.028057
      dxy     :     0.016853
 11 H s       :     0.849669  s :     0.849669
 12 H s       :     0.844824  s :     0.844824
 13 H s       :     0.842915  s :     0.842915
 14 H s       :     0.829378  s :     0.829378
 15 H s       :     0.829413  s :     0.829413
 16 C s       :     3.002424  s :     3.002424
      pz      :     1.156455  p :     3.476294
      px      :     1.144921
      py      :     1.174918
      dz2     :     0.012091  d :     0.048366
      dxz     :     0.003905
      dyz     :     0.012378
      dx2y2   :     0.012820
      dxy     :     0.007173
 17 H s       :     0.856677  s :     0.856677
 18 H s       :     0.850196  s :     0.850196
 19 H s       :     0.878170  s :     0.878170
 20 H s       :     0.876110  s :     0.876110


                      *****************************
                      * MAYER POPULATION ANALYSIS *
                      *****************************

  NA   - Mulliken gross atomic population
  ZA   - Total nuclear charge
  QA   - Mulliken gross atomic charge
  VA   - Mayer's total valence
  BVA  - Mayer's bonded valence
  FA   - Mayer's free valence

  ATOM       NA         ZA         QA         VA         BVA        FA
  0 Sc    20.4747    21.0000     0.5253     0.8802     0.8802    -0.0000
  1 C      5.7951     6.0000     0.2049     3.2374     3.2374    -0.0000
  2 N      7.4150     7.0000    -0.4150     3.4117     3.4117    -0.0000
  3 C      6.0610     6.0000    -0.0610     3.7414     3.7414     0.0000
  4 C      6.0615     6.0000    -0.0615     3.7416     3.7416     0.0000
  5 N      7.4140     7.0000    -0.4140     3.4066     3.4066    -0.0000
  6 C      6.5233     6.0000    -0.5233     3.5932     3.5932    -0.0000
  7 H      0.7173     1.0000     0.2827     0.8863     0.8863    -0.0000
  8 H      0.7164     1.0000     0.2836     0.8805     0.8805    -0.0000
  9 H      0.7466     1.0000     0.2534     0.9089     0.9089    -0.0000
 10 C      6.5185     6.0000    -0.5185     3.5940     3.5940    -0.0000
 11 H      0.7452     1.0000     0.2548     0.9092     0.9092     0.0000
 12 H      0.7198     1.0000     0.2802     0.8829     0.8829    -0.0000
 13 H      0.7199     1.0000     0.2801     0.8869     0.8869    -0.0000
 14 H      0.6934     1.0000     0.3066     0.8764     0.8764    -0.0000
 15 H      0.6934     1.0000     0.3066     0.8764     0.8764    -0.0000
 16 C      6.9077     6.0000    -0.9077     3.7261     3.7261     0.0000
 17 H      0.7512     1.0000     0.2488     0.9056     0.9056     0.0000
 18 H      0.7377     1.0000     0.2623     0.9019     0.9019     0.0000
 19 H      0.7938     1.0000     0.2062     0.9165     0.9165     0.0000
 20 H      0.7946     1.0000     0.2054     0.9184     0.9184     0.0000

  Mayer bond orders larger than 0.100000
B(  0-Sc,  1-C ) :   0.6963 B(  1-C ,  2-N ) :   1.2274 B(  1-C ,  5-N ) :   1.2226 
B(  2-N ,  3-C ) :   1.1618 B(  2-N , 10-C ) :   0.9095 B(  3-C ,  4-C ) :   1.6223 
B(  3-C , 14-H ) :   0.8770 B(  4-C ,  5-N ) :   1.1614 B(  4-C , 15-H ) :   0.8770 
B(  5-N ,  6-C ) :   0.9091 B(  6-C ,  7-H ) :   0.8953 B(  6-C ,  8-H ) :   0.8878 
B(  6-C ,  9-H ) :   0.8952 B( 10-C , 11-H ) :   0.8955 B( 10-C , 12-H ) :   0.8922 
B( 10-C , 13-H ) :   0.8956 B( 16-C , 17-H ) :   0.9239 B( 16-C , 18-H ) :   0.9187 
B( 16-C , 19-H ) :   0.9284 B( 16-C , 20-H ) :   0.9302 

-------
TIMINGS
-------

Total SCF time: 0 days 0 hours 0 min 21 sec 

Total time                  ....      21.688 sec
Sum of individual times     ....      21.312 sec  ( 98.3%)

Fock matrix formation       ....      20.378 sec  ( 94.0%)
  Split-RI-J                ....       1.975 sec  (  9.7% of F)
  Chain of spheres X        ....      16.557 sec  ( 81.2% of F)
  XC integration            ....       1.814 sec  (  8.9% of F)
    Basis function eval.    ....       0.855 sec  ( 47.1% of XC)
    Density eval.           ....       0.376 sec  ( 20.7% of XC)
    XC-Functional eval.     ....       0.212 sec  ( 11.7% of XC)
    XC-Potential eval.      ....       0.263 sec  ( 14.5% of XC)
Diagonalization             ....       0.100 sec  (  0.5%)
Density matrix formation    ....       0.005 sec  (  0.0%)
Population analysis         ....       0.030 sec  (  0.1%)
Initial guess               ....       0.008 sec  (  0.0%)
Orbital Transformation      ....       0.000 sec  (  0.0%)
Orbital Orthonormalization  ....       0.005 sec  (  0.0%)
DIIS solution               ....       0.070 sec  (  0.3%)
Grid generation             ....       0.720 sec  (  3.3%)

Maximum memory used throughout the entire SCF-calculation: 70.2 MB


-------------------------------------------------------------------------------
                          DFT DISPERSION CORRECTION                            
                                                                               
                              DFTD3 V3.1  Rev 1                                
                          USING Becke-Johnson damping                          
-------------------------------------------------------------------------------
The PBEh-3c composite method is recognized
Using three-body term ABC
Active option DFTDOPT                   ...         4   

molecular C6(AA) [au] = 5447.842769 


            DFT-D V3
 parameters
 s6 scaling factor         :     1.0000 
 a1 scaling factor         :     0.4860 
 s8 scaling factor         :     0.0000 
 a2 scaling factor         :     4.5000 
 Damping factor alpha9(ATM):    16.0000 
 ad hoc parameters k1-k3   :    16.0000     1.3333    -4.0000 

 Edisp/kcal,au: -6.909383376288  -0.011010802107 
 E6   /kcal   :  -6.966437662 
 E8   /kcal   :  -0.000000000 
 E6(ABC)      :   0.057054286 
 % E8         :   0.000000000 
 % E6(ABC)    :  -0.825750758 

-------------------------   ----------------
Dispersion correction           -0.011010802
-------------------------   ----------------

------------------   -----------------
gCP correction             0.027680711
------------------   -----------------

-------------------------   --------------------
FINAL SINGLE POINT ENERGY     -1104.454310591751
-------------------------   --------------------

                                *** OPTIMIZATION RUN DONE ***

                            ***************************************
                            *     ORCA property calculations      *
                            ***************************************

                                    ---------------------
                                    Active property flags
                                    ---------------------
   (+) Dipole Moment


------------------------------------------------------------------------------
                       ORCA ELECTRIC PROPERTIES CALCULATION
------------------------------------------------------------------------------

Dipole Moment Calculation                       ... on
Quadrupole Moment Calculation                   ... off
Polarizability Calculation                      ... off
GBWName                                         ... reaction-5-rct-pbeh3c-orca_opt.gbw
Electron density                                ... reaction-5-rct-pbeh3c-orca_opt.scfp
The origin for moment calculation is the CENTER OF MASS  = ( 0.901772, -0.968569 -0.241238)

-------------
DIPOLE MOMENT
-------------
                                X             Y             Z
Electronic contribution:     10.61010     -11.37913      -3.03018
Nuclear contribution   :    -10.31888      10.97571       3.02345
                        -----------------------------------------
Total Dipole Moment    :      0.29122      -0.40342      -0.00672
                        -----------------------------------------
Magnitude (a.u.)       :      0.49759
Magnitude (Debye)      :      1.26478



--------------------
Rotational spectrum 
--------------------
 
Rotational constants in cm-1:     0.039609     0.031023     0.023358 
Rotational constants in MHz :  1187.441852   930.054589   700.249635 

 Dipole components along the rotational axes: 
x,y,z [a.u.] :    -0.074177    -0.418167    -0.259294 
x,y,z [Debye]:    -0.188543    -1.062897    -0.659074 

 

Timings for individual modules:

Sum of individual times         ...     1116.299 sec (=  18.605 min)
GTO integral calculation        ...       16.589 sec (=   0.276 min)   1.5 %
SCF iterations                  ...      915.465 sec (=  15.258 min)  82.0 %
SCF Gradient evaluation         ...      181.717 sec (=   3.029 min)  16.3 %
Geometry relaxation             ...        2.528 sec (=   0.042 min)   0.2 %
                             ****ORCA TERMINATED NORMALLY****
TOTAL RUN TIME: 0 days 0 hours 18 minutes 49 seconds 306 msec
