
                                 *****************
                                 * O   R   C   A *
                                 *****************

                                            #,                                       
                                            ###                                      
                                            ####                                     
                                            #####                                    
                                            ######                                   
                                           ########,                                 
                                     ,,################,,,,,                         
                               ,,#################################,,                 
                          ,,##########################################,,             
                       ,#########################################, ''#####,          
                    ,#############################################,,   '####,        
                  ,##################################################,,,,####,       
                ,###########''''           ''''###############################       
              ,#####''   ,,,,##########,,,,          '''####'''          '####       
            ,##' ,,,,###########################,,,                        '##       
           ' ,,###''''                  '''############,,,                           
         ,,##''                                '''############,,,,        ,,,,,,###''
      ,#''                                            '''#######################'''  
     '                                                          ''''####''''         
             ,#######,   #######,   ,#######,      ##                                
            ,#'     '#,  ##    ##  ,#'     '#,    #''#        ######   ,####,        
            ##       ##  ##   ,#'  ##            #'  '#       #        #'  '#        
            ##       ##  #######   ##           ,######,      #####,   #    #        
            '#,     ,#'  ##    ##  '#,     ,#' ,#      #,         ##   #,  ,#        
             '#######'   ##     ##  '#######'  #'      '#     #####' # '####'        



                  #######################################################
                  #                        -***-                        #
                  #          Department of theory and spectroscopy      #
                  #    Directorship and core code : Frank Neese         #
                  #        Max Planck Institute fuer Kohlenforschung    #
                  #                Kaiser Wilhelm Platz 1               #
                  #                 D-45470 Muelheim/Ruhr               #
                  #                      Germany                        #
                  #                                                     #
                  #                  All rights reserved                #
                  #                        -***-                        #
                  #######################################################


                         Program Version 5.0.3 -  RELEASE  -


 With contributions from (in alphabetic order):
   Daniel Aravena         : Magnetic Suceptibility
   Michael Atanasov       : Ab Initio Ligand Field Theory (pilot matlab implementation)
   Alexander A. Auer      : GIAO ZORA, VPT2 properties, NMR spectrum
   Ute Becker             : Parallelization
   Giovanni Bistoni       : ED, misc. LED, open-shell LED, HFLD
   Martin Brehm           : Molecular dynamics
   Dmytro Bykov           : SCF Hessian
   Vijay G. Chilkuri      : MRCI spin determinant printing, contributions to CSF-ICE
   Dipayan Datta          : RHF DLPNO-CCSD density
   Achintya Kumar Dutta   : EOM-CC, STEOM-CC
   Dmitry Ganyushin       : Spin-Orbit,Spin-Spin,Magnetic field MRCI
   Miquel Garcia          : C-PCM and meta-GGA Hessian, CC/C-PCM, Gaussian charge scheme
   Yang Guo               : DLPNO-NEVPT2, F12-NEVPT2, CIM, IAO-localization
   Andreas Hansen         : Spin unrestricted coupled pair/coupled cluster methods
   Benjamin Helmich-Paris : MC-RPA, TRAH-SCF, COSX integrals
   Lee Huntington         : MR-EOM, pCC
   Robert Izsak           : Overlap fitted RIJCOSX, COSX-SCS-MP3, EOM
   Marcus Kettner         : VPT2
   Christian Kollmar      : KDIIS, OOCD, Brueckner-CCSD(T), CCSD density, CASPT2, CASPT2-K
   Simone Kossmann        : Meta GGA functionals, TD-DFT gradient, OOMP2, MP2 Hessian
   Martin Krupicka        : Initial AUTO-CI
   Lucas Lang             : DCDCAS
   Marvin Lechner         : AUTO-CI (C++ implementation), FIC-MRCC
   Dagmar Lenk            : GEPOL surface, SMD
   Dimitrios Liakos       : Extrapolation schemes; Compound Job, initial MDCI parallelization
   Dimitrios Manganas     : Further ROCIS development; embedding schemes
   Dimitrios Pantazis     : SARC Basis sets
   Anastasios Papadopoulos: AUTO-CI, single reference methods and gradients
   Taras Petrenko         : DFT Hessian,TD-DFT gradient, ASA, ECA, R-Raman, ABS, FL, XAS/XES, NRVS
   Peter Pinski           : DLPNO-MP2, DLPNO-MP2 Gradient
   Christoph Reimann      : Effective Core Potentials
   Marius Retegan         : Local ZFS, SOC
   Christoph Riplinger    : Optimizer, TS searches, QM/MM, DLPNO-CCSD(T), (RO)-DLPNO pert. Triples
   Tobias Risthaus        : Range-separated hybrids, TD-DFT gradient, RPA, STAB
   Michael Roemelt        : Original ROCIS implementation
   Masaaki Saitow         : Open-shell DLPNO-CCSD energy and density
   Barbara Sandhoefer     : DKH picture change effects
   Avijit Sen             : IP-ROCIS
   Kantharuban Sivalingam : CASSCF convergence, NEVPT2, FIC-MRCI
   Bernardo de Souza      : ESD, SOC TD-DFT
   Georgi Stoychev        : AutoAux, RI-MP2 NMR, DLPNO-MP2 response
   Willem Van den Heuvel  : Paramagnetic NMR
   Boris Wezisla          : Elementary symmetry handling
   Frank Wennmohs         : Technical directorship


 We gratefully acknowledge several colleagues who have allowed us to
 interface, adapt or use parts of their codes:
   Stefan Grimme, W. Hujo, H. Kruse, P. Pracht,  : VdW corrections, initial TS optimization,
                  C. Bannwarth, S. Ehlert          DFT functionals, gCP, sTDA/sTD-DF
   Ed Valeev, F. Pavosevic, A. Kumar             : LibInt (2-el integral package), F12 methods
   Garnet Chan, S. Sharma, J. Yang, R. Olivares  : DMRG
   Ulf Ekstrom                                   : XCFun DFT Library
   Mihaly Kallay                                 : mrcc  (arbitrary order and MRCC methods)
   Jiri Pittner, Ondrej Demel                    : Mk-CCSD
   Frank Weinhold                                : gennbo (NPA and NBO analysis)
   Christopher J. Cramer and Donald G. Truhlar   : smd solvation model
   Lars Goerigk                                  : TD-DFT with DH, B97 family of functionals
   V. Asgeirsson, H. Jonsson                     : NEB implementation
   FAccTs GmbH                                   : IRC, NEB, NEB-TS, DLPNO-Multilevel, CI-OPT
                                                   MM, QMMM, 2- and 3-layer-ONIOM, Crystal-QMMM,
                                                   LR-CPCM, SF, NACMEs, symmetry and pop. for TD-DFT,
                                                   nearIR, NL-DFT gradient (VV10), updates on ESD,
                                                   ML-optimized integration grids
   S Lehtola, MJT Oliveira, MAL Marques          : LibXC Library
   Liviu Ungur et al                             : ANISO software


 Your calculation uses the libint2 library for the computation of 2-el integrals
 For citations please refer to: http://libint.valeyev.net

 Your ORCA version has been built with support for libXC version: 5.1.0
 For citations please refer to: https://tddft.org/programs/libxc/

 This ORCA versions uses:
   CBLAS   interface :  Fast vector & matrix operations
   LAPACKE interface :  Fast linear algebra routines
   SCALAPACK package :  Parallel linear algebra routines
   Shared memory     :  Shared parallel matrices
   BLAS/LAPACK       :  OpenBLAS 0.3.15  USE64BITINT DYNAMIC_ARCH NO_AFFINITY Prescott SINGLE_THREADED
        Core in use  :  Prescott
   Copyright (c) 2011-2014, The OpenBLAS Project


Your calculation utilizes the geometrical counterpoise correction gCP
Please cite in your paper:
H.Kruse, S. Grimme J.Chem.Phys., 136, (2012), 154101 
   

Your calculation utilizes the atom-pairwise dispersion correction
with the Becke-Johnson damping scheme (D3BJ)
Cite in your paper:
S.Grimme, S.Ehrlich, L.Goerigk, J Comput Chem, (2011), 32, 1456–1465 
S.Grimme, J.Antony, S.Ehrlich and H.Krieg, J.Chem.Phys., 132, (2010), 154104 
   

Your calculation employs the composite approach PBEh-3c.
Please cite in your paper:
S. Grimme, J. G. Brandenburg, C. Bannwarth, A. Hansen J.Chem.Phys., 143, (2015), 054107 
   

================================================================================

cite the ECPs for Pd [Def2-ECP] as follows:
Ce-Yb(ecp-28): M. Dolg, H. Stoll, H.Preuss, J. Chem. Phys., 1989, 90, 1730-1734.
Y-Cd(ecp-28), Hf-Hg(ecp-46): D. Andrae,U. Haeussermann, M. Dolg, H. Stoll, H. Preuss, Theor. Chim. Acta, 1990, 77, 123-141.
In-Sb(ecp-28), Tl-Bi(ecp-46): B. Metz, H. Stoll, M. Dolg, J. Chem. Phys., 2000, 113, 2563-2569.
Te-Xe(ecp-28), Po-Rn(ecp-46): K. A. Peterson, D. Figgen, E. Goll, H. Stoll, M. Dolg, J. Chem. Phys., 2003, 119, 11113-11123.
Rb(ecp-28), Cs(ecp-46): T. Leininger, A. Nicklass, W. Kuechle, H. Stoll, M. Dolg, A. Bergner, Chem. Phys. Lett., 1996, 255, 274-280.
Sr(ecp-28), Ba(ecp-46): M. Kaupp, P. V. Schleyer, H. Stoll and H. Preuss, J. Chem. Phys., 1991, 94, 1360-1366.
La(ecp-46): M. Dolg, H. Stoll, A. Savin, H. Preuss, Theor. Chim. Acta, 1989, 75, 173-194.
Lu(ecp-28): X. Cao, M. Dolg, J. Chem. Phys., 2001, 115, 7348-7355.

ECP parameters for Pd [Def2-ECP] have been obtained from:
TURBOMOLE (7.0.2)

----- Orbital basis set information -----
Your calculation utilizes the basis: def2-mSVP

----- AuxJ basis set information -----
Your calculation utilizes the auxiliary basis: def2/J
   F. Weigend, Phys. Chem. Chem. Phys. 8, 1057 (2006).

================================================================================
                                        WARNINGS
                       Please study these warnings very carefully!
================================================================================


INFO   : the flag for use of the SHARK integral package has been found!

================================================================================
                                       INPUT FILE
================================================================================
NAME = 3_12_orca.inp
|  1> ! EnGrad PBEh-3c
|  2> %output 
|  3> xyzfile=True 
|  4> end 
|  5> %scf 
|  6> maxiter 250 
|  7> end
|  8> %output
|  9> Print[P_Hirshfeld] = 1
| 10> end
| 11> % maxcore
| 12> 4000
| 13> *xyz -1 1
| 14> C   -2.32157924  -0.15970222   0.75294474 
| 15> C   -1.90327945   1.01212378   1.39454282 
| 16> C   -3.66813261  -0.54003178   0.87175292 
| 17> C   -4.63746615   0.40401404   1.25604329 
| 18> C   -4.23279357   1.61526153   1.81337874 
| 19> C   -2.87842861   1.90999765   1.88396045 
| 20> H   -2.04266934  -1.48226081  -1.14713869 
| 21> H   -3.98278829  -1.46771871   0.42130449 
| 22> H   -2.56268989   2.76877999   2.45122859 
| 23> H   -5.70354357   0.16161872   1.16780387 
| 24> H   -4.96865862   2.35593183   2.13510569 
| 25> C   -0.47521770   1.48704581   1.47388224 
| 26> C    0.62633207   0.46568300   1.79748988 
| 27> H   -0.45950757   2.25859622   2.23980566 
| 28> H   -0.18360720   2.01198446   0.56556956 
| 29> C    1.72646297   0.55643070   0.78424474 
| 30> H    0.22292273  -0.54256976   1.81806687 
| 31> H    1.03104858   0.66814397   2.79384429 
| 32> C    1.66545320  -0.13591898  -0.43608236 
| 33> C    2.68847987   0.12300215  -1.36623956 
| 34> C    3.68316568   1.08668296  -1.11674540 
| 35> C    2.81937389   1.39632629   1.06814461 
| 36> C    3.74335685   1.75015015   0.09015201 
| 37> H    2.70665953  -0.38204827  -2.31989877 
| 38> H    4.43025759   1.31219280  -1.87778627 
| 39> H    2.91175803   1.85583723   2.05455803 
| 40> H    4.55932237   2.44504181   0.31819598 
| 41> Pd   0.12735563  -1.45686647  -0.79678326 
| 42> Br  -1.62741693  -3.46885963  -0.85273847 
| 43> P    1.41864612  -2.95234783   0.11074379 
| 44> H    0.90213857  -3.53538749   1.26465760 
| 45> C    0.45977863  -1.29678741  -3.84026115 
| 46> O    1.46706005  -1.68096758  -4.22688891 
| 47> O   -0.44238368  -1.84293892  -3.12786363 
| 48> O   -0.08880466  -0.10444924  -4.42777482 
| 49> H    2.73124437  -2.74237711   0.53875083 
| 50> H    1.59495812  -4.11709538  -0.63944283 
| 51> H    0.64916415   0.25914123  -4.89395265 
| 52> *
| 53> 
| 54>                          ****END OF INPUT****
================================================================================

                     *******************************
                     * Energy+Gradient Calculation *
                     *******************************

---------------------------------
CARTESIAN COORDINATES (ANGSTROEM)
---------------------------------
  C     -2.321579   -0.159702    0.752945
  C     -1.903279    1.012124    1.394543
  C     -3.668133   -0.540032    0.871753
  C     -4.637466    0.404014    1.256043
  C     -4.232794    1.615262    1.813379
  C     -2.878429    1.909998    1.883960
  H     -2.042669   -1.482261   -1.147139
  H     -3.982788   -1.467719    0.421304
  H     -2.562690    2.768780    2.451229
  H     -5.703544    0.161619    1.167804
  H     -4.968659    2.355932    2.135106
  C     -0.475218    1.487046    1.473882
  C      0.626332    0.465683    1.797490
  H     -0.459508    2.258596    2.239806
  H     -0.183607    2.011984    0.565570
  C      1.726463    0.556431    0.784245
  H      0.222923   -0.542570    1.818067
  H      1.031049    0.668144    2.793844
  C      1.665453   -0.135919   -0.436082
  C      2.688480    0.123002   -1.366240
  C      3.683166    1.086683   -1.116745
  C      2.819374    1.396326    1.068145
  C      3.743357    1.750150    0.090152
  H      2.706660   -0.382048   -2.319899
  H      4.430258    1.312193   -1.877786
  H      2.911758    1.855837    2.054558
  H      4.559322    2.445042    0.318196
  Pd     0.127356   -1.456866   -0.796783
  Br    -1.627417   -3.468860   -0.852738
  P      1.418646   -2.952348    0.110744
  H      0.902139   -3.535387    1.264658
  C      0.459779   -1.296787   -3.840261
  O      1.467060   -1.680968   -4.226889
  O     -0.442384   -1.842939   -3.127864
  O     -0.088805   -0.104449   -4.427775
  H      2.731244   -2.742377    0.538751
  H      1.594958   -4.117095   -0.639443
  H      0.649164    0.259141   -4.893953

----------------------------
CARTESIAN COORDINATES (A.U.)
----------------------------
  NO LB      ZA    FRAG     MASS         X           Y           Z
   0 C     6.0000    0    12.011   -4.387149   -0.301793    1.422859
   1 C     6.0000    0    12.011   -3.596677    1.912637    2.635304
   2 C     6.0000    0    12.011   -6.931766   -1.020512    1.647374
   3 C     6.0000    0    12.011   -8.763541    0.763476    2.373578
   4 C     6.0000    0    12.011   -7.998821    3.052402    3.426789
   5 C     6.0000    0    12.011   -5.439442    3.609372    3.560169
   6 H     1.0000    0     1.008   -3.860086   -2.801067   -2.167778
   7 H     1.0000    0     1.008   -7.526379   -2.773586    0.796150
   8 H     1.0000    0     1.008   -4.842782    5.232236    4.632151
   9 H     1.0000    0     1.008  -10.778135    0.305415    2.206829
  10 H     1.0000    0     1.008   -9.389404    4.452066    4.034765
  11 C     6.0000    0    12.011   -0.898031    2.810109    2.785234
  12 C     6.0000    0    12.011    1.183596    0.880013    3.396764
  13 H     1.0000    0     1.008   -0.868343    4.268128    4.232619
  14 H     1.0000    0     1.008   -0.346967    3.802100    1.068772
  15 C     6.0000    0    12.011    3.262542    1.051502    1.482008
  16 H     1.0000    0     1.008    0.421263   -1.025308    3.435648
  17 H     1.0000    0     1.008    1.948399    1.262609    5.279601
  18 C     6.0000    0    12.011    3.147250   -0.256850   -0.824076
  19 C     6.0000    0    12.011    5.080491    0.232440   -2.581819
  20 C     6.0000    0    12.011    6.960174    2.053533   -2.110343
  21 C     6.0000    0    12.011    5.327845    2.638674    2.018501
  22 C     6.0000    0    12.011    7.073919    3.307304    0.170363
  23 H     1.0000    0     1.008    5.114845   -0.721967   -4.383973
  24 H     1.0000    0     1.008    8.371974    2.479685   -3.548502
  25 H     1.0000    0     1.008    5.502425    3.507024    3.882552
  26 H     1.0000    0     1.008    8.615871    4.620459    0.601303
  27 Pd   18.0000*   0   106.400    0.240667   -2.753079   -1.505702
  28 Br   35.0000    0    79.900   -3.075372   -6.555195   -1.611442
  29 P    15.0000    0    30.974    2.680853   -5.579129    0.209275
  30 H     1.0000    0     1.008    1.704795   -6.680914    2.389857
  31 C     6.0000    0    12.011    0.868856   -2.450573   -7.257042
  32 O     8.0000    0    15.999    2.772342   -3.176568   -7.987662
  33 O     8.0000    0    15.999   -0.835984   -3.482650   -5.910806
  34 O     8.0000    0    15.999   -0.167816   -0.197380   -8.367282
  35 H     1.0000    0     1.008    5.161304   -5.182342    1.018092
  36 H     1.0000    0     1.008    3.014034   -7.780183   -1.208372
  37 H     1.0000    0     1.008    1.226742    0.489706   -9.248230
* core charge reduced due to ECP

--------------------------------
INTERNAL COORDINATES (ANGSTROEM)
--------------------------------
 C      0   0   0     0.000000000000     0.00000000     0.00000000
 C      1   0   0     1.399928207034     0.00000000     0.00000000
 C      1   2   0     1.404269182209   118.32374667     0.00000000
 C      3   1   2     1.406594863670   120.14241158    19.09919245
 C      4   3   1     1.393378334431   119.50936735   345.14014677
 C      5   4   3     1.387860080518   119.23328572     4.92681447
 H      1   2   3     2.331795230560   144.33938925   144.06254039
 H      3   1   2     1.078199900361   118.52379569   183.07266856
 H      6   5   4     1.076564531026   118.84290002   189.55260406
 H      4   3   1     1.096842172709   119.96726334   168.53677072
 H      5   4   3     1.092519151077   120.76413942   181.07266200
 C      2   1   3     1.507052102602   124.82370201   173.94176635
 C     12   2   1     1.536657343100   118.74445598   316.29052391
 H     12   2   1     1.087278956230   105.92630615   194.44062474
 H     12   2   1     1.088866013164   111.20973107    82.08823809
 C     13  12   2     1.498395427090   110.09961075   128.62298143
 H     13  12   2     1.086156589155   110.77737472     6.75008639
 H     13  12   2     1.094307090430   109.50491211   249.00397782
 C     16  13  12     1.404374772782   121.72522253   274.82355456
 C     19  16  13     1.406703997223   116.88747235   173.96816303
 C     20  19  16     1.407241237333   121.52428063   356.46995107
 C     16  13  12     1.407294573763   118.02882154    92.83639935
 C     21  20  19     1.378554695113   121.04145958     4.42184484
 H     20  19  16     1.079292506968   120.68919321   179.43147615
 H     21  20  19     1.090038630386   120.15505879   183.69708877
 H     22  16  13     1.092106482198   119.93518071     7.90371452
 H     23  21  20     1.095754626374   121.32725225   175.30106073
 Pd    19  16  13     2.059308511476   120.05833304   354.00886571
 Br     7   1   2     2.050775688654   117.17291412   127.19420640
 P     28  19  16     2.174281714533    85.67041129   270.76971061
 H     30  28  19     1.392204142807   114.43505480   118.39985328
 C     24  20  19     2.862992008293   127.26601640    30.86383184
 O     32  24  20     1.145290918021    66.18483417   191.05130767
 O     32  24  20     1.272669844053   113.33952492   318.30582360
 O     32  24  20     1.437979919937   104.56269690    76.05120864
 H     30  28  19     1.396492712280   125.64239734   355.79287629
 H     30  28  19     1.396604003074   115.11219310   231.11546459
 H     35  32  24     0.945578005027   102.85734321    55.86558456

---------------------------
INTERNAL COORDINATES (A.U.)
---------------------------
 C      0   0   0     0.000000000000     0.00000000     0.00000000
 C      1   0   0     2.645480918446     0.00000000     0.00000000
 C      1   2   0     2.653684172681   118.32374667     0.00000000
 C      3   1   2     2.658079073717   120.14241158    19.09919245
 C      4   3   1     2.633103453014   119.50936735   345.14014677
 C      5   4   3     2.622675464381   119.23328572     4.92681447
 H      1   2   3     4.406454386142   144.33938925   144.06254039
 H      3   1   2     2.037502529304   118.52379569   183.07266856
 H      6   5   4     2.034412129132   118.84290002   189.55260406
 H      4   3   1     2.072731318556   119.96726334   168.53677072
 H      5   4   3     2.064561991600   120.76413942   181.07266200
 C      2   1   3     2.847915743469   124.82370201   173.94176635
 C     12   2   1     2.903861540139   118.74445598   316.29052391
 H     12   2   1     2.054659458450   105.92630615   194.44062474
 H     12   2   1     2.057658561414   111.20973107    82.08823809
 C     13  12   2     2.831556997520   110.09961075   128.62298143
 H     13  12   2     2.052538492057   110.77737472     6.75008639
 H     13  12   2     2.067940707322   109.50491211   249.00397782
 C     16  13  12     2.653883709946   121.72522253   274.82355456
 C     19  16  13     2.658285306244   116.88747235   173.96816303
 C     20  19  16     2.659300542921   121.52428063   356.46995107
 C     16  13  12     2.659401334165   118.02882154    92.83639935
 C     21  20  19     2.605090834394   121.04145958     4.42184484
 H     20  19  16     2.039567256563   120.68919321   179.43147615
 H     21  20  19     2.059874486825   120.15505879   183.69708877
 H     22  16  13     2.063782160435   119.93518071     7.90371452
 H     23  21  20     2.070676153824   121.32725225   175.30106073
 Pd    19  16  13     3.891529111943   120.05833304   354.00886571
 Br     7   1   2     3.875404413659   117.17291412   127.19420640
 P     28  19  16     4.108796978461    85.67041129   270.76971061
 H     30  28  19     2.630884552416   114.43505480   118.39985328
 C     24  20  19     5.410270819280   127.26601640    30.86383184
 O     32  24  20     2.164286178727    66.18483417   191.05130767
 O     32  24  20     2.404997464160   113.33952492   318.30582360
 O     32  24  20     2.717388234760   104.56269690    76.05120864
 H     30  28  19     2.638988774225   125.64239734   355.79287629
 H     30  28  19     2.639199083348   115.11219310   231.11546459
 H     35  32  24     1.786883467761   102.85734321    55.86558456

---------------------
BASIS SET INFORMATION
---------------------
There are 6 groups of distinct atoms

 Group   1 Type C   : 8s4p1d contracted to 4s2p1d pattern {5111/31/1}
 Group   2 Type H   : 4s contracted to 2s pattern {31}
 Group   3 Type Pd  : 7s6p5d1f contracted to 5s3p2d1f pattern {31111/411/41/1}
 Group   4 Type Br  : 14s10p6d contracted to 5s4p3d pattern {63311/5311/411}
 Group   5 Type P   : 10s7p1d contracted to 4s3p1d pattern {5311/511/1}
 Group   6 Type O   : 8s4p1d contracted to 4s2p1d pattern {5111/31/1}

Atom   0C    basis set group =>   1
Atom   1C    basis set group =>   1
Atom   2C    basis set group =>   1
Atom   3C    basis set group =>   1
Atom   4C    basis set group =>   1
Atom   5C    basis set group =>   1
Atom   6H    basis set group =>   2
Atom   7H    basis set group =>   2
Atom   8H    basis set group =>   2
Atom   9H    basis set group =>   2
Atom  10H    basis set group =>   2
Atom  11C    basis set group =>   1
Atom  12C    basis set group =>   1
Atom  13H    basis set group =>   2
Atom  14H    basis set group =>   2
Atom  15C    basis set group =>   1
Atom  16H    basis set group =>   2
Atom  17H    basis set group =>   2
Atom  18C    basis set group =>   1
Atom  19C    basis set group =>   1
Atom  20C    basis set group =>   1
Atom  21C    basis set group =>   1
Atom  22C    basis set group =>   1
Atom  23H    basis set group =>   2
Atom  24H    basis set group =>   2
Atom  25H    basis set group =>   2
Atom  26H    basis set group =>   2
Atom  27Pd   basis set group =>   3
Atom  28Br   basis set group =>   4
Atom  29P    basis set group =>   5
Atom  30H    basis set group =>   2
Atom  31C    basis set group =>   1
Atom  32O    basis set group =>   6
Atom  33O    basis set group =>   6
Atom  34O    basis set group =>   6
Atom  35H    basis set group =>   2
Atom  36H    basis set group =>   2
Atom  37H    basis set group =>   2
---------------------------------
AUXILIARY/J BASIS SET INFORMATION
---------------------------------
There are 6 groups of distinct atoms

 Group   1 Type C   : 12s5p4d2f1g contracted to 6s4p3d1f1g pattern {711111/2111/211/2/1}
 Group   2 Type H   : 5s2p1d contracted to 3s1p1d pattern {311/2/1}
 Group   3 Type Pd  : 11s5p5d3f3g contracted to 8s5p5d2f3g pattern {41111111/11111/11111/21/111}
 Group   4 Type Br  : 19s5p5d3f1g contracted to 8s4p3d2f1g pattern {121111111/2111/311/21/1}
 Group   5 Type P   : 14s5p5d2f1g contracted to 8s4p3d1f1g pattern {71111111/2111/311/2/1}
 Group   6 Type O   : 12s5p4d2f1g contracted to 6s4p3d1f1g pattern {711111/2111/211/2/1}

Atom   0C    basis set group =>   1
Atom   1C    basis set group =>   1
Atom   2C    basis set group =>   1
Atom   3C    basis set group =>   1
Atom   4C    basis set group =>   1
Atom   5C    basis set group =>   1
Atom   6H    basis set group =>   2
Atom   7H    basis set group =>   2
Atom   8H    basis set group =>   2
Atom   9H    basis set group =>   2
Atom  10H    basis set group =>   2
Atom  11C    basis set group =>   1
Atom  12C    basis set group =>   1
Atom  13H    basis set group =>   2
Atom  14H    basis set group =>   2
Atom  15C    basis set group =>   1
Atom  16H    basis set group =>   2
Atom  17H    basis set group =>   2
Atom  18C    basis set group =>   1
Atom  19C    basis set group =>   1
Atom  20C    basis set group =>   1
Atom  21C    basis set group =>   1
Atom  22C    basis set group =>   1
Atom  23H    basis set group =>   2
Atom  24H    basis set group =>   2
Atom  25H    basis set group =>   2
Atom  26H    basis set group =>   2
Atom  27Pd   basis set group =>   3
Atom  28Br   basis set group =>   4
Atom  29P    basis set group =>   5
Atom  30H    basis set group =>   2
Atom  31C    basis set group =>   1
Atom  32O    basis set group =>   6
Atom  33O    basis set group =>   6
Atom  34O    basis set group =>   6
Atom  35H    basis set group =>   2
Atom  36H    basis set group =>   2
Atom  37H    basis set group =>   2
-------------------------
ECP PARAMETER INFORMATION
-------------------------

 Group 1, Type Pd ECP Def2-ECP (replacing 28 core electrons, lmax=3)

Atom  27Pd   ECP group =>   1

------------------------------------------------------------------------------
                           ORCA GTO INTEGRAL CALCULATION
                           -- RI-GTO INTEGRALS CHOSEN --
------------------------------------------------------------------------------
------------------------------------------------------------------------------
                   ___                                                        
                  /   \      - P O W E R E D   B Y -                         
                 /     \                                                     
                 |  |  |   _    _      __       _____    __    __             
                 |  |  |  | |  | |    /  \     |  _  \  |  |  /  |          
                  \  \/   | |  | |   /    \    | | | |  |  | /  /          
                 / \  \   | |__| |  /  /\  \   | |_| |  |  |/  /          
                |  |  |   |  __  | /  /__\  \  |    /   |      \           
                |  |  |   | |  | | |   __   |  |    \   |  |\   \          
                \     /   | |  | | |  |  |  |  | |\  \  |  | \   \       
                 \___/    |_|  |_| |__|  |__|  |_| \__\ |__|  \__/        
                                                                              
                      - O R C A' S   B I G   F R I E N D -                    
                                      &                                       
                       - I N T E G R A L  F E E D E R -                       
                                                                              
 v1 FN, 2020, v2 2021                                                         
------------------------------------------------------------------------------


Reading SHARK input file 3_12_orca.SHARKINP.tmp ... ok
----------------------
SHARK INTEGRAL PACKAGE
----------------------

Number of atoms                             ...     38
Number of basis functions                   ...    385
Number of shells                            ...    191
Maximum angular momentum                    ...      3
Integral batch strategy                     ... SHARK/LIBINT Hybrid
RI-J (if used) integral strategy            ... SPLIT-RIJ (Revised 2003 algorithm where possible)
Printlevel                                  ...      1
Contraction scheme used                     ... SEGMENTED contraction
Coulomb Range Separation                    ... NOT USED
Exchange Range Separation                   ... NOT USED
Finite Nucleus Model                        ... NOT USED
Auxiliary Coulomb fitting basis             ... AVAILABLE
   # of basis functions in Aux-J            ...   1267
   # of shells in Aux-J                     ...    413
   Maximum angular momentum in Aux-J        ...      4
Auxiliary J/K fitting basis                 ... NOT available
Auxiliary Correlation fitting basis         ... NOT available
Auxiliary 'external' fitting basis          ... NOT available
Integral threshold                          ...     2.500000e-11
Primitive cut-off                           ...     2.500000e-12
Primitive pair pre-selection threshold      ...     2.500000e-12

Calculating pre-screening integrals         ... done (  0.1 sec) Dimension = 191
Organizing shell pair data                  ... done (  0.1 sec)
Shell pair information
Total number of shell pairs                 ...     18336
Shell pairs after pre-screening             ...     12162
Total number of primitive shell pairs       ...     68628
Primitive shell pairs kept                  ...     27942
          la=0 lb=0:   4313 shell pairs
          la=1 lb=0:   4065 shell pairs
          la=1 lb=1:    930 shell pairs
          la=2 lb=0:   1701 shell pairs
          la=2 lb=1:    833 shell pairs
          la=2 lb=2:    179 shell pairs
          la=3 lb=0:     78 shell pairs
          la=3 lb=1:     42 shell pairs
          la=3 lb=2:     20 shell pairs
          la=3 lb=3:      1 shell pairs

Calculating one electron integrals          ... done (  0.1 sec)
Calculating ECP integrals                   ... done (  0.6 sec)
Calculating RI/J V-Matrix + Cholesky decomp.... done (  0.2 sec)
Calculating Nuclear repulsion               ... done (  0.0 sec) ENN=   2521.829821031431 Eh

SHARK setup successfully completed in   1.4 seconds

Maximum memory used throughout the entire GTOINT-calculation: 94.4 MB
-------------------------------------------------------------------------------
                                 ORCA SCF
-------------------------------------------------------------------------------

------------
SCF SETTINGS
------------
Hamiltonian:
 Density Functional     Method          .... DFT(GTOs)
 Exchange Functional    Exchange        .... PBE
   PBE kappa parameter   XKappa         ....  1.024500
   PBE mue parameter    XMuePBE         ....  0.123457
 Correlation Functional Correlation     .... PBE
   PBE beta parameter  CBetaPBE         ....  0.030000
 LDA part of GGA corr.  LDAOpt          .... PW91-LDA
 Gradients option       PostSCFGGA      .... off
 Hybrid DFT is turned on
   Fraction HF Exchange ScalHFX         ....  0.420000
   Scaling of DF-GGA-X  ScalDFX         ....  0.580000
   Scaling of DF-GGA-C  ScalDFC         ....  1.000000
   Scaling of DF-LDA-C  ScalLDAC        ....  1.000000
   Perturbative correction              ....  0.000000
   Density functional embedding theory  .... OFF
 RI-approximation to the Coulomb term is turned on
   Number of AuxJ basis functions       .... 1267
   RIJ-ON(X) (HFX calculated with O(N)) .... on
   Number of AuxJ basis functions       .... 1267
   RIJ-COSX (HFX calculated with COS-X)).... on


General Settings:
 Integral files         IntName         .... 3_12_orca
 Hartree-Fock type      HFTyp           .... RHF
 Total Charge           Charge          ....   -1
 Multiplicity           Mult            ....    1
 Number of Electrons    NEL             ....  200
 Basis Dimension        Dim             ....  385
 Nuclear Repulsion      ENuc            ....   2521.8298210314 Eh

Convergence Acceleration:
 DIIS                   CNVDIIS         .... on
   Start iteration      DIISMaxIt       ....    12
   Startup error        DIISStart       ....  0.200000
   # of expansion vecs  DIISMaxEq       ....     5
   Bias factor          DIISBfac        ....   1.050
   Max. coefficient     DIISMaxC        ....  10.000
 Trust-Rad. Augm. Hess. CNVTRAH         .... auto
   Auto Start mean grad. ratio tolernc. ....  1.125000
   Auto Start start iteration           ....    20
   Auto Start num. interpolation iter.  ....    10
   Max. Number of Micro iterations      ....    16
   Max. Number of Macro iterations      .... Maxiter - #DIIS iter
   Number of Davidson start vectors     ....     2
   Converg. threshold I  (grad. norm)   ....   1.000e-05
   Converg. threshold II (energy diff.) ....   1.000e-08
   Grad. Scal. Fac. for Micro threshold ....   0.100
   Minimum threshold for Micro iter.    ....   0.010
   NR start threshold (gradient norm)   ....   0.001
   Initial trust radius                 ....   0.400
   Minimum AH scaling param. (alpha)    ....   1.000
   Maximum AH scaling param. (alpha)    .... 1000.000
   Orbital update algorithm             .... Taylor
   White noise on init. David. guess    .... on
   Maximum white noise                  ....   0.010
   Quad. conv. algorithm                .... NR
   COSX micro iterations for RIJONX calc.... off
 SOSCF                  CNVSOSCF        .... off
 Level Shifting         CNVShift        .... on
   Level shift para.    LevelShift      ....    0.2500
   Turn off err/grad.   ShiftErr        ....    0.0010
 Zerner damping         CNVZerner       .... off
 Static damping         CNVDamp         .... on
   Fraction old density DampFac         ....    0.7000
   Max. Damping (<1)    DampMax         ....    0.9800
   Min. Damping (>=0)   DampMin         ....    0.0000
   Turn off err/grad.   DampErr         ....    0.1000
 Fernandez-Rico         CNVRico         .... off

SCF Procedure:
 Maximum # iterations   MaxIter         ....   250
 SCF integral mode      SCFMode         .... Direct
   Integral package                     .... SHARK and LIBINT hybrid scheme
 Reset frequency        DirectResetFreq ....    20
 Integral Threshold     Thresh          ....  2.500e-11 Eh
 Primitive CutOff       TCut            ....  2.500e-12 Eh

Convergence Tolerance:
 Convergence Check Mode ConvCheckMode   .... Total+1el-Energy
 Convergence forced     ConvForced      .... 0
 Energy Change          TolE            ....  1.000e-08 Eh
 1-El. energy change                    ....  1.000e-05 Eh
 DIIS Error             TolErr          ....  5.000e-07


Diagonalization of the overlap matrix:
Smallest eigenvalue                        ... 4.372e-04
Time for diagonalization                   ...    0.037 sec
Threshold for overlap eigenvalues          ... 1.000e-08
Number of eigenvalues below threshold      ... 0
Time for construction of square roots      ...    0.022 sec
Total time needed                          ...    0.059 sec

--------------------------------
INITIAL GUESS: MINIMAL BASIS EHT
--------------------------------
The minimal basis has 147 functions
EHT matrix was diagonalized
Basis set overlap was calculated now projecting the orbitals
Using GuessMode=FMatrix for the initial guess
C*T matrix was formed
Effective Fockian was calculated
Effective Fockian was diagonalized
Initial density was built
                      ------------------
                      INITIAL GUESS DONE
                      ------------------
-------------------
DFT GRID GENERATION
-------------------

General Integration Accuracy     IntAcc      ... 4.159
Radial Grid Type                 RadialGrid  ... OptM3 with GC (2021)
Angular Grid (max. ang.)         AngularGrid ... 3 (Lebedev-194)
Angular grid pruning method      GridPruning ... 4 (adaptive)
Weight generation scheme         WeightScheme... Becke
Basis function cutoff            BFCut       ... 1.0000e-11
Integration weight cutoff        WCut        ... 1.0000e-14
Angular grids for H and He will be reduced by one unit
Partially contracted basis set               ... off
Rotationally invariant grid construction     ... off

Total number of grid points                  ...    96801
Total number of batches                      ...     1530
Average number of points per batch           ...       63
Average number of grid points per atom       ...     2547
Time for grid setup =    1.428 sec

--------------------
COSX GRID GENERATION
--------------------

GRIDX 1
-------
General Integration Accuracy     IntAcc      ... 3.816
Radial Grid Type                 RadialGrid  ... OptM3 with GC (2021)
Angular Grid (max. ang.)         AngularGrid ... 1 (Lebedev-50)
Angular grid pruning method      GridPruning ... 4 (adaptive)
Weight generation scheme         WeightScheme... Becke
Basis function cutoff            BFCut       ... 1.0000e-11
Integration weight cutoff        WCut        ... 1.0000e-14
Angular grids for H and He will be reduced by one unit
Partially contracted basis set               ... on
Rotationally invariant grid construction     ... off

Total number of grid points                  ...    23664
Total number of batches                      ...      385
Average number of points per batch           ...       61
Average number of grid points per atom       ...      623
UseSFitting                                  ... on

GRIDX 2
-------
General Integration Accuracy     IntAcc      ... 4.020
Radial Grid Type                 RadialGrid  ... OptM3 with GC (2021)
Angular Grid (max. ang.)         AngularGrid ... 2 (Lebedev-110)
Angular grid pruning method      GridPruning ... 4 (adaptive)
Weight generation scheme         WeightScheme... Becke
Basis function cutoff            BFCut       ... 1.0000e-11
Integration weight cutoff        WCut        ... 1.0000e-14
Angular grids for H and He will be reduced by one unit
Partially contracted basis set               ... on
Rotationally invariant grid construction     ... off

Total number of grid points                  ...    51276
Total number of batches                      ...      818
Average number of points per batch           ...       62
Average number of grid points per atom       ...     1349
UseSFitting                                  ... on

GRIDX 3
-------
General Integration Accuracy     IntAcc      ... 4.338
Radial Grid Type                 RadialGrid  ... OptM3 with GC (2021)
Angular Grid (max. ang.)         AngularGrid ... 3 (Lebedev-194)
Angular grid pruning method      GridPruning ... 4 (adaptive)
Weight generation scheme         WeightScheme... Becke
Basis function cutoff            BFCut       ... 1.0000e-11
Integration weight cutoff        WCut        ... 1.0000e-14
Angular grids for H and He will be reduced by one unit
Partially contracted basis set               ... on
Rotationally invariant grid construction     ... off

Total number of grid points                  ...   112017
Total number of batches                      ...     1768
Average number of points per batch           ...       63
Average number of grid points per atom       ...     2948
UseSFitting                                  ... on

Time for X-Grid setup             =    4.794 sec

--------------
SCF ITERATIONS
--------------
ITER       Energy         Delta-E        Max-DP      RMS-DP      [F,P]     Damp
               ***  Starting incremental Fock matrix formation  ***
  0  -3826.6983585736   0.000000000000 5.23223558  0.05102152  5.1971790 0.7000
  1  -3810.7200648715  15.978293702153 5.53946647  0.05407972  3.9890665 0.7000
  2  -3808.3173879451   2.402676926367 3.29799693  0.03206608  2.6501400 0.7000
  3  -3814.8382162393  -6.520828294239 4.20978138  0.03768603  1.9452492 0.7000
  4  -3811.4321490898   3.406067149506 2.87455566  0.03337882  1.2453757 0.7000
  5  -3814.0928294940  -2.660680404230 4.10172064  0.04352446  0.9763508 0.7000
  6  -3802.5786721735  11.514157320520 2.85875908  0.03311732  0.5738954 0.7000
  7  -3811.5555509504  -8.976878776847 3.60582412  0.03876129  0.5041018 0.7000
  8  -3808.8987080467   2.656842903722 2.82299390  0.03795871  0.2788525 0.7000
  9  -3809.7600785449  -0.861370498238 3.71693504  0.04173222  0.2777890 0.7000
 10  -3798.4153914972  11.344687047666 2.79769777  0.03270486  0.2685207 0.7000
 11  -3809.6772237982 -11.261832301021 3.58600091  0.03716400  0.2493290 0.7000
                               ***Turning on DIIS***
 12  -3809.4502586247   0.226965173533 2.87811205  0.03962233  0.2476804 0.7000
 13  -3808.2279628443   1.222295780462 2.08229032  0.02694430  0.2769609 0.7000
 14  -3818.1156330499  -9.887670205627 1.46913072  0.01925176  0.2815160 0.7000
 15  -3826.0318448051  -7.916211755271 1.02868397  0.01358670  0.3444856 0.7000
 16  -3831.8715255183  -5.839680713182 0.71951299  0.00956850  0.3867405 0.7000
 17  -3836.1124294907  -4.240903972412 4.69838643  0.03965793  0.4026017 0.7000
 18  -3828.3560743639   7.756355126853 1.83315663  0.01564230  0.3146560 0.7000
 19  -3835.4007772387  -7.044702874851 1.27766488  0.01129285  0.1980622 0.7000
               *** Restarting incremental Fock matrix formation ***
                                   *** Resetting DIIS ***

 WARNING: the maximum gradient error descreased on average only by a factor   1.0
          during the last 20 iterations

                      *** Initiating the TRAH-SCF procedure ***


TRAH GRIDX
----------

General Integration Accuracy     IntAcc      ... 3.067
Radial Grid Type                 RadialGrid  ... OptM3 with GC (2021)
Angular Grid (max. ang.)         AngularGrid ... 1 (Lebedev-50)
Angular grid pruning method      GridPruning ... 4 (adaptive)
Weight generation scheme         WeightScheme... Becke
Basis function cutoff            BFCut       ... 1.0000e-11
Integration weight cutoff        WCut        ... 1.0000e-14
Angular grids for H and He will be reduced by one unit
Partially contracted basis set               ... on
Rotationally invariant grid construction     ... off

Total number of grid points                  ...    12938
Total number of batches                      ...      224
Average number of points per batch           ...       57
Average number of grid points per atom       ...      340


TRAH GRID
---------

General Integration Accuracy     IntAcc      ... 3.467
Radial Grid Type                 RadialGrid  ... OptM3 with GC (2021)
Angular Grid (max. ang.)         AngularGrid ... 1 (Lebedev-50)
Angular grid pruning method      GridPruning ... 4 (adaptive)
Weight generation scheme         WeightScheme... Becke
Basis function cutoff            BFCut       ... 1.0000e-11
Integration weight cutoff        WCut        ... 1.0000e-14
Angular grids for H and He will be reduced by one unit
Partially contracted basis set               ... off
Rotationally invariant grid construction     ... off

Total number of grid points                  ...    32893
Total number of batches                      ...      532
Average number of points per batch           ...       61
Average number of grid points per atom       ...      866

 --------------------------------------------------------------------------------------------
   Iter.        energy            ||Error||_2        Shift      TRadius  Mac/Mic        Rej.
 --------------------------------------------------------------------------------------------
WARNING: 1 diagonal Hessian elements are negative!
    0      -3847.150575078557     2.207966e+00                     0.400 (TRAH MAcro)   No
WARNING : negative HOMO - LUMO gap : -0.010565
    0     dE    -2.620287e-01     2.620368e+00    -4.9863e-01      0.226 (TRAH MIcro)
    0     dE    -4.008540e-01     4.553208e-01    -7.0289e-01      0.400 (TRAH MIcro)
    0     dE    -4.111901e-01     9.832982e-02    -8.8519e-01      0.400 (TRAH MIcro)
    0     dE    -4.117810e-01     3.674270e-02    -8.8101e-01      0.400 (TRAH MIcro)
    0     dE    -4.118667e-01     1.525146e-02    -8.7716e-01      0.400 (TRAH MIcro)
    0     dE    -4.118763e-01     7.216947e-03    -8.7847e-01      0.400 (TRAH MIcro)
    1      -3847.539005239978     2.767387e-01                     0.480 (TRAH MAcro)   No
    1     dE    -8.553833e-03     1.832252e+00    -1.7043e-02      0.062 (TRAH MIcro)
    1     dE    -1.726126e-02     3.103150e-01    -3.3773e-02      0.149 (TRAH MIcro)
    1     dE    -1.836306e-02     6.005278e-02    -3.5765e-02      0.164 (TRAH MIcro)
    1     dE    -1.860195e-02     1.413079e-01    -3.6153e-02      0.171 (TRAH MIcro)
    1     dE    -1.870400e-02     5.720409e-02    -3.6293e-02      0.175 (TRAH MIcro)
    1     dE    -1.873279e-02     1.920008e-02    -3.6326e-02      0.177 (TRAH MIcro)
    1     dE    -1.873929e-02     2.042232e-02    -3.6334e-02      0.178 (TRAH MIcro)
    1     dE    -1.874057e-02     6.619293e-03    -3.6336e-02      0.178 (TRAH MIcro)
    2      -3847.557748682955     2.227035e-02                     0.576 (TRAH MAcro)   No
    2     dE    -1.707899e-06     7.306424e-02    -3.4158e-06      0.000 (TRAH MIcro)
    2     dE    -4.869346e-05     1.134316e-02    -9.7384e-05      0.006 (TRAH MIcro)
    2     dE    -6.474544e-05     7.203982e-03    -1.2948e-04      0.009 (TRAH MIcro)
    2     dE    -6.680443e-05     1.617485e-03    -1.3360e-04      0.009 (TRAH MIcro)
    3      -3847.557815556872     1.627941e-03                     0.691 (TRAH MAcro)   No
    3     dE    -1.351131e-08     6.559217e-03    -2.7800e-08      0.000 (TRAH MIcro)
    3     dE    -1.977838e-07     8.529969e-04    -3.9557e-07      0.000 (TRAH MIcro)
    3     dE    -2.732996e-07     7.590844e-04    -5.4660e-07      0.001 (TRAH MIcro)
    3     dE    -2.885069e-07     3.453532e-04    -5.7701e-07      0.001 (TRAH MIcro)
    3     dE    -2.931097e-07     7.795823e-05    -5.8622e-07      0.001 (TRAH MIcro)
    4      -3847.557815848438     7.787263e-05                           (NR   MAcro)
    4     dE    -5.207512e-10     3.846236e-05                           (NR   MIcro)
    4     dE    -7.442108e-10     2.634521e-05                           (NR   MIcro)
    4     dE    -8.109536e-10     1.348706e-05                           (NR   MIcro)
    4     dE    -8.245608e-10     6.146556e-06                           (NR   MIcro)
    4     dE    -8.283415e-10     2.988720e-06                           (NR   MIcro)
    4     dE    -8.288979e-10     1.185799e-06                           (NR   MIcro)
    4     dE    -8.290007e-10     5.508733e-07                           (NR   MIcro)
    5      -3847.557815850347     5.699175e-07                           (NR   MAcro)

               *****************************************************
               *                     SUCCESS                       *
               *           SCF CONVERGED AFTER  56 CYCLES          *
               *****************************************************

Old exchange energy                            =    -97.699215555 Eh
New exchange energy                            =    -97.699050826 Eh
Exchange energy change after final integration =      0.000164729 Eh
Total energy after final integration           =  -3847.557651121 Eh
Final COS-X integration done in                =    48.520 sec

----------------
TOTAL SCF ENERGY
----------------

Total Energy       :        -3847.55765112 Eh         -104697.36640 eV

Components:
Nuclear Repulsion  :         2521.82982103 Eh           68622.47813 eV
Electronic Energy  :        -6369.38747215 Eh         -173319.84453 eV
One Electron Energy:       -10426.87365123 Eh         -283729.65659 eV
Two Electron Energy:         4057.48617908 Eh          110409.81206 eV
Max COSX asymmetry :            0.00005889 Eh               0.00160 eV

Virial components:
Potential Energy   :        -7606.61023795 Eh         -206986.38756 eV
Kinetic Energy     :         3759.05258683 Eh          102289.02116 eV
Virial Ratio       :            2.02354451


DFT components:
N(Alpha)           :       99.999994648259 electrons
N(Beta)            :       99.999994648259 electrons
N(Total)           :      199.999989296518 electrons
E(X)               :     -130.799361689950 Eh       
E(C)               :       -9.707156781581 Eh       
E(XC)              :     -140.506518471531 Eh       
DFET-embed. en.    :        0.000000000000 Eh       

---------------
SCF CONVERGENCE
---------------

  Last Energy change         ...   -1.9090e-09  Tolerance :   1.0000e-08
  Last Orbital Gradient      ...    5.6992e-07  Tolerance :   1.0000e-05
  Last Orbital Rotation      ...    4.2785e-05

             **** THE GBW FILE WAS UPDATED (3_12_orca.gbw) ****
             **** DENSITY 3_12_orca.scfp WAS UPDATED ****
             **** ENERGY FILE WAS UPDATED (3_12_orca.en.tmp) ****
             **** THE GBW FILE WAS UPDATED (3_12_orca.gbw) ****
             **** DENSITY 3_12_orca.scfp WAS UPDATED ****
----------------
ORBITAL ENERGIES
----------------

  NO   OCC          E(Eh)            E(eV) 
   0   2.0000    -484.379157    -13180.6269 
   1   2.0000     -77.689878     -2114.0491 
   2   2.0000     -63.040540     -1715.4203 
   3   2.0000     -56.744478     -1544.0957 
   4   2.0000     -56.743168     -1544.0601 
   5   2.0000     -56.742747     -1544.0486 
   6   2.0000     -19.335527      -526.1464 
   7   2.0000     -19.300823      -525.2021 
   8   2.0000     -19.282198      -524.6953 
   9   2.0000     -10.414045      -283.3806 
  10   2.0000     -10.362553      -281.9794 
  11   2.0000     -10.354802      -281.7685 
  12   2.0000     -10.351488      -281.6783 
  13   2.0000     -10.350576      -281.6535 
  14   2.0000     -10.348971      -281.6098 
  15   2.0000     -10.343346      -281.4567 
  16   2.0000     -10.341076      -281.3950 
  17   2.0000     -10.338884      -281.3353 
  18   2.0000     -10.337604      -281.3005 
  19   2.0000     -10.335837      -281.2524 
  20   2.0000     -10.335651      -281.2474 
  21   2.0000     -10.335412      -281.2409 
  22   2.0000     -10.332139      -281.1518 
  23   2.0000     -10.329615      -281.0831 
  24   2.0000      -8.867768      -241.3042 
  25   2.0000      -6.765563      -184.1003 
  26   2.0000      -6.638443      -180.6412 
  27   2.0000      -6.633294      -180.5011 
  28   2.0000      -6.629762      -180.4050 
  29   2.0000      -4.856523      -132.1527 
  30   2.0000      -4.856187      -132.1436 
  31   2.0000      -4.855166      -132.1158 
  32   2.0000      -3.542779       -96.4039 
  33   2.0000      -2.652720       -72.1842 
  34   2.0000      -2.651757       -72.1580 
  35   2.0000      -2.648829       -72.0783 
  36   2.0000      -2.644414       -71.9582 
  37   2.0000      -2.644038       -71.9479 
  38   2.0000      -2.190258       -59.5999 
  39   2.0000      -2.186026       -59.4848 
  40   2.0000      -2.156904       -58.6923 
  41   2.0000      -1.059089       -28.8193 
  42   2.0000      -0.947229       -25.7754 
  43   2.0000      -0.903942       -24.5975 
  44   2.0000      -0.855815       -23.2879 
  45   2.0000      -0.836659       -22.7666 
  46   2.0000      -0.785649       -21.3786 
  47   2.0000      -0.739054       -20.1107 
  48   2.0000      -0.729215       -19.8430 
  49   2.0000      -0.709930       -19.3182 
  50   2.0000      -0.690095       -18.7784 
  51   2.0000      -0.683215       -18.5912 
  52   2.0000      -0.662849       -18.0370 
  53   2.0000      -0.613974       -16.7071 
  54   2.0000      -0.575192       -15.6518 
  55   2.0000      -0.557652       -15.1745 
  56   2.0000      -0.548821       -14.9342 
  57   2.0000      -0.525539       -14.3007 
  58   2.0000      -0.475431       -12.9371 
  59   2.0000      -0.469456       -12.7746 
  60   2.0000      -0.455820       -12.4035 
  61   2.0000      -0.431771       -11.7491 
  62   2.0000      -0.415976       -11.3193 
  63   2.0000      -0.401654       -10.9296 
  64   2.0000      -0.394739       -10.7414 
  65   2.0000      -0.393238       -10.7005 
  66   2.0000      -0.384660       -10.4671 
  67   2.0000      -0.383800       -10.4437 
  68   2.0000      -0.377430       -10.2704 
  69   2.0000      -0.371096       -10.0980 
  70   2.0000      -0.364216        -9.9108 
  71   2.0000      -0.359071        -9.7708 
  72   2.0000      -0.352367        -9.5884 
  73   2.0000      -0.350322        -9.5328 
  74   2.0000      -0.342315        -9.3149 
  75   2.0000      -0.334893        -9.1129 
  76   2.0000      -0.326052        -8.8723 
  77   2.0000      -0.315533        -8.5861 
  78   2.0000      -0.306079        -8.3288 
  79   2.0000      -0.302630        -8.2350 
  80   2.0000      -0.294738        -8.0202 
  81   2.0000      -0.291034        -7.9194 
  82   2.0000      -0.279085        -7.5943 
  83   2.0000      -0.275651        -7.5009 
  84   2.0000      -0.269592        -7.3360 
  85   2.0000      -0.253954        -6.9105 
  86   2.0000      -0.236727        -6.4417 
  87   2.0000      -0.228281        -6.2118 
  88   2.0000      -0.216229        -5.8839 
  89   2.0000      -0.203503        -5.5376 
  90   2.0000      -0.191317        -5.2060 
  91   2.0000      -0.187789        -5.1100 
  92   2.0000      -0.182614        -4.9692 
  93   2.0000      -0.177761        -4.8371 
  94   2.0000      -0.173966        -4.7339 
  95   2.0000      -0.170900        -4.6504 
  96   2.0000      -0.165504        -4.5036 
  97   2.0000      -0.147266        -4.0073 
  98   2.0000      -0.138760        -3.7758 
  99   2.0000      -0.113915        -3.0998 
 100   0.0000       0.041013         1.1160 
 101   0.0000       0.063783         1.7356 
 102   0.0000       0.112156         3.0519 
 103   0.0000       0.122014         3.3202 
 104   0.0000       0.128435         3.4949 
 105   0.0000       0.139340         3.7916 
 106   0.0000       0.150250         4.0885 
 107   0.0000       0.153275         4.1708 
 108   0.0000       0.174829         4.7573 
 109   0.0000       0.203022         5.5245 
 110   0.0000       0.219265         5.9665 
 111   0.0000       0.228583         6.2201 
 112   0.0000       0.240033         6.5316 
 113   0.0000       0.249909         6.8004 
 114   0.0000       0.258209         7.0262 
 115   0.0000       0.269607         7.3364 
 116   0.0000       0.284975         7.7546 
 117   0.0000       0.290275         7.8988 
 118   0.0000       0.295344         8.0367 
 119   0.0000       0.298842         8.1319 
 120   0.0000       0.305626         8.3165 
 121   0.0000       0.308777         8.4022 
 122   0.0000       0.320161         8.7120 
 123   0.0000       0.322206         8.7677 
 124   0.0000       0.332940         9.0598 
 125   0.0000       0.337695         9.1891 
 126   0.0000       0.344238         9.3672 
 127   0.0000       0.359227         9.7751 
 128   0.0000       0.365399         9.9430 
 129   0.0000       0.371622        10.1123 
 130   0.0000       0.380257        10.3473 
 131   0.0000       0.390245        10.6191 
 132   0.0000       0.401854        10.9350 
 133   0.0000       0.404611        11.0100 
 134   0.0000       0.418646        11.3919 
 135   0.0000       0.429938        11.6992 
 136   0.0000       0.440201        11.9785 
 137   0.0000       0.452475        12.3125 
 138   0.0000       0.456139        12.4122 
 139   0.0000       0.465156        12.6575 
 140   0.0000       0.476586        12.9686 
 141   0.0000       0.482011        13.1162 
 142   0.0000       0.487070        13.2538 
 143   0.0000       0.498763        13.5720 
 144   0.0000       0.516101        14.0438 
 145   0.0000       0.535604        14.5745 
 146   0.0000       0.556478        15.1425 
 147   0.0000       0.568835        15.4788 
 148   0.0000       0.570027        15.5112 
 149   0.0000       0.576378        15.6840 
 150   0.0000       0.589803        16.0494 
 151   0.0000       0.600818        16.3491 
 152   0.0000       0.613840        16.7034 
 153   0.0000       0.620289        16.8789 
 154   0.0000       0.624593        16.9960 
 155   0.0000       0.627276        17.0690 
 156   0.0000       0.635280        17.2868 
 157   0.0000       0.646783        17.5999 
 158   0.0000       0.648317        17.6416 
 159   0.0000       0.654018        17.7967 
 160   0.0000       0.666155        18.1270 
 161   0.0000       0.670599        18.2479 
 162   0.0000       0.680276        18.5112 
 163   0.0000       0.688687        18.7401 
 164   0.0000       0.693401        18.8684 
 165   0.0000       0.695021        18.9125 
 166   0.0000       0.702214        19.1082 
 167   0.0000       0.713324        19.4105 
 168   0.0000       0.716040        19.4844 
 169   0.0000       0.720024        19.5928 
 170   0.0000       0.724474        19.7139 
 171   0.0000       0.726072        19.7574 
 172   0.0000       0.732398        19.9296 
 173   0.0000       0.734673        19.9915 
 174   0.0000       0.738631        20.0992 
 175   0.0000       0.742543        20.2056 
 176   0.0000       0.745256        20.2795 
 177   0.0000       0.752530        20.4774 
 178   0.0000       0.756146        20.5758 
 179   0.0000       0.768812        20.9204 
 180   0.0000       0.772778        21.0284 
 181   0.0000       0.776708        21.1353 
 182   0.0000       0.784362        21.3436 
 183   0.0000       0.787447        21.4275 
 184   0.0000       0.795836        21.6558 
 185   0.0000       0.799265        21.7491 
 186   0.0000       0.804993        21.9050 
 187   0.0000       0.827856        22.5271 
 188   0.0000       0.833144        22.6710 
 189   0.0000       0.838415        22.8144 
 190   0.0000       0.849427        23.1141 
 191   0.0000       0.855917        23.2907 
 192   0.0000       0.858014        23.3477 
 193   0.0000       0.876173        23.8419 
 194   0.0000       0.885783        24.1034 
 195   0.0000       0.900248        24.4970 
 196   0.0000       0.905351        24.6358 
 197   0.0000       0.919016        25.0077 
 198   0.0000       0.930104        25.3094 
 199   0.0000       0.949995        25.8507 
 200   0.0000       0.955390        25.9975 
 201   0.0000       0.965850        26.2821 
 202   0.0000       0.970579        26.4108 
 203   0.0000       0.992824        27.0161 
 204   0.0000       1.000789        27.2328 
 205   0.0000       1.016265        27.6540 
 206   0.0000       1.030736        28.0477 
 207   0.0000       1.031932        28.0803 
 208   0.0000       1.041572        28.3426 
 209   0.0000       1.045353        28.4455 
 210   0.0000       1.059279        28.8245 
 211   0.0000       1.062948        28.9243 
 212   0.0000       1.069251        29.0958 
 213   0.0000       1.080828        29.4108 
 214   0.0000       1.088693        29.6248 
 215   0.0000       1.096065        29.8254 
 216   0.0000       1.098162        29.8825 
 217   0.0000       1.105330        30.0776 
 218   0.0000       1.106663        30.1138 
 219   0.0000       1.116225        30.3740 
 220   0.0000       1.134590        30.8738 
 221   0.0000       1.142626        31.0924 
 222   0.0000       1.145581        31.1729 
 223   0.0000       1.164062        31.6757 
 224   0.0000       1.177351        32.0373 
 225   0.0000       1.182772        32.1849 
 226   0.0000       1.190638        32.3989 
 227   0.0000       1.194455        32.5028 
 228   0.0000       1.202866        32.7316 
 229   0.0000       1.210186        32.9308 
 230   0.0000       1.212295        32.9882 
 231   0.0000       1.221553        33.2402 
 232   0.0000       1.231130        33.5007 
 233   0.0000       1.237709        33.6798 
 234   0.0000       1.249357        33.9967 
 235   0.0000       1.252293        34.0766 
 236   0.0000       1.262280        34.3484 
 237   0.0000       1.278783        34.7975 
 238   0.0000       1.290654        35.1205 
 239   0.0000       1.293127        35.1878 
 240   0.0000       1.315041        35.7841 
 241   0.0000       1.324699        36.0469 
 242   0.0000       1.334839        36.3228 
 243   0.0000       1.344383        36.5825 
 244   0.0000       1.350906        36.7600 
 245   0.0000       1.370830        37.3022 
 246   0.0000       1.380724        37.5714 
 247   0.0000       1.398586        38.0575 
 248   0.0000       1.418357        38.5955 
 249   0.0000       1.421433        38.6792 
 250   0.0000       1.434221        39.0271 
 251   0.0000       1.446440        39.3596 
 252   0.0000       1.454040        39.5664 
 253   0.0000       1.461468        39.7686 
 254   0.0000       1.481999        40.3272 
 255   0.0000       1.506225        40.9865 
 256   0.0000       1.516559        41.2677 
 257   0.0000       1.531856        41.6839 
 258   0.0000       1.559768        42.4434 
 259   0.0000       1.573264        42.8107 
 260   0.0000       1.586898        43.1817 
 261   0.0000       1.629971        44.3538 
 262   0.0000       1.637626        44.5621 
 263   0.0000       1.645604        44.7792 
 264   0.0000       1.660134        45.1745 
 265   0.0000       1.663935        45.2780 
 266   0.0000       1.684487        45.8372 
 267   0.0000       1.708652        46.4948 
 268   0.0000       1.723668        46.9034 
 269   0.0000       1.728737        47.0413 
 270   0.0000       1.755781        47.7772 
 271   0.0000       1.774486        48.2862 
 272   0.0000       1.786042        48.6007 
 273   0.0000       1.796003        48.8717 
 274   0.0000       1.844343        50.1871 
 275   0.0000       1.921381        52.2834 
 276   0.0000       1.925184        52.3869 
 277   0.0000       1.936328        52.6902 
 278   0.0000       1.963163        53.4204 
 279   0.0000       1.975973        53.7690 
 280   0.0000       1.976680        53.7882 
 281   0.0000       1.994788        54.2809 
 282   0.0000       2.007903        54.6378 
 283   0.0000       2.030177        55.2439 
 284   0.0000       2.035933        55.4006 
 285   0.0000       2.046497        55.6880 
 286   0.0000       2.066434        56.2305 
 287   0.0000       2.082826        56.6766 
 288   0.0000       2.097090        57.0647 
 289   0.0000       2.103204        57.2311 
 290   0.0000       2.118902        57.6582 
 291   0.0000       2.138921        58.2030 
 292   0.0000       2.145830        58.3910 
 293   0.0000       2.164560        58.9007 
 294   0.0000       2.172440        59.1151 
 295   0.0000       2.191298        59.6282 
 296   0.0000       2.193763        59.6953 
 297   0.0000       2.219206        60.3877 
 298   0.0000       2.238196        60.9044 
 299   0.0000       2.243991        61.0621 
 300   0.0000       2.265805        61.6557 
 301   0.0000       2.276962        61.9593 
 302   0.0000       2.283994        62.1506 
 303   0.0000       2.297815        62.5267 
 304   0.0000       2.303496        62.6813 
 305   0.0000       2.314095        62.9697 
 306   0.0000       2.324451        63.2515 
 307   0.0000       2.331356        63.4394 
 308   0.0000       2.345683        63.8293 
 309   0.0000       2.353520        64.0425 
 310   0.0000       2.363832        64.3231 
 311   0.0000       2.394672        65.1623 
 312   0.0000       2.406957        65.4966 
 313   0.0000       2.412922        65.6589 
 314   0.0000       2.438326        66.3502 
 315   0.0000       2.465846        67.0991 
 316   0.0000       2.473069        67.2956 
 317   0.0000       2.486402        67.6584 
 318   0.0000       2.488716        67.7214 
 319   0.0000       2.503819        68.1324 
 320   0.0000       2.517251        68.4979 
 321   0.0000       2.540658        69.1348 
 322   0.0000       2.560804        69.6830 
 323   0.0000       2.572313        69.9962 
 324   0.0000       2.579911        70.2030 
 325   0.0000       2.582587        70.2758 
 326   0.0000       2.594835        70.6090 
 327   0.0000       2.622919        71.3733 
 328   0.0000       2.628739        71.5316 
 329   0.0000       2.639033        71.8117 
 330   0.0000       2.675161        72.7948 
 331   0.0000       2.691908        73.2505 
 332   0.0000       2.719772        74.0088 
 333   0.0000       2.731977        74.3409 
 334   0.0000       2.745547        74.7101 
 335   0.0000       2.771456        75.4152 
 336   0.0000       2.787970        75.8645 
 337   0.0000       2.802346        76.2557 
 338   0.0000       2.810705        76.4832 
 339   0.0000       2.829224        76.9871 
 340   0.0000       2.838297        77.2340 
 341   0.0000       2.885308        78.5132 
 342   0.0000       2.892561        78.7106 
 343   0.0000       2.897058        78.8330 
 344   0.0000       2.909714        79.1773 
 345   0.0000       2.911340        79.2216 
 346   0.0000       2.921480        79.4975 
 347   0.0000       2.928407        79.6860 
 348   0.0000       2.943248        80.0899 
 349   0.0000       2.960351        80.5552 
 350   0.0000       3.000893        81.6584 
 351   0.0000       3.026477        82.3546 
 352   0.0000       3.063582        83.3643 
 353   0.0000       3.156475        85.8921 
 354   0.0000       3.210254        87.3555 
 355   0.0000       3.228973        87.8648 
 356   0.0000       3.247831        88.3780 
 357   0.0000       3.338786        90.8530 
 358   0.0000       3.483426        94.7888 
 359   0.0000       3.521886        95.8354 
 360   0.0000       3.529553        96.0440 
 361   0.0000       3.698179       100.6326 
 362   0.0000       3.719710       101.2185 
 363   0.0000       3.751714       102.0893 
 364   0.0000       3.769820       102.5820 
 365   0.0000       3.977060       108.2213 
 366   0.0000      13.359994       363.5439 
 367   0.0000      13.402578       364.7027 
 368   0.0000      13.743915       373.9910 
 369   0.0000      13.787932       375.1887 
 370   0.0000      13.797633       375.4527 
 371   0.0000      13.815237       375.9317 
 372   0.0000      13.996833       380.8732 
 373   0.0000      14.196813       386.3149 
 374   0.0000      14.215196       386.8151 
 375   0.0000      14.218999       386.9186 
 376   0.0000      14.229916       387.2157 
 377   0.0000      14.246448       387.6656 
 378   0.0000      14.290224       388.8568 
 379   0.0000      14.537316       395.5805 
 380   0.0000      14.606780       397.4707 
 381   0.0000      25.703893       699.4385 
 382   0.0000      25.879925       704.2285 
 383   0.0000      25.998099       707.4443 
 384   0.0000      51.707374      1407.0292 

                    ********************************
                    * MULLIKEN POPULATION ANALYSIS *
                    ********************************

-----------------------
MULLIKEN ATOMIC CHARGES
-----------------------
   0 C :   -0.101265
   1 C :    0.016410
   2 C :   -0.278143
   3 C :   -0.226430
   4 C :   -0.226444
   5 C :   -0.249689
   6 H :    0.236157
   7 H :    0.213717
   8 H :    0.175425
   9 H :    0.183002
  10 H :    0.180370
  11 C :   -0.469118
  12 C :   -0.513772
  13 H :    0.199032
  14 H :    0.268766
  15 C :    0.109352
  16 H :    0.273810
  17 H :    0.206285
  18 C :   -0.131017
  19 C :   -0.270523
  20 C :   -0.240938
  21 C :   -0.284896
  22 C :   -0.208321
  23 H :    0.268452
  24 H :    0.195648
  25 H :    0.184066
  26 H :    0.186894
  27 Pd:    0.077536
  28 Br:   -0.313936
  29 P :   -0.138217
  30 H :    0.124896
  31 C :    0.616480
  32 O :   -0.461572
  33 O :   -0.563790
  34 O :   -0.661479
  35 H :    0.103854
  36 H :    0.136583
  37 H :    0.382815
Sum of atomic charges:   -1.0000000

--------------------------------
MULLIKEN REDUCED ORBITAL CHARGES
--------------------------------
  0 C s       :     3.269242  s :     3.269242
      pz      :     0.916036  p :     2.797400
      px      :     0.922904
      py      :     0.958459
      dz2     :     0.005663  d :     0.034624
      dxz     :     0.005475
      dyz     :     0.005911
      dx2y2   :     0.011441
      dxy     :     0.006134
  1 C s       :     3.181330  s :     3.181330
      pz      :     0.968831  p :     2.755529
      px      :     0.879135
      py      :     0.907563
      dz2     :     0.005269  d :     0.046730
      dxz     :     0.008131
      dyz     :     0.006501
      dx2y2   :     0.012243
      dxy     :     0.014586
  2 C s       :     3.275326  s :     3.275326
      pz      :     1.004891  p :     2.961510
      px      :     0.940549
      py      :     1.016070
      dz2     :     0.003192  d :     0.041307
      dxz     :     0.007252
      dyz     :     0.005501
      dx2y2   :     0.011825
      dxy     :     0.013536
  3 C s       :     3.240306  s :     3.240306
      pz      :     1.002361  p :     2.946421
      px      :     1.013900
      py      :     0.930160
      dz2     :     0.005389  d :     0.039703
      dxz     :     0.003633
      dyz     :     0.006462
      dx2y2   :     0.013860
      dxy     :     0.010360
  4 C s       :     3.231729  s :     3.231729
      pz      :     1.025901  p :     2.954901
      px      :     0.957552
      py      :     0.971448
      dz2     :     0.004263  d :     0.039814
      dxz     :     0.006540
      dyz     :     0.005346
      dx2y2   :     0.009712
      dxy     :     0.013954
  5 C s       :     3.247684  s :     3.247684
      pz      :     1.031645  p :     2.961962
      px      :     0.926680
      py      :     1.003637
      dz2     :     0.003279  d :     0.040043
      dxz     :     0.008177
      dyz     :     0.006595
      dx2y2   :     0.011007
      dxy     :     0.010984
  6 H s       :     0.763843  s :     0.763843
  7 H s       :     0.786283  s :     0.786283
  8 H s       :     0.824575  s :     0.824575
  9 H s       :     0.816998  s :     0.816998
 10 H s       :     0.819630  s :     0.819630
 11 C s       :     3.347058  s :     3.347058
      pz      :     1.139558  p :     3.078245
      px      :     0.911857
      py      :     1.026830
      dz2     :     0.006045  d :     0.043815
      dxz     :     0.005996
      dyz     :     0.013033
      dx2y2   :     0.009821
      dxy     :     0.008920
 12 C s       :     3.374412  s :     3.374412
      pz      :     1.024201  p :     3.096258
      px      :     0.962230
      py      :     1.109826
      dz2     :     0.010685  d :     0.043102
      dxz     :     0.010930
      dyz     :     0.003509
      dx2y2   :     0.008462
      dxy     :     0.009516
 13 H s       :     0.800968  s :     0.800968
 14 H s       :     0.731234  s :     0.731234
 15 C s       :     3.173659  s :     3.173659
      pz      :     0.861903  p :     2.670768
      px      :     0.908754
      py      :     0.900112
      dz2     :     0.010829  d :     0.046221
      dxz     :     0.012044
      dyz     :     0.007430
      dx2y2   :     0.007775
      dxy     :     0.008143
 16 H s       :     0.726190  s :     0.726190
 17 H s       :     0.793715  s :     0.793715
 18 C s       :     3.307840  s :     3.307840
      pz      :     0.890838  p :     2.782616
      px      :     0.960737
      py      :     0.931040
      dz2     :     0.008808  d :     0.040562
      dxz     :     0.010138
      dyz     :     0.009111
      dx2y2   :     0.007751
      dxy     :     0.004754
 19 C s       :     3.278704  s :     3.278704
      pz      :     1.064839  p :     2.952505
      px      :     0.916403
      py      :     0.971263
      dz2     :     0.009671  d :     0.039313
      dxz     :     0.007330
      dyz     :     0.008289
      dx2y2   :     0.007045
      dxy     :     0.006978
 20 C s       :     3.247627  s :     3.247627
      pz      :     0.975590  p :     2.953269
      px      :     1.011490
      py      :     0.966189
      dz2     :     0.008147  d :     0.040043
      dxz     :     0.011629
      dyz     :     0.007825
      dx2y2   :     0.006728
      dxy     :     0.005713
 21 C s       :     3.273662  s :     3.273662
      pz      :     1.028132  p :     2.971685
      px      :     0.948382
      py      :     0.995170
      dz2     :     0.009884  d :     0.039550
      dxz     :     0.008330
      dyz     :     0.008183
      dx2y2   :     0.006875
      dxy     :     0.006277
 22 C s       :     3.235361  s :     3.235361
      pz      :     0.926003  p :     2.932494
      px      :     0.988617
      py      :     1.017875
      dz2     :     0.010773  d :     0.040466
      dxz     :     0.009265
      dyz     :     0.008782
      dx2y2   :     0.003622
      dxy     :     0.008024
 23 H s       :     0.731548  s :     0.731548
 24 H s       :     0.804352  s :     0.804352
 25 H s       :     0.815934  s :     0.815934
 26 H s       :     0.813106  s :     0.813106
 27 Pds       :     2.526958  s :     2.526958
      pz      :     2.148815  p :     6.389882
      px      :     2.135910
      py      :     2.105157
      dz2     :     1.869003  d :     9.003032
      dxz     :     1.962228
      dyz     :     1.905344
      dx2y2   :     1.930473
      dxy     :     1.335983
      f0      :     0.000330  f :     0.002591
      f+1     :     0.000328
      f-1     :     0.000276
      f+2     :     0.000082
      f-2     :     0.000473
      f+3     :     0.000564
      f-3     :     0.000538
 28 Brs       :     7.955533  s :     7.955533
      pz      :     5.950838  p :    17.338192
      px      :     5.820698
      py      :     5.566656
      dz2     :     2.003887  d :    10.020211
      dxz     :     2.001668
      dyz     :     2.002246
      dx2y2   :     2.008500
      dxy     :     2.003910
 29 P s       :     5.578004  s :     5.578004
      pz      :     3.057301  p :     9.341334
      px      :     3.071119
      py      :     3.212914
      dz2     :     0.033972  d :     0.218880
      dxz     :     0.036464
      dyz     :     0.061001
      dx2y2   :     0.066282
      dxy     :     0.021161
 30 H s       :     0.875104  s :     0.875104
 31 C s       :     2.816125  s :     2.816125
      pz      :     0.777902  p :     2.378684
      px      :     0.859575
      py      :     0.741207
      dz2     :     0.027283  d :     0.188711
      dxz     :     0.041921
      dyz     :     0.023362
      dx2y2   :     0.047552
      dxy     :     0.048593
 32 O s       :     3.705733  s :     3.705733
      pz      :     1.600448  p :     4.724671
      px      :     1.452680
      py      :     1.671543
      dz2     :     0.004361  d :     0.031168
      dxz     :     0.007868
      dyz     :     0.002968
      dx2y2   :     0.008535
      dxy     :     0.007437
 33 O s       :     3.801224  s :     3.801224
      pz      :     1.503128  p :     4.739075
      px      :     1.557052
      py      :     1.678894
      dz2     :     0.004128  d :     0.023491
      dxz     :     0.006504
      dyz     :     0.003031
      dx2y2   :     0.003873
      dxy     :     0.005957
 34 O s       :     3.827580  s :     3.827580
      pz      :     1.674077  p :     4.804576
      px      :     1.608819
      py      :     1.521680
      dz2     :     0.002212  d :     0.029322
      dxz     :     0.009030
      dyz     :     0.002834
      dx2y2   :     0.006180
      dxy     :     0.009066
 35 H s       :     0.896146  s :     0.896146
 36 H s       :     0.863417  s :     0.863417
 37 H s       :     0.617185  s :     0.617185


                     *******************************
                     * LOEWDIN POPULATION ANALYSIS *
                     *******************************

----------------------
LOEWDIN ATOMIC CHARGES
----------------------
   0 C :   -0.117562
   1 C :   -0.069182
   2 C :   -0.157261
   3 C :   -0.156478
   4 C :   -0.166895
   5 C :   -0.152228
   6 H :    0.292788
   7 H :    0.130160
   8 H :    0.118384
   9 H :    0.119147
  10 H :    0.118432
  11 C :   -0.214433
  12 C :   -0.216485
  13 H :    0.120085
  14 H :    0.151950
  15 C :   -0.038394
  16 H :    0.158774
  17 H :    0.119905
  18 C :   -0.010942
  19 C :   -0.121561
  20 C :   -0.149764
  21 C :   -0.146860
  22 C :   -0.156964
  23 H :    0.163596
  24 H :    0.125703
  25 H :    0.122430
  26 H :    0.122680
  27 Pd:   -0.847157
  28 Br:   -0.117940
  29 P :    0.429953
  30 H :    0.057551
  31 C :    0.064598
  32 O :   -0.256959
  33 O :   -0.307063
  34 O :   -0.411446
  35 H :    0.043892
  36 H :    0.067281
  37 H :    0.288267

-------------------------------
LOEWDIN REDUCED ORBITAL CHARGES
-------------------------------
  0 C s       :     2.973322  s :     2.973322
      pz      :     0.949818  p :     3.068276
      px      :     1.075718
      py      :     1.042741
      dz2     :     0.010172  d :     0.075964
      dxz     :     0.011288
      dyz     :     0.012281
      dx2y2   :     0.026081
      dxy     :     0.016140
  1 C s       :     2.853972  s :     2.853972
      pz      :     1.002542  p :     3.103024
      px      :     1.037429
      py      :     1.063053
      dz2     :     0.010629  d :     0.112187
      dxz     :     0.017858
      dyz     :     0.015200
      dx2y2   :     0.031102
      dxy     :     0.037399
  2 C s       :     2.903077  s :     2.903077
      pz      :     0.996971  p :     3.161827
      px      :     1.098906
      py      :     1.065950
      dz2     :     0.006321  d :     0.092358
      dxz     :     0.015956
      dyz     :     0.008838
      dx2y2   :     0.028497
      dxy     :     0.032746
  3 C s       :     2.901526  s :     2.901526
      pz      :     1.020681  p :     3.165221
      px      :     1.065337
      py      :     1.079203
      dz2     :     0.009544  d :     0.089731
      dxz     :     0.007475
      dyz     :     0.014921
      dx2y2   :     0.031918
      dxy     :     0.025873
  4 C s       :     2.891796  s :     2.891796
      pz      :     1.033406  p :     3.184205
      px      :     1.083016
      py      :     1.067782
      dz2     :     0.007904  d :     0.090894
      dxz     :     0.014075
      dyz     :     0.010954
      dx2y2   :     0.025346
      dxy     :     0.032615
  5 C s       :     2.895279  s :     2.895279
      pz      :     1.031637  p :     3.166198
      px      :     1.084987
      py      :     1.049574
      dz2     :     0.006987  d :     0.090751
      dxz     :     0.018349
      dyz     :     0.011123
      dx2y2   :     0.027210
      dxy     :     0.027083
  6 H s       :     0.707212  s :     0.707212
  7 H s       :     0.869840  s :     0.869840
  8 H s       :     0.881616  s :     0.881616
  9 H s       :     0.880853  s :     0.880853
 10 H s       :     0.881568  s :     0.881568
 11 C s       :     2.900564  s :     2.900564
      pz      :     1.111262  p :     3.225092
      px      :     1.039963
      py      :     1.073867
      dz2     :     0.011915  d :     0.088776
      dxz     :     0.011760
      dyz     :     0.022951
      dx2y2   :     0.021258
      dxy     :     0.020892
 12 C s       :     2.896247  s :     2.896247
      pz      :     1.073503  p :     3.232121
      px      :     1.050733
      py      :     1.107885
      dz2     :     0.020902  d :     0.088117
      dxz     :     0.023150
[...]
      dxy     :     0.020507
 13 H s       :     0.879915  s :     0.879915
 14 H s       :     0.848050  s :     0.848050
 15 C s       :     2.843934  s :     2.843934
      pz      :     1.052216  p :     3.083473
      px      :     1.028218
      py      :     1.003039
      dz2     :     0.025566  d :     0.110987
      dxz     :     0.030012
      dyz     :     0.019093
      dx2y2   :     0.017078
      dxy     :     0.019239
 16 H s       :     0.841226  s :     0.841226
 17 H s       :     0.880095  s :     0.880095
 18 C s       :     2.886325  s :     2.886325
      pz      :     1.047277  p :     3.031753
      px      :     1.020933
      py      :     0.963542
      dz2     :     0.021972  d :     0.092865
      dxz     :     0.024777
      dyz     :     0.020817
      dx2y2   :     0.014854
      dxy     :     0.010445
 19 C s       :     2.889165  s :     2.889165
      pz      :     1.074253  p :     3.144225
      px      :     1.040959
      py      :     1.029013
      dz2     :     0.020451  d :     0.088171
      dxz     :     0.018324
      dyz     :     0.016331
      dx2y2   :     0.015587
      dxy     :     0.017480
 20 C s       :     2.892092  s :     2.892092
      pz      :     1.070916  p :     3.166546
      px      :     1.050657
      py      :     1.044972
      dz2     :     0.019917  d :     0.091127
      dxz     :     0.024541
      dyz     :     0.019409
      dx2y2   :     0.014016
      dxy     :     0.013244
 21 C s       :     2.892013  s :     2.892013
      pz      :     1.067724  p :     3.164868
      px      :     1.059297
      py      :     1.037847
      dz2     :     0.021749  d :     0.089979
      dxz     :     0.020805
      dyz     :     0.016773
      dx2y2   :     0.015493
      dxy     :     0.015159
 22 C s       :     2.890233  s :     2.890233
      pz      :     1.088212  p :     3.174237
      px      :     1.047101
      py      :     1.038924
      dz2     :     0.026506  d :     0.092494
      dxz     :     0.023441
      dyz     :     0.020877
      dx2y2   :     0.007049
      dxy     :     0.014620
 23 H s       :     0.836404  s :     0.836404
 24 H s       :     0.874297  s :     0.874297
 25 H s       :     0.877570  s :     0.877570
 26 H s       :     0.877320  s :     0.877320
 27 Pds       :     2.532586  s :     2.532586
      pz      :     2.275599  p :     6.966435
      px      :     2.376025
      py      :     2.314812
      dz2     :     1.931888  d :     9.344728
      dxz     :     2.005201
      dyz     :     1.955926
      dx2y2   :     1.983734
      dxy     :     1.467978
      f0      :     0.000422  f :     0.003408
      f+1     :     0.000412
      f-1     :     0.000350
      f+2     :     0.000095
      f-2     :     0.000662
      f+3     :     0.000745
      f-3     :     0.000722
 28 Brs       :     7.837879  s :     7.837879
      pz      :     5.928805  p :    17.255360
      px      :     5.790530
      py      :     5.536025
      dz2     :     2.004791  d :    10.024701
      dxz     :     2.001900
      dyz     :     2.002394
      dx2y2   :     2.009994
      dxy     :     2.005622
 29 P s       :     5.206937  s :     5.206937
      pz      :     2.994223  p :     9.097687
      px      :     3.004956
      py      :     3.098508
      dz2     :     0.041094  d :     0.265423
      dxz     :     0.043776
      dyz     :     0.074558
      dx2y2   :     0.078709
      dxy     :     0.027285
 30 H s       :     0.942449  s :     0.942449
 31 C s       :     2.775580  s :     2.775580
      pz      :     0.849293  p :     2.731413
      px      :     1.025959
      py      :     0.856161
      dz2     :     0.058735  d :     0.428409
      dxz     :     0.098102
      dyz     :     0.051871
      dx2y2   :     0.106986
      dxy     :     0.112715
 32 O s       :     3.462319  s :     3.462319
      pz      :     1.576307  p :     4.734013
      px      :     1.513629
      py      :     1.644077
      dz2     :     0.007933  d :     0.060627
      dxz     :     0.015701
      dyz     :     0.004563
      dx2y2   :     0.016041
      dxy     :     0.016389
 33 O s       :     3.510513  s :     3.510513
      pz      :     1.491891  p :     4.749885
      px      :     1.583296
      py      :     1.674697
      dz2     :     0.007152  d :     0.046666
      dxz     :     0.013843
      dyz     :     0.007285
      dx2y2   :     0.007098
      dxy     :     0.011289
 34 O s       :     3.548634  s :     3.548634
      pz      :     1.670854  p :     4.814195
      px      :     1.611102
      py      :     1.532239
      dz2     :     0.003735  d :     0.048616
      dxz     :     0.012586
      dyz     :     0.007648
      dx2y2   :     0.009642
      dxy     :     0.015006
 35 H s       :     0.956108  s :     0.956108
 36 H s       :     0.932719  s :     0.932719
 37 H s       :     0.711733  s :     0.711733


                      *****************************
                      * MAYER POPULATION ANALYSIS *
                      *****************************

  NA   - Mulliken gross atomic population
  ZA   - Total nuclear charge
  QA   - Mulliken gross atomic charge
  VA   - Mayer's total valence
  BVA  - Mayer's bonded valence
  FA   - Mayer's free valence

  ATOM       NA         ZA         QA         VA         BVA        FA
  0 C      6.1013     6.0000    -0.1013     3.6796     3.6796    -0.0000
  1 C      5.9836     6.0000     0.0164     3.8770     3.8770    -0.0000
  2 C      6.2781     6.0000    -0.2781     3.8471     3.8471     0.0000
  3 C      6.2264     6.0000    -0.2264     3.8221     3.8221     0.0000
  4 C      6.2264     6.0000    -0.2264     3.8395     3.8395    -0.0000
  5 C      6.2497     6.0000    -0.2497     3.8379     3.8379     0.0000
  6 H      0.7638     1.0000     0.2362     0.9385     0.9385    -0.0000
  7 H      0.7863     1.0000     0.2137     0.9163     0.9163    -0.0000
  8 H      0.8246     1.0000     0.1754     0.9269     0.9269     0.0000
  9 H      0.8170     1.0000     0.1830     0.9235     0.9235     0.0000
 10 H      0.8196     1.0000     0.1804     0.9231     0.9231    -0.0000
 11 C      6.4691     6.0000    -0.4691     3.6608     3.6608     0.0000
 12 C      6.5138     6.0000    -0.5138     3.6693     3.6693     0.0000
 13 H      0.8010     1.0000     0.1990     0.9122     0.9122     0.0000
 14 H      0.7312     1.0000     0.2688     0.8823     0.8823     0.0000
 15 C      5.8906     6.0000     0.1094     3.6955     3.6955     0.0000
 16 H      0.7262     1.0000     0.2738     0.8949     0.8949     0.0000
 17 H      0.7937     1.0000     0.2063     0.9112     0.9112    -0.0000
 18 C      6.1310     6.0000    -0.1310     3.8061     3.8061    -0.0000
 19 C      6.2705     6.0000    -0.2705     3.7737     3.7737    -0.0000
 20 C      6.2409     6.0000    -0.2409     3.8157     3.8157    -0.0000
 21 C      6.2849     6.0000    -0.2849     3.8288     3.8288     0.0000
 22 C      6.2083     6.0000    -0.2083     3.8169     3.8169    -0.0000
 23 H      0.7315     1.0000     0.2685     0.9115     0.9115     0.0000
 24 H      0.8044     1.0000     0.1956     0.9204     0.9204    -0.0000
 25 H      0.8159     1.0000     0.1841     0.9266     0.9266    -0.0000
 26 H      0.8131     1.0000     0.1869     0.9223     0.9223     0.0000
 27 Pd    17.9225    18.0000     0.0775     3.0161     3.0161    -0.0000
 28 Br    35.3139    35.0000    -0.3139     1.0826     1.0826     0.0000
 29 P     15.1382    15.0000    -0.1382     3.7601     3.7601    -0.0000
 30 H      0.8751     1.0000     0.1249     0.9531     0.9531     0.0000
 31 C      5.3835     6.0000     0.6165     4.3700     4.3700    -0.0000
 32 O      8.4616     8.0000    -0.4616     2.1571     2.1571     0.0000
 33 O      8.5638     8.0000    -0.5638     2.0038     2.0038     0.0000
 34 O      8.6615     8.0000    -0.6615     1.8697     1.8697    -0.0000
 35 H      0.8961     1.0000     0.1039     0.9579     0.9579     0.0000
 36 H      0.8634     1.0000     0.1366     0.9537     0.9537    -0.0000
 37 H      0.6172     1.0000     0.3828     0.8376     0.8376     0.0000

  Mayer bond orders larger than 0.100000
B(  0-C ,  1-C ) :   1.4665 B(  0-C ,  2-C ) :   1.4118 B(  0-C ,  6-H ) :   0.3259 
B(  0-C , 27-Pd) :   0.2835 B(  1-C ,  5-C ) :   1.3904 B(  1-C , 11-C ) :   0.9658 
B(  2-C ,  3-C ) :   1.4147 B(  2-C ,  7-H ) :   0.9144 B(  3-C ,  4-C ) :   1.4262 
B(  3-C ,  9-H ) :   0.9248 B(  4-C ,  5-C ) :   1.4414 B(  4-C , 10-H ) :   0.9282 
B(  5-C ,  8-H ) :   0.9190 B(  6-H , 27-Pd) :   0.1706 B(  6-H , 28-Br) :   0.3634 
B( 11-C , 12-C ) :   0.9153 B( 11-C , 13-H ) :   0.9317 B( 11-C , 14-H ) :   0.8951 
B( 12-C , 15-C ) :   0.9680 B( 12-C , 16-H ) :   0.8846 B( 12-C , 17-H ) :   0.9311 
B( 15-C , 18-C ) :   1.3439 B( 15-C , 21-C ) :   1.3991 B( 18-C , 19-C ) :   1.4127 
B( 18-C , 27-Pd) :   0.7783 B( 19-C , 20-C ) :   1.4023 B( 19-C , 23-H ) :   0.8750 
B( 20-C , 22-C ) :   1.4312 B( 20-C , 24-H ) :   0.9252 B( 21-C , 22-C ) :   1.4182 
B( 21-C , 25-H ) :   0.9263 B( 22-C , 26-H ) :   0.9272 B( 27-Pd, 28-Br) :   0.3838 
B( 27-Pd, 29-P ) :   0.7599 B( 27-Pd, 33-O ) :   0.3488 B( 29-P , 30-H ) :   0.9235 
B( 29-P , 35-H ) :   0.9162 B( 29-P , 36-H ) :   0.9242 B( 31-C , 32-O ) :   1.9144 
B( 31-C , 33-O ) :   1.4806 B( 31-C , 34-O ) :   0.9473 B( 34-O , 37-H ) :   0.8067 



------------------
HIRSHFELD ANALYSIS
------------------

Total integrated alpha density =     99.999994648
Total integrated beta density  =     99.999994648

  ATOM     CHARGE      SPIN    
   0 C   -0.146528    0.000000
   1 C   -0.022283    0.000000
   2 C   -0.070870    0.000000
   3 C   -0.065697    0.000000
   4 C   -0.075146    0.000000
   5 C   -0.067264    0.000000
   6 H    0.104311    0.000000
   7 H    0.022588    0.000000
   8 H    0.023847    0.000000
   9 H    0.027562    0.000000
  10 H    0.026369    0.000000
  11 C   -0.049404    0.000000
  12 C   -0.059230    0.000000
  13 H    0.016719    0.000000
  14 H    0.025202    0.000000
  15 C   -0.017689    0.000000
  16 H    0.005947    0.000000
  17 H    0.018590    0.000000
  18 C   -0.105782    0.000000
  19 C   -0.061135    0.000000
  20 C   -0.061965    0.000000
  21 C   -0.063898    0.000000
  22 C   -0.068340    0.000000
  23 H    0.035189    0.000000
  24 H    0.032269    0.000000
  25 H    0.027455    0.000000
  26 H    0.032225    0.000000
  27 Pd   0.460562    0.000000
  28 Br  -0.320142    0.000000
  29 P    0.137509    0.000000
  30 H    0.006096    0.000000
  31 C    0.220521    0.000000
  32 O   -0.384967    0.000000
  33 O   -0.436699    0.000000
  34 O   -0.307311    0.000000
  35 H    0.003916    0.000000
  36 H    0.017335    0.000000
  37 H    0.140150    0.000000

  TOTAL  -0.999989    0.000000

-------
TIMINGS
-------

Total SCF time: 0 days 0 hours 13 min 42 sec 

Total time                  ....     822.580 sec
Sum of individual times     ....     821.217 sec  ( 99.8%)

Fock matrix formation       ....     810.708 sec  ( 98.6%)
  Split-RI-J                ....     121.716 sec  ( 15.0% of F)
  Chain of spheres X        ....     632.901 sec  ( 78.1% of F)
  XC integration            ....      56.011 sec  (  6.9% of F)
    Basis function eval.    ....      15.088 sec  ( 26.9% of XC)
    Density eval.           ....      19.436 sec  ( 34.7% of XC)
    XC-Functional eval.     ....       2.005 sec  (  3.6% of XC)
    XC-Potential eval.      ....      16.236 sec  ( 29.0% of XC)
Diagonalization             ....       1.254 sec  (  0.2%)
Density matrix formation    ....       0.217 sec  (  0.0%)
Population analysis         ....       1.008 sec  (  0.1%)
Initial guess               ....       0.104 sec  (  0.0%)
Orbital Transformation      ....       1.211 sec  (  0.1%)
Orbital Orthonormalization  ....       0.000 sec  (  0.0%)
DIIS solution               ....       0.492 sec  (  0.1%)
Grid generation             ....       6.222 sec  (  0.8%)

Maximum memory used throughout the entire SCF-calculation: 179.1 MB


-------------------------------------------------------------------------------
                          DFT DISPERSION CORRECTION                            
                                                                               
                              DFTD3 V3.1  Rev 1                                
                          USING Becke-Johnson damping                          
-------------------------------------------------------------------------------
The PBEh-3c composite method is recognized
Using three-body term ABC
Active option DFTDOPT                   ...         4   

molecular C6(AA) [au] = 24504.133341 


            DFT-D V3
 parameters
 s6 scaling factor         :     1.0000 
 a1 scaling factor         :     0.4860 
 s8 scaling factor         :     0.0000 
 a2 scaling factor         :     4.5000 
 Damping factor alpha9(ATM):    16.0000 
 ad hoc parameters k1-k3   :    16.0000     1.3333    -4.0000 

 Edisp/kcal,au: -19.895613258816  -0.031705674510 
 E6   /kcal   : -20.110818480 
 E8   /kcal   :  -0.000000000 
 E6(ABC)      :   0.215205221 
 % E8         :   0.000000000 
 % E6(ABC)    :  -1.081671714 

-------------------------   ----------------
Dispersion correction           -0.031705675
-------------------------   ----------------

 ** NOTE ** -> element pd will be treated as ni
------------------   -----------------
gCP correction             0.074968719
------------------   -----------------

-------------------------   --------------------
FINAL SINGLE POINT ENERGY     -3847.514388077059
-------------------------   --------------------

------------------------------------------------------------------------------
                         ORCA SCF GRADIENT CALCULATION
------------------------------------------------------------------------------

 ... reading COSX grid (gridx3)
Gradient of the Kohn-Sham DFT energy:
Kohn-Sham wavefunction type      ... RKS
Hartree-Fock exchange scaling    ...    0.420
Number of operators              ...    1
Number of atoms                  ...   38
Basis set dimensions             ...  385
Integral neglect threshold       ... 2.5e-11
Integral primitive cutoff        ... 2.5e-12
SHARK Integral package           ... ON

Nuc. rep. gradient       (SHARK) ... done (  0.0 sec)
HCore & Overlap gradient (SHARK) ... done (  1.5 sec)
ECP gradient             (SHARK) ... done (  1.4 sec)
RI-J gradient            (SHARK) ... done (  7.1 sec)
COSX-gradient                    ... done ( 61.6 sec)
Exchange-correlation gradient    ... done
Dispersion correction            ... done
gCP correction                   ... done

------------------
CARTESIAN GRADIENT
------------------

   1   C   :    0.002282192    0.011485472    0.008603187
   2   C   :    0.006436636   -0.008036317    0.012861198
   3   C   :   -0.003019337   -0.024285446    0.022346766
   4   C   :   -0.002419284    0.011258576   -0.012560135
   5   C   :    0.003670933   -0.002502731    0.009609102
   6   C   :   -0.000581952    0.025051024   -0.009233387
   7   H   :   -0.012659334    0.005367767   -0.032110027
   8   H   :    0.002601398    0.004595664   -0.001034344
   9   H   :   -0.002708293   -0.008435175    0.001647695
  10   H   :   -0.008428453   -0.001205749   -0.002029498
  11   H   :   -0.003798172    0.005292245    0.000638379
  12   C   :    0.000703141   -0.002528789   -0.002892674
  13   C   :   -0.001929150    0.002565768   -0.001411735
  14   H   :   -0.002716038   -0.004055954   -0.002666903
  15   H   :    0.004045498    0.000885945    0.006047369
  16   C   :   -0.011547422    0.002946630   -0.007780359
  17   H   :    0.003826420    0.002165848   -0.001602652
  18   H   :    0.000795998    0.000960036    0.000348450
  19   C   :   -0.000478150   -0.003663474    0.006622867
  20   C   :    0.002997076   -0.006326379   -0.005195800
  21   C   :    0.004259222    0.005677110    0.011471000
  22   C   :    0.008216238   -0.008767440    0.004866991
  23   C   :   -0.005035634    0.009645447   -0.012350243
  24   H   :    0.001186735    0.003562039    0.002312490
  25   H   :    0.004756388    0.003537212   -0.000732115
  26   H   :    0.005038981    0.002065093    0.003891977
  27   H   :    0.007392357    0.004766710    0.002572195
  28   Pd  :    0.003110827   -0.010902620    0.007716938
  29   Br  :    0.008527611   -0.014634461    0.000731999
  30   P   :   -0.001806769    0.001758865   -0.001505915
  31   H   :    0.000277593    0.002623366   -0.006146628
  32   C   :    0.178255476   -0.042833731   -0.019982811
  33   O   :   -0.142015067    0.042210173    0.037365633
  34   O   :   -0.023364061   -0.013374154   -0.014723462
  35   O   :   -0.008828902    0.013602511   -0.020176159
  36   H   :   -0.004682025   -0.001061487   -0.000917986
  37   H   :   -0.001823357    0.002140378    0.002696219
  38   H   :   -0.010941451   -0.011171909    0.013032407

Difference to translation invariance:
           :   -0.0004021315    0.0003780614    0.0003300280

Difference to rotation invariance:
           :    0.0035144927   -0.0023886190   -0.0102932229

Norm of the cartesian gradient     ...    0.2556794905
RMS gradient                       ...    0.0239465783
MAX gradient                       ...    0.1782554761

-------
TIMINGS
-------

Total SCF gradient time            ...       86.299 sec

One electron gradient       ....       2.922 sec  (  3.4%)
RI-J Coulomb gradient       ....       7.084 sec  (  8.2%)
COSX gradient               ....      61.589 sec  ( 71.4%)
XC gradient                 ....      10.855 sec  ( 12.6%)

Maximum memory used throughout the entire SCFGRAD-calculation: 144.6 MB

                            ***************************************
                            *     ORCA property calculations      *
                            ***************************************

                                    ---------------------
                                    Active property flags
                                    ---------------------
   (+) Dipole Moment


------------------------------------------------------------------------------
                       ORCA ELECTRIC PROPERTIES CALCULATION
------------------------------------------------------------------------------

Dipole Moment Calculation                       ... on
Quadrupole Moment Calculation                   ... off
Polarizability Calculation                      ... off
GBWName                                         ... 3_12_orca.gbw
Electron density                                ... 3_12_orca.scfp
The origin for moment calculation is the CENTER OF MASS  = (-0.360315, -1.894042 -1.037031)

-------------
DIPOLE MOMENT
-------------
                                X             Y             Z
Electronic contribution:      6.07706     -72.44535     -30.81696
Nuclear contribution   :     -4.43720      72.53182      33.77459
                        -----------------------------------------
Total Dipole Moment    :      1.63985       0.08647       2.95763
                        -----------------------------------------
Magnitude (a.u.)       :      3.38292
Magnitude (Debye)      :      8.59871



--------------------
Rotational spectrum 
--------------------
 
Rotational constants in cm-1:     0.006962     0.006145     0.004324 
Rotational constants in MHz :   208.715856   184.231989   129.626088 

 Dipole components along the rotational axes: 
x,y,z [a.u.] :    -0.154570    -2.079381     2.663917 
x,y,z [Debye]:    -0.392886    -5.285368     6.771139 

 

Timings for individual modules:

Sum of individual times         ...      910.378 sec (=  15.173 min)
GTO integral calculation        ...        1.430 sec (=   0.024 min)   0.2 %
SCF iterations                  ...      822.605 sec (=  13.710 min)  90.4 %
SCF Gradient evaluation         ...       86.343 sec (=   1.439 min)   9.5 %
                             ****ORCA TERMINATED NORMALLY****
TOTAL RUN TIME: 0 days 0 hours 15 minutes 10 seconds 793 msec
