
                                 *****************
                                 * O   R   C   A *
                                 *****************

                                            #,                                       
                                            ###                                      
                                            ####                                     
                                            #####                                    
                                            ######                                   
                                           ########,                                 
                                     ,,################,,,,,                         
                               ,,#################################,,                 
                          ,,##########################################,,             
                       ,#########################################, ''#####,          
                    ,#############################################,,   '####,        
                  ,##################################################,,,,####,       
                ,###########''''           ''''###############################       
              ,#####''   ,,,,##########,,,,          '''####'''          '####       
            ,##' ,,,,###########################,,,                        '##       
           ' ,,###''''                  '''############,,,                           
         ,,##''                                '''############,,,,        ,,,,,,###''
      ,#''                                            '''#######################'''  
     '                                                          ''''####''''         
             ,#######,   #######,   ,#######,      ##                                
            ,#'     '#,  ##    ##  ,#'     '#,    #''#        ######   ,####,        
            ##       ##  ##   ,#'  ##            #'  '#       #        #'  '#        
            ##       ##  #######   ##           ,######,      #####,   #    #        
            '#,     ,#'  ##    ##  '#,     ,#' ,#      #,         ##   #,  ,#        
             '#######'   ##     ##  '#######'  #'      '#     #####' # '####'        



                  #######################################################
                  #                        -***-                        #
                  #          Department of theory and spectroscopy      #
                  #    Directorship and core code : Frank Neese         #
                  #        Max Planck Institute fuer Kohlenforschung    #
                  #                Kaiser Wilhelm Platz 1               #
                  #                 D-45470 Muelheim/Ruhr               #
                  #                      Germany                        #
                  #                                                     #
                  #                  All rights reserved                #
                  #                        -***-                        #
                  #######################################################


                         Program Version 5.0.3 -  RELEASE  -


 With contributions from (in alphabetic order):
   Daniel Aravena         : Magnetic Suceptibility
   Michael Atanasov       : Ab Initio Ligand Field Theory (pilot matlab implementation)
   Alexander A. Auer      : GIAO ZORA, VPT2 properties, NMR spectrum
   Ute Becker             : Parallelization
   Giovanni Bistoni       : ED, misc. LED, open-shell LED, HFLD
   Martin Brehm           : Molecular dynamics
   Dmytro Bykov           : SCF Hessian
   Vijay G. Chilkuri      : MRCI spin determinant printing, contributions to CSF-ICE
   Dipayan Datta          : RHF DLPNO-CCSD density
   Achintya Kumar Dutta   : EOM-CC, STEOM-CC
   Dmitry Ganyushin       : Spin-Orbit,Spin-Spin,Magnetic field MRCI
   Miquel Garcia          : C-PCM and meta-GGA Hessian, CC/C-PCM, Gaussian charge scheme
   Yang Guo               : DLPNO-NEVPT2, F12-NEVPT2, CIM, IAO-localization
   Andreas Hansen         : Spin unrestricted coupled pair/coupled cluster methods
   Benjamin Helmich-Paris : MC-RPA, TRAH-SCF, COSX integrals
   Lee Huntington         : MR-EOM, pCC
   Robert Izsak           : Overlap fitted RIJCOSX, COSX-SCS-MP3, EOM
   Marcus Kettner         : VPT2
   Christian Kollmar      : KDIIS, OOCD, Brueckner-CCSD(T), CCSD density, CASPT2, CASPT2-K
   Simone Kossmann        : Meta GGA functionals, TD-DFT gradient, OOMP2, MP2 Hessian
   Martin Krupicka        : Initial AUTO-CI
   Lucas Lang             : DCDCAS
   Marvin Lechner         : AUTO-CI (C++ implementation), FIC-MRCC
   Dagmar Lenk            : GEPOL surface, SMD
   Dimitrios Liakos       : Extrapolation schemes; Compound Job, initial MDCI parallelization
   Dimitrios Manganas     : Further ROCIS development; embedding schemes
   Dimitrios Pantazis     : SARC Basis sets
   Anastasios Papadopoulos: AUTO-CI, single reference methods and gradients
   Taras Petrenko         : DFT Hessian,TD-DFT gradient, ASA, ECA, R-Raman, ABS, FL, XAS/XES, NRVS
   Peter Pinski           : DLPNO-MP2, DLPNO-MP2 Gradient
   Christoph Reimann      : Effective Core Potentials
   Marius Retegan         : Local ZFS, SOC
   Christoph Riplinger    : Optimizer, TS searches, QM/MM, DLPNO-CCSD(T), (RO)-DLPNO pert. Triples
   Tobias Risthaus        : Range-separated hybrids, TD-DFT gradient, RPA, STAB
   Michael Roemelt        : Original ROCIS implementation
   Masaaki Saitow         : Open-shell DLPNO-CCSD energy and density
   Barbara Sandhoefer     : DKH picture change effects
   Avijit Sen             : IP-ROCIS
   Kantharuban Sivalingam : CASSCF convergence, NEVPT2, FIC-MRCI
   Bernardo de Souza      : ESD, SOC TD-DFT
   Georgi Stoychev        : AutoAux, RI-MP2 NMR, DLPNO-MP2 response
   Willem Van den Heuvel  : Paramagnetic NMR
   Boris Wezisla          : Elementary symmetry handling
   Frank Wennmohs         : Technical directorship


 We gratefully acknowledge several colleagues who have allowed us to
 interface, adapt or use parts of their codes:
   Stefan Grimme, W. Hujo, H. Kruse, P. Pracht,  : VdW corrections, initial TS optimization,
                  C. Bannwarth, S. Ehlert          DFT functionals, gCP, sTDA/sTD-DF
   Ed Valeev, F. Pavosevic, A. Kumar             : LibInt (2-el integral package), F12 methods
   Garnet Chan, S. Sharma, J. Yang, R. Olivares  : DMRG
   Ulf Ekstrom                                   : XCFun DFT Library
   Mihaly Kallay                                 : mrcc  (arbitrary order and MRCC methods)
   Jiri Pittner, Ondrej Demel                    : Mk-CCSD
   Frank Weinhold                                : gennbo (NPA and NBO analysis)
   Christopher J. Cramer and Donald G. Truhlar   : smd solvation model
   Lars Goerigk                                  : TD-DFT with DH, B97 family of functionals
   V. Asgeirsson, H. Jonsson                     : NEB implementation
   FAccTs GmbH                                   : IRC, NEB, NEB-TS, DLPNO-Multilevel, CI-OPT
                                                   MM, QMMM, 2- and 3-layer-ONIOM, Crystal-QMMM,
                                                   LR-CPCM, SF, NACMEs, symmetry and pop. for TD-DFT,
                                                   nearIR, NL-DFT gradient (VV10), updates on ESD,
                                                   ML-optimized integration grids
   S Lehtola, MJT Oliveira, MAL Marques          : LibXC Library
   Liviu Ungur et al                             : ANISO software


 Your calculation uses the libint2 library for the computation of 2-el integrals
 For citations please refer to: http://libint.valeyev.net

 Your ORCA version has been built with support for libXC version: 5.1.0
 For citations please refer to: https://tddft.org/programs/libxc/

 This ORCA versions uses:
   CBLAS   interface :  Fast vector & matrix operations
   LAPACKE interface :  Fast linear algebra routines
   SCALAPACK package :  Parallel linear algebra routines
   Shared memory     :  Shared parallel matrices
   BLAS/LAPACK       :  OpenBLAS 0.3.15  USE64BITINT DYNAMIC_ARCH NO_AFFINITY Prescott SINGLE_THREADED
        Core in use  :  Prescott
   Copyright (c) 2011-2014, The OpenBLAS Project


Your calculation utilizes the geometrical counterpoise correction gCP
Please cite in your paper:
H.Kruse, S. Grimme J.Chem.Phys., 136, (2012), 154101 
   

Your calculation utilizes the atom-pairwise dispersion correction
with the Becke-Johnson damping scheme (D3BJ)
Cite in your paper:
S.Grimme, S.Ehrlich, L.Goerigk, J Comput Chem, (2011), 32, 1456–1465 
S.Grimme, J.Antony, S.Ehrlich and H.Krieg, J.Chem.Phys., 132, (2010), 154104 
   

Your calculation employs the composite approach PBEh-3c.
Please cite in your paper:
S. Grimme, J. G. Brandenburg, C. Bannwarth, A. Hansen J.Chem.Phys., 143, (2015), 054107 
   

================================================================================

cite the ECPs for Pd [Def2-ECP] as follows:
Ce-Yb(ecp-28): M. Dolg, H. Stoll, H.Preuss, J. Chem. Phys., 1989, 90, 1730-1734.
Y-Cd(ecp-28), Hf-Hg(ecp-46): D. Andrae,U. Haeussermann, M. Dolg, H. Stoll, H. Preuss, Theor. Chim. Acta, 1990, 77, 123-141.
In-Sb(ecp-28), Tl-Bi(ecp-46): B. Metz, H. Stoll, M. Dolg, J. Chem. Phys., 2000, 113, 2563-2569.
Te-Xe(ecp-28), Po-Rn(ecp-46): K. A. Peterson, D. Figgen, E. Goll, H. Stoll, M. Dolg, J. Chem. Phys., 2003, 119, 11113-11123.
Rb(ecp-28), Cs(ecp-46): T. Leininger, A. Nicklass, W. Kuechle, H. Stoll, M. Dolg, A. Bergner, Chem. Phys. Lett., 1996, 255, 274-280.
Sr(ecp-28), Ba(ecp-46): M. Kaupp, P. V. Schleyer, H. Stoll and H. Preuss, J. Chem. Phys., 1991, 94, 1360-1366.
La(ecp-46): M. Dolg, H. Stoll, A. Savin, H. Preuss, Theor. Chim. Acta, 1989, 75, 173-194.
Lu(ecp-28): X. Cao, M. Dolg, J. Chem. Phys., 2001, 115, 7348-7355.

ECP parameters for Pd [Def2-ECP] have been obtained from:
TURBOMOLE (7.0.2)

----- Orbital basis set information -----
Your calculation utilizes the basis: def2-mSVP

----- AuxJ basis set information -----
Your calculation utilizes the auxiliary basis: def2/J
   F. Weigend, Phys. Chem. Chem. Phys. 8, 1057 (2006).

================================================================================
                                        WARNINGS
                       Please study these warnings very carefully!
================================================================================


INFO   : the flag for use of the SHARK integral package has been found!

================================================================================
                                       INPUT FILE
================================================================================
NAME = 3_15_orca.inp
|  1> ! EnGrad PBEh-3c
|  2> %output 
|  3> xyzfile=True 
|  4> end 
|  5> %scf 
|  6> maxiter 250 
|  7> end
|  8> %output
|  9> Print[P_Hirshfeld] = 1
| 10> end
| 11> % maxcore
| 12> 4000
| 13> *xyz -1 1
| 14> C   -2.30400575  -0.16116912   0.70744179 
| 15> C   -1.90315561   1.00618531   1.38817581 
| 16> C   -3.65053065  -0.49236357   0.81008925 
| 17> C   -4.62353225   0.40381708   1.24898548 
| 18> C   -4.22860794   1.61098856   1.79369968 
| 19> C   -2.87226070   1.85547716   1.92840635 
| 20> H   -2.03157319  -1.53512656  -1.11740345 
| 21> H   -3.98028177  -1.45833117   0.44331895 
| 22> H   -2.57011306   2.78865014   2.41538040 
| 23> H   -5.67694051   0.16642003   1.16144526 
| 24> H   -4.96137502   2.33451927   2.12847188 
| 25> C   -0.47688424   1.48799728   1.49236970 
| 26> C    0.63177987   0.46471374   1.80411313 
| 27> H   -0.44657707   2.25703593   2.25874475 
| 28> H   -0.20571603   2.02459478   0.57889798 
| 29> C    1.73441277   0.56051812   0.79615294 
| 30> H    0.22080036  -0.54012562   1.83512412 
| 31> H    1.03395441   0.65789383   2.79816728 
| 32> C    1.65324430  -0.09822878  -0.44014514 
| 33> C    2.67462814   0.13574258  -1.36411039 
| 34> C    3.67280240   1.08096223  -1.12457557 
| 35> C    2.81569220   1.39636473   1.06724021 
| 36> C    3.75130398   1.71681340   0.10207608 
| 37> H    2.70165189  -0.38643051  -2.31249651 
| 38> H    4.41579211   1.30288067  -1.88068995 
| 39> H    2.90163795   1.84834725   2.04511066 
| 40> H    4.53043328   2.44371776   0.30495718 
| 41> Pd   0.14452782  -1.39679390  -0.77948662 
| 42> Br  -1.66430700  -3.43823486  -0.85995173 
| 43> P    1.42276965  -2.96109295   0.10705179 
| 44> H    0.91160699  -3.54262277   1.27563526 
| 45> C    0.37883789  -1.30956562  -3.89054517 
| 46> O    1.51166904  -1.68654811  -4.21750767 
| 47> O   -0.43531346  -1.83407536  -3.09829085 
| 48> O   -0.08002929  -0.10769985  -4.38870705 
| 49> H    2.73704574  -2.74538407   0.52515618 
| 50> H    1.60491340  -4.12283323  -0.64950849 
| 51> H    0.64919087   0.26747049  -4.89699038 
| 52> *
| 53> 
| 54>                          ****END OF INPUT****
================================================================================

                     *******************************
                     * Energy+Gradient Calculation *
                     *******************************

---------------------------------
CARTESIAN COORDINATES (ANGSTROEM)
---------------------------------
  C     -2.304006   -0.161169    0.707442
  C     -1.903156    1.006185    1.388176
  C     -3.650531   -0.492364    0.810089
  C     -4.623532    0.403817    1.248985
  C     -4.228608    1.610989    1.793700
  C     -2.872261    1.855477    1.928406
  H     -2.031573   -1.535127   -1.117403
  H     -3.980282   -1.458331    0.443319
  H     -2.570113    2.788650    2.415380
  H     -5.676941    0.166420    1.161445
  H     -4.961375    2.334519    2.128472
  C     -0.476884    1.487997    1.492370
  C      0.631780    0.464714    1.804113
  H     -0.446577    2.257036    2.258745
  H     -0.205716    2.024595    0.578898
  C      1.734413    0.560518    0.796153
  H      0.220800   -0.540126    1.835124
  H      1.033954    0.657894    2.798167
  C      1.653244   -0.098229   -0.440145
  C      2.674628    0.135743   -1.364110
  C      3.672802    1.080962   -1.124576
  C      2.815692    1.396365    1.067240
  C      3.751304    1.716813    0.102076
  H      2.701652   -0.386431   -2.312497
  H      4.415792    1.302881   -1.880690
  H      2.901638    1.848347    2.045111
  H      4.530433    2.443718    0.304957
  Pd     0.144528   -1.396794   -0.779487
  Br    -1.664307   -3.438235   -0.859952
  P      1.422770   -2.961093    0.107052
  H      0.911607   -3.542623    1.275635
  C      0.378838   -1.309566   -3.890545
  O      1.511669   -1.686548   -4.217508
  O     -0.435313   -1.834075   -3.098291
  O     -0.080029   -0.107700   -4.388707
  H      2.737046   -2.745384    0.525156
  H      1.604913   -4.122833   -0.649508
  H      0.649191    0.267470   -4.896990

----------------------------
CARTESIAN COORDINATES (A.U.)
----------------------------
  NO LB      ZA    FRAG     MASS         X           Y           Z
   0 C     6.0000    0    12.011   -4.353940   -0.304565    1.336871
   1 C     6.0000    0    12.011   -3.596443    1.901415    2.623272
   2 C     6.0000    0    12.011   -6.898503   -0.930432    1.530847
   3 C     6.0000    0    12.011   -8.737210    0.763104    2.360241
   4 C     6.0000    0    12.011   -7.990911    3.044327    3.389601
   5 C     6.0000    0    12.011   -5.427786    3.506344    3.644160
   6 H     1.0000    0     1.008   -3.839117   -2.900969   -2.111587
   7 H     1.0000    0     1.008   -7.521642   -2.755847    0.837751
   8 H     1.0000    0     1.008   -4.856810    5.269785    4.564407
   9 H     1.0000    0     1.008  -10.727863    0.314488    2.194813
  10 H     1.0000    0     1.008   -9.375640    4.411602    4.022229
  11 C     6.0000    0    12.011   -0.901181    2.811907    2.820170
  12 C     6.0000    0    12.011    1.193891    0.878182    3.409280
  13 H     1.0000    0     1.008   -0.843908    4.265180    4.268409
  14 H     1.0000    0     1.008   -0.388747    3.825930    1.093959
  15 C     6.0000    0    12.011    3.277565    1.059226    1.504511
  16 H     1.0000    0     1.008    0.417252   -1.020689    3.467882
  17 H     1.0000    0     1.008    1.953891    1.243239    5.287770
  18 C     6.0000    0    12.011    3.124179   -0.185625   -0.831754
  19 C     6.0000    0    12.011    5.054315    0.256516   -2.577795
  20 C     6.0000    0    12.011    6.940591    2.042723   -2.125140
  21 C     6.0000    0    12.011    5.320887    2.638747    2.016792
  22 C     6.0000    0    12.011    7.088937    3.244307    0.192896
  23 H     1.0000    0     1.008    5.105382   -0.730248   -4.369985
  24 H     1.0000    0     1.008    8.344638    2.462088   -3.553989
  25 H     1.0000    0     1.008    5.483301    3.492870    3.864699
  26 H     1.0000    0     1.008    8.561278    4.617957    0.576286
  27 Pd   18.0000*   0   106.400    0.273118   -2.639558   -1.473016
  28 Br   35.0000    0    79.900   -3.145084   -6.497322   -1.625073
  29 P    15.0000    0    30.974    2.688645   -5.595655    0.202299
  30 H     1.0000    0     1.008    1.722688   -6.694587    2.410601
  31 C     6.0000    0    12.011    0.715900   -2.474720   -7.352065
  32 O     8.0000    0    15.999    2.856640   -3.187114   -7.969934
  33 O     8.0000    0    15.999   -0.822623   -3.465900   -5.854921
  34 O     8.0000    0    15.999   -0.151233   -0.203523   -8.293454
  35 H     1.0000    0     1.008    5.172267   -5.188024    0.992401
  36 H     1.0000    0     1.008    3.032847   -7.791026   -1.227393
  37 H     1.0000    0     1.008    1.226793    0.505446   -9.253971
* core charge reduced due to ECP

--------------------------------
INTERNAL COORDINATES (ANGSTROEM)
--------------------------------
 C      0   0   0     0.000000000000     0.00000000     0.00000000
 C      1   0   0     1.409537514919     0.00000000     0.00000000
 C      1   2   0     1.390451570920   115.91349840     0.00000000
 C      3   1   2     1.393736622087   123.10383666    15.86619688
 C      4   3   1     1.382006422719   119.09654161   350.19799648
 C      5   4   3     1.384773771389   118.19385467   357.47635864
 H      1   2   3     2.300443152227   147.57165658   145.99636217
 H      3   1   2     1.084596541739   118.79005389   189.74059408
 H      6   5   4     1.095102156117   117.64229977   183.56077393
 H      4   3   1     1.083369563770   120.82855930   169.80568946
 H      5   4   3     1.082828106274   120.80596086   178.98553047
 C      2   1   3     1.509055718663   124.51008914   175.26513983
 C     12   2   1     1.540593807006   118.81986448   316.17001153
 H     12   2   1     1.086125999601   107.52733308   193.36685412
 H     12   2   1     1.093571972190   109.47244943    81.45908798
 C     13  12   2     1.496984146881   110.56700387   127.62272628
 H     13  12   2     1.086079176923   110.36462695     4.51701034
 H     13  12   2     1.089590088487   109.41872506   248.10092083
 C     16  13  12     1.403199466004   121.37167690   276.53462247
 C     19  16  13     1.397025171255   117.50317289   174.76256066
 C     20  19  16     1.395409964872   121.52692199   354.12886851
 C     16  13  12     1.393302935167   118.62046946    92.16910646
 C     22  16  13     1.381882249259   121.91455063   191.33289913
 H     20  19  16     1.082973338357   121.10970549   176.34780103
 H     21  20  19     1.083046840548   120.64263365   184.51265648
 H     22  16  13     1.080696760110   119.25314468     8.22166744
 H     23  22  16     1.084708788313   120.73607777   174.03378711
 Pd    19  16  13     2.019319050560   119.54943677   351.74947584
 Br     7   1   2     1.955246031572   119.94220155   125.19163847
 P     28  19  16     2.206101549385    87.45258579   272.16104810
 H     30  28  19     1.401802954372   114.70059216   117.40144455
 C     24  20  19     2.955990677123   126.76055616    31.80145589
 O     32  24  20     1.237871838513    61.11804864   190.36444163
 O     32  24  20     1.251247295949   107.70943235   316.18032181
 O     32  24  20     1.379567206288   100.49068435    73.69956753
 H     30  28  19     1.395945286390   123.80064342   356.27968765
 H     30  28  19     1.398284763956   116.56229824   232.19294926
 H     35  32  24     0.964814370396   106.11718215    59.13205423

---------------------------
INTERNAL COORDINATES (A.U.)
---------------------------
 C      0   0   0     0.000000000000     0.00000000     0.00000000
 C      1   0   0     2.663639878685     0.00000000     0.00000000
 C      1   2   0     2.627572671520   115.91349840     0.00000000
 C      3   1   2     2.633780518560   123.10383666    15.86619688
 C      4   3   1     2.611613654259   119.09654161   350.19799648
 C      5   4   3     2.616843185363   118.19385467   357.47635864
 H      1   2   3     4.347207544364   147.57165658   145.99636217
 H      3   1   2     2.049590429686   118.79005389   189.74059408
 H      6   5   4     2.069443163729   117.64229977   183.56077393
 H      4   3   1     2.047271777350   120.82855930   169.80568946
 H      5   4   3     2.046248570971   120.80596086   178.98553047
 C      2   1   3     2.851702029101   124.51008914   175.26513983
 C     12   2   1     2.911300378856   118.81986448   316.17001153
 H     12   2   1     2.052480686178   107.52733308   193.36685412
 H     12   2   1     2.066551535172   109.47244943    81.45908798
 C     13  12   2     2.828890064428   110.56700387   127.62272628
 H     13  12   2     2.052392204139   110.36462695     4.51701034
 H     13  12   2     2.059026865475   109.41872506   248.10092083
 C     16  13  12     2.651662702012   121.37167690   276.53462247
 C     19  16  13     2.639994975867   117.50317289   174.76256066
 C     20  19  16     2.636942678153   121.52692199   354.12886851
 C     16  13  12     2.632960969055   118.62046946    92.16910646
 C     22  16  13     2.611379000427   121.91455063   191.33289913
 H     20  19  16     2.046523019834   121.10970549   176.34780103
 H     21  20  19     2.046661918844   120.64263365   184.51265648
 H     22  16  13     2.042220910424   119.25314468     8.22166744
 H     23  22  16     2.049802544968   120.73607777   174.03378711
 Pd    19  16  13     3.815959982567   119.54943677   351.74947584
 Br     7   1   2     3.694879524107   119.94220155   125.19163847
 P     28  19  16     4.168927751957    87.45258579   272.16104810
 H     30  28  19     2.649023677484   114.70059216   117.40144455
 C     24  20  19     5.586012834187   126.76055616    31.80145589
 O     32  24  20     2.339238763683    61.11804864   190.36444163
 O     32  24  20     2.364514715154   107.70943235   316.18032181
 O     32  24  20     2.607004203222   100.49068435    73.69956753
 H     30  28  19     2.637954289215   123.80064342   356.27968765
 H     30  28  19     2.642375261112   116.56229824   232.19294926
 H     35  32  24     1.823234930120   106.11718215    59.13205423

---------------------
BASIS SET INFORMATION
---------------------
There are 6 groups of distinct atoms

 Group   1 Type C   : 8s4p1d contracted to 4s2p1d pattern {5111/31/1}
 Group   2 Type H   : 4s contracted to 2s pattern {31}
 Group   3 Type Pd  : 7s6p5d1f contracted to 5s3p2d1f pattern {31111/411/41/1}
 Group   4 Type Br  : 14s10p6d contracted to 5s4p3d pattern {63311/5311/411}
 Group   5 Type P   : 10s7p1d contracted to 4s3p1d pattern {5311/511/1}
 Group   6 Type O   : 8s4p1d contracted to 4s2p1d pattern {5111/31/1}

Atom   0C    basis set group =>   1
Atom   1C    basis set group =>   1
Atom   2C    basis set group =>   1
Atom   3C    basis set group =>   1
Atom   4C    basis set group =>   1
Atom   5C    basis set group =>   1
Atom   6H    basis set group =>   2
Atom   7H    basis set group =>   2
Atom   8H    basis set group =>   2
Atom   9H    basis set group =>   2
Atom  10H    basis set group =>   2
Atom  11C    basis set group =>   1
Atom  12C    basis set group =>   1
Atom  13H    basis set group =>   2
Atom  14H    basis set group =>   2
Atom  15C    basis set group =>   1
Atom  16H    basis set group =>   2
Atom  17H    basis set group =>   2
Atom  18C    basis set group =>   1
Atom  19C    basis set group =>   1
Atom  20C    basis set group =>   1
Atom  21C    basis set group =>   1
Atom  22C    basis set group =>   1
Atom  23H    basis set group =>   2
Atom  24H    basis set group =>   2
Atom  25H    basis set group =>   2
Atom  26H    basis set group =>   2
Atom  27Pd   basis set group =>   3
Atom  28Br   basis set group =>   4
Atom  29P    basis set group =>   5
Atom  30H    basis set group =>   2
Atom  31C    basis set group =>   1
Atom  32O    basis set group =>   6
Atom  33O    basis set group =>   6
Atom  34O    basis set group =>   6
Atom  35H    basis set group =>   2
Atom  36H    basis set group =>   2
Atom  37H    basis set group =>   2
---------------------------------
AUXILIARY/J BASIS SET INFORMATION
---------------------------------
There are 6 groups of distinct atoms

 Group   1 Type C   : 12s5p4d2f1g contracted to 6s4p3d1f1g pattern {711111/2111/211/2/1}
 Group   2 Type H   : 5s2p1d contracted to 3s1p1d pattern {311/2/1}
 Group   3 Type Pd  : 11s5p5d3f3g contracted to 8s5p5d2f3g pattern {41111111/11111/11111/21/111}
 Group   4 Type Br  : 19s5p5d3f1g contracted to 8s4p3d2f1g pattern {121111111/2111/311/21/1}
 Group   5 Type P   : 14s5p5d2f1g contracted to 8s4p3d1f1g pattern {71111111/2111/311/2/1}
 Group   6 Type O   : 12s5p4d2f1g contracted to 6s4p3d1f1g pattern {711111/2111/211/2/1}

Atom   0C    basis set group =>   1
Atom   1C    basis set group =>   1
Atom   2C    basis set group =>   1
Atom   3C    basis set group =>   1
Atom   4C    basis set group =>   1
Atom   5C    basis set group =>   1
Atom   6H    basis set group =>   2
Atom   7H    basis set group =>   2
Atom   8H    basis set group =>   2
Atom   9H    basis set group =>   2
Atom  10H    basis set group =>   2
Atom  11C    basis set group =>   1
Atom  12C    basis set group =>   1
Atom  13H    basis set group =>   2
Atom  14H    basis set group =>   2
Atom  15C    basis set group =>   1
Atom  16H    basis set group =>   2
Atom  17H    basis set group =>   2
Atom  18C    basis set group =>   1
Atom  19C    basis set group =>   1
Atom  20C    basis set group =>   1
Atom  21C    basis set group =>   1
Atom  22C    basis set group =>   1
Atom  23H    basis set group =>   2
Atom  24H    basis set group =>   2
Atom  25H    basis set group =>   2
Atom  26H    basis set group =>   2
Atom  27Pd   basis set group =>   3
Atom  28Br   basis set group =>   4
Atom  29P    basis set group =>   5
Atom  30H    basis set group =>   2
Atom  31C    basis set group =>   1
Atom  32O    basis set group =>   6
Atom  33O    basis set group =>   6
Atom  34O    basis set group =>   6
Atom  35H    basis set group =>   2
Atom  36H    basis set group =>   2
Atom  37H    basis set group =>   2
-------------------------
ECP PARAMETER INFORMATION
-------------------------

 Group 1, Type Pd ECP Def2-ECP (replacing 28 core electrons, lmax=3)

Atom  27Pd   ECP group =>   1

------------------------------------------------------------------------------
                           ORCA GTO INTEGRAL CALCULATION
                           -- RI-GTO INTEGRALS CHOSEN --
------------------------------------------------------------------------------
------------------------------------------------------------------------------
                   ___                                                        
                  /   \      - P O W E R E D   B Y -                         
                 /     \                                                     
                 |  |  |   _    _      __       _____    __    __             
                 |  |  |  | |  | |    /  \     |  _  \  |  |  /  |          
                  \  \/   | |  | |   /    \    | | | |  |  | /  /          
                 / \  \   | |__| |  /  /\  \   | |_| |  |  |/  /          
                |  |  |   |  __  | /  /__\  \  |    /   |      \           
                |  |  |   | |  | | |   __   |  |    \   |  |\   \          
                \     /   | |  | | |  |  |  |  | |\  \  |  | \   \       
                 \___/    |_|  |_| |__|  |__|  |_| \__\ |__|  \__/        
                                                                              
                      - O R C A' S   B I G   F R I E N D -                    
                                      &                                       
                       - I N T E G R A L  F E E D E R -                       
                                                                              
 v1 FN, 2020, v2 2021                                                         
------------------------------------------------------------------------------


Reading SHARK input file 3_15_orca.SHARKINP.tmp ... ok
----------------------
SHARK INTEGRAL PACKAGE
----------------------

Number of atoms                             ...     38
Number of basis functions                   ...    385
Number of shells                            ...    191
Maximum angular momentum                    ...      3
Integral batch strategy                     ... SHARK/LIBINT Hybrid
RI-J (if used) integral strategy            ... SPLIT-RIJ (Revised 2003 algorithm where possible)
Printlevel                                  ...      1
Contraction scheme used                     ... SEGMENTED contraction
Coulomb Range Separation                    ... NOT USED
Exchange Range Separation                   ... NOT USED
Finite Nucleus Model                        ... NOT USED
Auxiliary Coulomb fitting basis             ... AVAILABLE
   # of basis functions in Aux-J            ...   1267
   # of shells in Aux-J                     ...    413
   Maximum angular momentum in Aux-J        ...      4
Auxiliary J/K fitting basis                 ... NOT available
Auxiliary Correlation fitting basis         ... NOT available
Auxiliary 'external' fitting basis          ... NOT available
Integral threshold                          ...     2.500000e-11
Primitive cut-off                           ...     2.500000e-12
Primitive pair pre-selection threshold      ...     2.500000e-12

Calculating pre-screening integrals         ... done (  0.1 sec) Dimension = 191
Organizing shell pair data                  ... done (  0.1 sec)
Shell pair information
Total number of shell pairs                 ...     18336
Shell pairs after pre-screening             ...     12172
Total number of primitive shell pairs       ...     68628
Primitive shell pairs kept                  ...     27989
          la=0 lb=0:   4314 shell pairs
          la=1 lb=0:   4072 shell pairs
          la=1 lb=1:    930 shell pairs
          la=2 lb=0:   1705 shell pairs
          la=2 lb=1:    830 shell pairs
          la=2 lb=2:    179 shell pairs
          la=3 lb=0:     78 shell pairs
          la=3 lb=1:     43 shell pairs
          la=3 lb=2:     20 shell pairs
          la=3 lb=3:      1 shell pairs

Calculating one electron integrals          ... done (  0.1 sec)
Calculating ECP integrals                   ... done (  0.4 sec)
Calculating RI/J V-Matrix + Cholesky decomp.... done (  0.1 sec)
Calculating Nuclear repulsion               ... done (  0.0 sec) ENN=   2523.767546099078 Eh

SHARK setup successfully completed in   1.1 seconds

Maximum memory used throughout the entire GTOINT-calculation: 94.8 MB
-------------------------------------------------------------------------------
                                 ORCA SCF
-------------------------------------------------------------------------------

------------
SCF SETTINGS
------------
Hamiltonian:
 Density Functional     Method          .... DFT(GTOs)
 Exchange Functional    Exchange        .... PBE
   PBE kappa parameter   XKappa         ....  1.024500
   PBE mue parameter    XMuePBE         ....  0.123457
 Correlation Functional Correlation     .... PBE
   PBE beta parameter  CBetaPBE         ....  0.030000
 LDA part of GGA corr.  LDAOpt          .... PW91-LDA
 Gradients option       PostSCFGGA      .... off
 Hybrid DFT is turned on
   Fraction HF Exchange ScalHFX         ....  0.420000
   Scaling of DF-GGA-X  ScalDFX         ....  0.580000
   Scaling of DF-GGA-C  ScalDFC         ....  1.000000
   Scaling of DF-LDA-C  ScalLDAC        ....  1.000000
   Perturbative correction              ....  0.000000
   Density functional embedding theory  .... OFF
 RI-approximation to the Coulomb term is turned on
   Number of AuxJ basis functions       .... 1267
   RIJ-ON(X) (HFX calculated with O(N)) .... on
   Number of AuxJ basis functions       .... 1267
   RIJ-COSX (HFX calculated with COS-X)).... on


General Settings:
 Integral files         IntName         .... 3_15_orca
 Hartree-Fock type      HFTyp           .... RHF
 Total Charge           Charge          ....   -1
 Multiplicity           Mult            ....    1
 Number of Electrons    NEL             ....  200
 Basis Dimension        Dim             ....  385
 Nuclear Repulsion      ENuc            ....   2523.7675460991 Eh

Convergence Acceleration:
 DIIS                   CNVDIIS         .... on
   Start iteration      DIISMaxIt       ....    12
   Startup error        DIISStart       ....  0.200000
   # of expansion vecs  DIISMaxEq       ....     5
   Bias factor          DIISBfac        ....   1.050
   Max. coefficient     DIISMaxC        ....  10.000
 Trust-Rad. Augm. Hess. CNVTRAH         .... auto
   Auto Start mean grad. ratio tolernc. ....  1.125000
   Auto Start start iteration           ....    20
   Auto Start num. interpolation iter.  ....    10
   Max. Number of Micro iterations      ....    16
   Max. Number of Macro iterations      .... Maxiter - #DIIS iter
   Number of Davidson start vectors     ....     2
   Converg. threshold I  (grad. norm)   ....   1.000e-05
   Converg. threshold II (energy diff.) ....   1.000e-08
   Grad. Scal. Fac. for Micro threshold ....   0.100
   Minimum threshold for Micro iter.    ....   0.010
   NR start threshold (gradient norm)   ....   0.001
   Initial trust radius                 ....   0.400
   Minimum AH scaling param. (alpha)    ....   1.000
   Maximum AH scaling param. (alpha)    .... 1000.000
   Orbital update algorithm             .... Taylor
   White noise on init. David. guess    .... on
   Maximum white noise                  ....   0.010
   Quad. conv. algorithm                .... NR
   COSX micro iterations for RIJONX calc.... off
 SOSCF                  CNVSOSCF        .... off
 Level Shifting         CNVShift        .... on
   Level shift para.    LevelShift      ....    0.2500
   Turn off err/grad.   ShiftErr        ....    0.0010
 Zerner damping         CNVZerner       .... off
 Static damping         CNVDamp         .... on
   Fraction old density DampFac         ....    0.7000
   Max. Damping (<1)    DampMax         ....    0.9800
   Min. Damping (>=0)   DampMin         ....    0.0000
   Turn off err/grad.   DampErr         ....    0.1000
 Fernandez-Rico         CNVRico         .... off

SCF Procedure:
 Maximum # iterations   MaxIter         ....   250
 SCF integral mode      SCFMode         .... Direct
   Integral package                     .... SHARK and LIBINT hybrid scheme
 Reset frequency        DirectResetFreq ....    20
 Integral Threshold     Thresh          ....  2.500e-11 Eh
 Primitive CutOff       TCut            ....  2.500e-12 Eh

Convergence Tolerance:
 Convergence Check Mode ConvCheckMode   .... Total+1el-Energy
 Convergence forced     ConvForced      .... 0
 Energy Change          TolE            ....  1.000e-08 Eh
 1-El. energy change                    ....  1.000e-05 Eh
 DIIS Error             TolErr          ....  5.000e-07


Diagonalization of the overlap matrix:
Smallest eigenvalue                        ... 3.886e-04
Time for diagonalization                   ...    0.056 sec
Threshold for overlap eigenvalues          ... 1.000e-08
Number of eigenvalues below threshold      ... 0
Time for construction of square roots      ...    0.035 sec
Total time needed                          ...    0.092 sec

--------------------------------
INITIAL GUESS: MINIMAL BASIS EHT
--------------------------------
The minimal basis has 147 functions
EHT matrix was diagonalized
Basis set overlap was calculated now projecting the orbitals
Using GuessMode=FMatrix for the initial guess
C*T matrix was formed
Effective Fockian was calculated
Effective Fockian was diagonalized
Initial density was built
                      ------------------
                      INITIAL GUESS DONE
                      ------------------
-------------------
DFT GRID GENERATION
-------------------

General Integration Accuracy     IntAcc      ... 4.159
Radial Grid Type                 RadialGrid  ... OptM3 with GC (2021)
Angular Grid (max. ang.)         AngularGrid ... 3 (Lebedev-194)
Angular grid pruning method      GridPruning ... 4 (adaptive)
Weight generation scheme         WeightScheme... Becke
Basis function cutoff            BFCut       ... 1.0000e-11
Integration weight cutoff        WCut        ... 1.0000e-14
Angular grids for H and He will be reduced by one unit
Partially contracted basis set               ... off
Rotationally invariant grid construction     ... off

Total number of grid points                  ...    96768
Total number of batches                      ...     1529
Average number of points per batch           ...       63
Average number of grid points per atom       ...     2547
Time for grid setup =    2.070 sec

--------------------
COSX GRID GENERATION
--------------------

GRIDX 1
-------
General Integration Accuracy     IntAcc      ... 3.816
Radial Grid Type                 RadialGrid  ... OptM3 with GC (2021)
Angular Grid (max. ang.)         AngularGrid ... 1 (Lebedev-50)
Angular grid pruning method      GridPruning ... 4 (adaptive)
Weight generation scheme         WeightScheme... Becke
Basis function cutoff            BFCut       ... 1.0000e-11
Integration weight cutoff        WCut        ... 1.0000e-14
Angular grids for H and He will be reduced by one unit
Partially contracted basis set               ... on
Rotationally invariant grid construction     ... off

Total number of grid points                  ...    23648
Total number of batches                      ...      385
Average number of points per batch           ...       61
Average number of grid points per atom       ...      622
UseSFitting                                  ... on

GRIDX 2
-------
General Integration Accuracy     IntAcc      ... 4.020
Radial Grid Type                 RadialGrid  ... OptM3 with GC (2021)
Angular Grid (max. ang.)         AngularGrid ... 2 (Lebedev-110)
Angular grid pruning method      GridPruning ... 4 (adaptive)
Weight generation scheme         WeightScheme... Becke
Basis function cutoff            BFCut       ... 1.0000e-11
Integration weight cutoff        WCut        ... 1.0000e-14
Angular grids for H and He will be reduced by one unit
Partially contracted basis set               ... on
Rotationally invariant grid construction     ... off

Total number of grid points                  ...    51276
Total number of batches                      ...      820
Average number of points per batch           ...       62
Average number of grid points per atom       ...     1349
UseSFitting                                  ... on

GRIDX 3
-------
General Integration Accuracy     IntAcc      ... 4.338
Radial Grid Type                 RadialGrid  ... OptM3 with GC (2021)
Angular Grid (max. ang.)         AngularGrid ... 3 (Lebedev-194)
Angular grid pruning method      GridPruning ... 4 (adaptive)
Weight generation scheme         WeightScheme... Becke
Basis function cutoff            BFCut       ... 1.0000e-11
Integration weight cutoff        WCut        ... 1.0000e-14
Angular grids for H and He will be reduced by one unit
Partially contracted basis set               ... on
Rotationally invariant grid construction     ... off

Total number of grid points                  ...   111951
Total number of batches                      ...     1764
Average number of points per batch           ...       63
Average number of grid points per atom       ...     2946
UseSFitting                                  ... on

Time for X-Grid setup             =    5.393 sec

--------------
SCF ITERATIONS
--------------
ITER       Energy         Delta-E        Max-DP      RMS-DP      [F,P]     Damp
               ***  Starting incremental Fock matrix formation  ***
  0  -3827.3825480727   0.000000000000 4.97418710  0.05211874  5.2111020 0.7000
  1  -3811.1776977118  16.204850360886 5.97941303  0.05400494  3.9936931 0.7000
  2  -3807.0763433810   4.101354330802 2.95048056  0.03229532  2.5956237 0.7000
  3  -3814.4152862448  -7.338942863853 4.47106562  0.03575310  1.9267412 0.7000
  4  -3811.2101081462   3.205178098618 2.70133213  0.03313305  1.2460159 0.7000
  5  -3813.7262820695  -2.516173923253 3.34154389  0.03899054  0.9781294 0.7000
  6  -3802.3373841730  11.388897896460 2.95894277  0.03137755  0.5791933 0.7000
  7  -3811.4726683058  -9.135284132809 3.92286675  0.03868310  0.5077494 0.7000
  8  -3809.7984071715   1.674261134339 3.28540105  0.04120190  0.2971172 0.7000
  9  -3809.7987668845  -0.000359712980 3.19049156  0.03911413  0.2841391 0.7000
 10  -3795.7822600078  14.016506876652 2.66628056  0.03153140  0.2563863 0.7000
 11  -3808.9560453641 -13.173785356307 2.98975624  0.03661095  0.2638705 0.7000
                               ***Turning on DIIS***
 12  -3810.7394897979  -1.783444433796 2.64617125  0.03309884  0.1869641 0.7000
 13  -3810.4181611007   0.321328697185 2.06241534  0.02418315  0.2802566 0.7000
 14  -3816.7204393672  -6.302278266442 1.47144440  0.01725890  0.3033081 0.7000
 15  -3822.0342739849  -5.313834617735 1.04955522  0.01219007  0.4025765 0.7000
 16  -3826.8351698829  -4.800895897973 0.75322408  0.00862433  0.4763247 0.7000
 17  -3831.2321664351  -4.396996552197 4.21969116  0.04273654  0.5286845 0.7000
 18  -3818.2206671857  13.011499249332 1.55002311  0.01658519  0.3145228 0.7000
 19  -3825.0600594714  -6.839392285642 1.13850450  0.01303717  0.2810894 0.7000
               *** Restarting incremental Fock matrix formation ***
                                   *** Resetting DIIS ***

 WARNING: the maximum gradient error descreased on average only by a factor   1.0
          during the last 20 iterations

                      *** Initiating the TRAH-SCF procedure ***


TRAH GRIDX
----------

General Integration Accuracy     IntAcc      ... 3.067
Radial Grid Type                 RadialGrid  ... OptM3 with GC (2021)
Angular Grid (max. ang.)         AngularGrid ... 1 (Lebedev-50)
Angular grid pruning method      GridPruning ... 4 (adaptive)
Weight generation scheme         WeightScheme... Becke
Basis function cutoff            BFCut       ... 1.0000e-11
Integration weight cutoff        WCut        ... 1.0000e-14
Angular grids for H and He will be reduced by one unit
Partially contracted basis set               ... on
Rotationally invariant grid construction     ... off

Total number of grid points                  ...    12926
Total number of batches                      ...      223
Average number of points per batch           ...       57
Average number of grid points per atom       ...      340


TRAH GRID
---------

General Integration Accuracy     IntAcc      ... 3.467
Radial Grid Type                 RadialGrid  ... OptM3 with GC (2021)
Angular Grid (max. ang.)         AngularGrid ... 1 (Lebedev-50)
Angular grid pruning method      GridPruning ... 4 (adaptive)
Weight generation scheme         WeightScheme... Becke
Basis function cutoff            BFCut       ... 1.0000e-11
Integration weight cutoff        WCut        ... 1.0000e-14
Angular grids for H and He will be reduced by one unit
Partially contracted basis set               ... off
Rotationally invariant grid construction     ... off

Total number of grid points                  ...    32863
Total number of batches                      ...      531
Average number of points per batch           ...       61
Average number of grid points per atom       ...      865

 --------------------------------------------------------------------------------------------
   Iter.        energy            ||Error||_2        Shift      TRadius  Mac/Mic        Rej.
 --------------------------------------------------------------------------------------------
WARNING: 78 diagonal Hessian elements are negative!
    0      -3846.370285218058     3.813811e+00                     0.400 (TRAH MAcro)   No
WARNING : negative HOMO - LUMO gap : -0.413892
    0     dE    -8.216577e-01     3.241923e+00    -1.4386e+00      0.377 (TRAH MIcro)
    0     dE    -9.853188e-01     1.020567e+00    -3.9938e+00      0.400 (TRAH MIcro)
    0     dE    -9.975593e-01     2.397738e-01    -3.9376e+00      0.400 (TRAH MIcro)
    0     dE    -9.986606e-01     7.295947e-02    -3.8948e+00      0.400 (TRAH MIcro)
    0     dE    -9.988619e-01     2.119605e-02    -3.8951e+00      0.400 (TRAH MIcro)
    0     dE    -9.988867e-01     7.636080e-03    -3.8976e+00      0.400 (TRAH MIcro)
    1      -3847.334266525783     1.346837e+00                     0.480 (TRAH MAcro)   No
    1     dE    -1.494189e-01     9.590971e-01    -2.8595e-01      0.212 (TRAH MIcro)
    1     dE    -2.422236e-01     2.740346e-01    -4.1550e-01      0.407 (TRAH MIcro)
    1     dE    -2.512395e-01     1.074947e-01    -4.2497e-01      0.427 (TRAH MIcro)
    1     dE    -2.530550e-01     4.811497e-02    -4.2615e-01      0.433 (TRAH MIcro)
    1     dE    -2.535273e-01     1.651661e-02    -4.2636e-01      0.435 (TRAH MIcro)
    1     dE    -2.536695e-01     6.523203e-03    -4.2639e-01      0.436 (TRAH MIcro)
    2      -3847.573250036723     2.089736e-01                     0.576 (TRAH MAcro)   No
    2     dE    -7.562760e-03     1.016793e+00    -1.5047e-02      0.072 (TRAH MIcro)
    2     dE    -1.357956e-02     3.897330e-01    -2.6609e-02      0.144 (TRAH MIcro)
    2     dE    -1.448756e-02     4.609924e-02    -2.8271e-02      0.158 (TRAH MIcro)
    2     dE    -1.463249e-02     7.252060e-02    -2.8523e-02      0.161 (TRAH MIcro)
    2     dE    -1.466480e-02     2.729014e-02    -2.8571e-02      0.163 (TRAH MIcro)
    2     dE    -1.467263e-02     3.161074e-03    -2.8581e-02      0.164 (TRAH MIcro)
    3      -3847.588048513595     3.200662e-02                     0.691 (TRAH MAcro)   No
    3     dE    -5.319677e-05     1.715066e-01    -1.0639e-04      0.003 (TRAH MIcro)
    3     dE    -1.191399e-04     2.727937e-02    -2.3825e-04      0.011 (TRAH MIcro)
    3     dE    -1.265864e-04     2.196070e-02    -2.5313e-04      0.013 (TRAH MIcro)
    3     dE    -1.282635e-04     2.871224e-03    -2.5648e-04      0.014 (TRAH MIcro)
    4      -3847.588178496687     2.877347e-03                     0.829 (TRAH MAcro)   No
    4     dE    -3.873325e-09     2.257161e-03    -7.9846e-09      0.000 (TRAH MIcro)
    4     dE    -2.857715e-07     1.228944e-03    -5.7154e-07      0.001 (TRAH MIcro)
    4     dE    -4.148660e-07     6.770169e-04    -8.2973e-07      0.001 (TRAH MIcro)
    4     dE    -4.462031e-07     2.133919e-04    -8.9241e-07      0.001 (TRAH MIcro)
    5      -3847.588178955988     2.134811e-04                           (NR   MAcro)
    5     dE    -4.205639e-09     1.079555e-04                           (NR   MIcro)
    5     dE    -5.744519e-09     6.428541e-05                           (NR   MIcro)
    5     dE    -6.134654e-09     4.256030e-05                           (NR   MIcro)
    5     dE    -6.279587e-09     1.440315e-05                           (NR   MIcro)
    5     dE    -6.293414e-09     6.157182e-06                           (NR   MIcro)
    5     dE    -6.297108e-09     3.160355e-06                           (NR   MIcro)
    5     dE    -6.297732e-09     1.444742e-06                           (NR   MIcro)
    5     dE    -6.297838e-09     4.618110e-07                           (NR   MIcro)
    6      -3847.588178963862     5.826476e-07                           (NR   MAcro)

               *****************************************************
               *                     SUCCESS                       *
               *           SCF CONVERGED AFTER  61 CYCLES          *
               *****************************************************

Old exchange energy                            =    -97.712414560 Eh
New exchange energy                            =    -97.712264846 Eh
Exchange energy change after final integration =      0.000149715 Eh
Total energy after final integration           =  -3847.588029249 Eh
Final COS-X integration done in                =    55.388 sec

----------------
TOTAL SCF ENERGY
----------------

Total Energy       :        -3847.58802925 Eh         -104698.19303 eV

Components:
Nuclear Repulsion  :         2523.76754610 Eh           68675.20631 eV
Electronic Energy  :        -6371.35557535 Eh         -173373.39934 eV
One Electron Energy:       -10430.83391240 Eh         -283837.42077 eV
Two Electron Energy:         4059.47833705 Eh          110464.02143 eV
Max COSX asymmetry :            0.00004480 Eh               0.00122 eV

Virial components:
Potential Energy   :        -7606.64171178 Eh         -206987.24401 eV
Kinetic Energy     :         3759.05368253 Eh          102289.05098 eV
Virial Ratio       :            2.02355230


DFT components:
N(Alpha)           :       99.999847963477 electrons
N(Beta)            :       99.999847963477 electrons
N(Total)           :      199.999695926953 electrons
E(X)               :     -130.810402101285 Eh       
E(C)               :       -9.708730385736 Eh       
E(XC)              :     -140.519132487021 Eh       
DFET-embed. en.    :        0.000000000000 Eh       

---------------
SCF CONVERGENCE
---------------

  Last Energy change         ...   -7.8744e-09  Tolerance :   1.0000e-08
  Last Orbital Gradient      ...    5.8265e-07  Tolerance :   1.0000e-05
  Last Orbital Rotation      ...    1.3073e-04

             **** THE GBW FILE WAS UPDATED (3_15_orca.gbw) ****
             **** DENSITY 3_15_orca.scfp WAS UPDATED ****
             **** ENERGY FILE WAS UPDATED (3_15_orca.en.tmp) ****
             **** THE GBW FILE WAS UPDATED (3_15_orca.gbw) ****
             **** DENSITY 3_15_orca.scfp WAS UPDATED ****
----------------
ORBITAL ENERGIES
----------------

  NO   OCC          E(Eh)            E(eV) 
   0   2.0000    -484.387054    -13180.8418 
   1   2.0000     -77.690280     -2114.0600 
   2   2.0000     -63.048405     -1715.6343 
   3   2.0000     -56.752446     -1544.3126 
   4   2.0000     -56.750959     -1544.2721 
   5   2.0000     -56.750568     -1544.2615 
   6   2.0000     -19.355609      -526.6929 
   7   2.0000     -19.286711      -524.8181 
   8   2.0000     -19.281102      -524.6654 
   9   2.0000     -10.417712      -283.4804 
  10   2.0000     -10.361135      -281.9408 
  11   2.0000     -10.352649      -281.7099 
  12   2.0000     -10.348912      -281.6082 
  13   2.0000     -10.346722      -281.5486 
  14   2.0000     -10.346641      -281.5464 
  15   2.0000     -10.339933      -281.3639 
  16   2.0000     -10.335701      -281.2487 
  17   2.0000     -10.334347      -281.2119 
  18   2.0000     -10.330248      -281.1003 
  19   2.0000     -10.330106      -281.0965 
  20   2.0000     -10.329494      -281.0798 
  21   2.0000     -10.328476      -281.0521 
  22   2.0000     -10.325080      -280.9597 
  23   2.0000     -10.320530      -280.8359 
  24   2.0000      -8.875635      -241.5183 
  25   2.0000      -6.765857      -184.1083 
  26   2.0000      -6.646798      -180.8686 
  27   2.0000      -6.640839      -180.7064 
  28   2.0000      -6.637433      -180.6137 
  29   2.0000      -4.856841      -132.1614 
  30   2.0000      -4.856473      -132.1513 
  31   2.0000      -4.855390      -132.1219 
  32   2.0000      -3.541877       -96.3794 
  33   2.0000      -2.660952       -72.4082 
  34   2.0000      -2.659789       -72.3765 
  35   2.0000      -2.656956       -72.2994 
  36   2.0000      -2.651835       -72.1601 
  37   2.0000      -2.651511       -72.1513 
  38   2.0000      -2.191175       -59.6249 
  39   2.0000      -2.183771       -59.4234 
  40   2.0000      -2.156299       -58.6759 
  41   2.0000      -1.044995       -28.4358 
  42   2.0000      -0.932934       -25.3864 
  43   2.0000      -0.900819       -24.5125 
  44   2.0000      -0.858626       -23.3644 
  45   2.0000      -0.835389       -22.7321 
  46   2.0000      -0.784685       -21.3524 
  47   2.0000      -0.738054       -20.0835 
  48   2.0000      -0.731429       -19.9032 
  49   2.0000      -0.706222       -19.2173 
  50   2.0000      -0.696710       -18.9584 
  51   2.0000      -0.682936       -18.5836 
  52   2.0000      -0.662954       -18.0399 
  53   2.0000      -0.613146       -16.6846 
  54   2.0000      -0.576102       -15.6765 
  55   2.0000      -0.552239       -15.0272 
  56   2.0000      -0.548579       -14.9276 
  57   2.0000      -0.524744       -14.2790 
  58   2.0000      -0.500036       -13.6067 
  59   2.0000      -0.471524       -12.8308 
  60   2.0000      -0.454316       -12.3626 
  61   2.0000      -0.432743       -11.7755 
  62   2.0000      -0.413916       -11.2632 
  63   2.0000      -0.400782       -10.9058 
  64   2.0000      -0.392751       -10.6873 
  65   2.0000      -0.389337       -10.5944 
  66   2.0000      -0.384212       -10.4549 
  67   2.0000      -0.377627       -10.2757 
  68   2.0000      -0.375445       -10.2164 
  69   2.0000      -0.367850       -10.0097 
  70   2.0000      -0.361305        -9.8316 
  71   2.0000      -0.356964        -9.7135 
  72   2.0000      -0.348030        -9.4704 
  73   2.0000      -0.345813        -9.4100 
  74   2.0000      -0.341376        -9.2893 
  75   2.0000      -0.333357        -9.0711 
  76   2.0000      -0.326999        -8.8981 
  77   2.0000      -0.316851        -8.6219 
  78   2.0000      -0.302555        -8.2329 
  79   2.0000      -0.299960        -8.1623 
  80   2.0000      -0.292683        -7.9643 
  81   2.0000      -0.289896        -7.8885 
  82   2.0000      -0.279275        -7.5995 
  83   2.0000      -0.274414        -7.4672 
  84   2.0000      -0.264729        -7.2036 
  85   2.0000      -0.255841        -6.9618 
  86   2.0000      -0.235999        -6.4219 
  87   2.0000      -0.228692        -6.2230 
  88   2.0000      -0.221937        -6.0392 
  89   2.0000      -0.202375        -5.5069 
  90   2.0000      -0.193859        -5.2752 
  91   2.0000      -0.187084        -5.0908 
  92   2.0000      -0.184889        -5.0311 
  93   2.0000      -0.177559        -4.8316 
  94   2.0000      -0.169999        -4.6259 
  95   2.0000      -0.167198        -4.5497 
  96   2.0000      -0.160800        -4.3756 
  97   2.0000      -0.144787        -3.9399 
  98   2.0000      -0.134954        -3.6723 
  99   2.0000      -0.114045        -3.1033 
 100   0.0000       0.044657         1.2152 
 101   0.0000       0.068721         1.8700 
 102   0.0000       0.115923         3.1544 
 103   0.0000       0.122899         3.3442 
 104   0.0000       0.138722         3.7748 
 105   0.0000       0.142876         3.8879 
 106   0.0000       0.150406         4.0928 
 107   0.0000       0.152480         4.1492 
 108   0.0000       0.172121         4.6836 
 109   0.0000       0.201013         5.4698 
 110   0.0000       0.220218         5.9924 
 111   0.0000       0.230459         6.2711 
 112   0.0000       0.238650         6.4940 
 113   0.0000       0.251378         6.8403 
 114   0.0000       0.257563         7.0086 
 115   0.0000       0.273060         7.4303 
 116   0.0000       0.287979         7.8363 
 117   0.0000       0.291713         7.9379 
 118   0.0000       0.297543         8.0966 
 119   0.0000       0.299665         8.1543 
 120   0.0000       0.308492         8.3945 
 121   0.0000       0.309850         8.4314 
 122   0.0000       0.317005         8.6261 
 123   0.0000       0.323317         8.7979 
 124   0.0000       0.334821         9.1109 
 125   0.0000       0.340147         9.2559 
 126   0.0000       0.344259         9.3678 
 127   0.0000       0.361495         9.8368 
 128   0.0000       0.371408        10.1065 
 129   0.0000       0.374877        10.2009 
 130   0.0000       0.381894        10.3919 
 131   0.0000       0.393188        10.6992 
 132   0.0000       0.405616        11.0374 
 133   0.0000       0.408237        11.1087 
 134   0.0000       0.423040        11.5115 
 135   0.0000       0.435060        11.8386 
 136   0.0000       0.441980        12.0269 
 137   0.0000       0.451411        12.2835 
 138   0.0000       0.457763        12.4564 
 139   0.0000       0.465264        12.6605 
 140   0.0000       0.485532        13.2120 
 141   0.0000       0.491364        13.3707 
 142   0.0000       0.491679        13.3793 
 143   0.0000       0.504704        13.7337 
 144   0.0000       0.516742        14.0613 
 145   0.0000       0.538300        14.6479 
 146   0.0000       0.557240        15.1633 
 147   0.0000       0.566202        15.4071 
 148   0.0000       0.573703        15.6113 
 149   0.0000       0.580161        15.7870 
 150   0.0000       0.594073        16.1655 
 151   0.0000       0.601793        16.3756 
 152   0.0000       0.613717        16.7001 
 153   0.0000       0.622450        16.9377 
 154   0.0000       0.627892        17.0858 
 155   0.0000       0.632653        17.2154 
 156   0.0000       0.640076        17.4173 
 157   0.0000       0.649692        17.6790 
 158   0.0000       0.653316        17.7776 
 159   0.0000       0.656081        17.8529 
 160   0.0000       0.666019        18.1233 
 161   0.0000       0.673736        18.3333 
 162   0.0000       0.685725        18.6595 
 163   0.0000       0.696327        18.9480 
 164   0.0000       0.698792        19.0151 
 165   0.0000       0.701649        19.0928 
 166   0.0000       0.707530        19.2529 
 167   0.0000       0.715478        19.4691 
 168   0.0000       0.721764        19.6402 
 169   0.0000       0.722740        19.6668 
 170   0.0000       0.726911        19.7803 
 171   0.0000       0.731413        19.9028 
 172   0.0000       0.736888        20.0518 
 173   0.0000       0.739892        20.1335 
 174   0.0000       0.743980        20.2447 
 175   0.0000       0.745455        20.2849 
 176   0.0000       0.752340        20.4722 
 177   0.0000       0.755629        20.5617 
 178   0.0000       0.765175        20.8215 
 179   0.0000       0.768162        20.9028 
 180   0.0000       0.774963        21.0878 
 181   0.0000       0.780078        21.2270 
 182   0.0000       0.791363        21.5341 
 183   0.0000       0.792856        21.5747 
 184   0.0000       0.799824        21.7643 
 185   0.0000       0.805130        21.9087 
 186   0.0000       0.818214        22.2647 
 187   0.0000       0.830909        22.6102 
 188   0.0000       0.837215        22.7818 
 189   0.0000       0.840231        22.8638 
 190   0.0000       0.842822        22.9344 
 191   0.0000       0.853027        23.2121 
 192   0.0000       0.867905        23.6169 
 193   0.0000       0.880051        23.9474 
 194   0.0000       0.891000        24.2453 
 195   0.0000       0.895277        24.3617 
 196   0.0000       0.903224        24.5780 
 197   0.0000       0.908240        24.7145 
 198   0.0000       0.927739        25.2451 
 199   0.0000       0.932489        25.3743 
 200   0.0000       0.948993        25.8234 
 201   0.0000       0.959461        26.1083 
 202   0.0000       0.975385        26.5416 
 203   0.0000       0.976581        26.5741 
 204   0.0000       1.001401        27.2495 
 205   0.0000       1.017648        27.6916 
 206   0.0000       1.027852        27.9693 
 207   0.0000       1.035343        28.1731 
 208   0.0000       1.041534        28.3416 
 209   0.0000       1.049352        28.5543 
 210   0.0000       1.060685        28.8627 
 211   0.0000       1.062236        28.9049 
 212   0.0000       1.069355        29.0986 
 213   0.0000       1.077003        29.3068 
 214   0.0000       1.091768        29.7085 
 215   0.0000       1.097493        29.8643 
 216   0.0000       1.105699        30.0876 
 217   0.0000       1.111028        30.2326 
 218   0.0000       1.112603        30.2755 
 219   0.0000       1.120554        30.4918 
 220   0.0000       1.141593        31.0643 
 221   0.0000       1.145829        31.1796 
 222   0.0000       1.155546        31.4440 
 223   0.0000       1.165251        31.7081 
 224   0.0000       1.181954        32.1626 
 225   0.0000       1.184760        32.2390 
 226   0.0000       1.193577        32.4789 
 227   0.0000       1.198007        32.5994 
 228   0.0000       1.203184        32.7403 
 229   0.0000       1.211383        32.9634 
 230   0.0000       1.220805        33.2198 
 231   0.0000       1.226464        33.3738 
 232   0.0000       1.234632        33.5960 
 233   0.0000       1.239545        33.7297 
 234   0.0000       1.245398        33.8890 
 235   0.0000       1.253370        34.1059 
 236   0.0000       1.261717        34.3331 
 237   0.0000       1.269295        34.5393 
 238   0.0000       1.290360        35.1125 
 239   0.0000       1.310357        35.6566 
 240   0.0000       1.314987        35.7826 
 241   0.0000       1.325535        36.0696 
 242   0.0000       1.332512        36.2595 
 243   0.0000       1.344952        36.5980 
 244   0.0000       1.356795        36.9203 
 245   0.0000       1.372064        37.3358 
 246   0.0000       1.395009        37.9601 
 247   0.0000       1.405742        38.2522 
 248   0.0000       1.418025        38.5864 
 249   0.0000       1.433843        39.0169 
 250   0.0000       1.436608        39.0921 
 251   0.0000       1.444200        39.2987 
 252   0.0000       1.470797        40.0224 
 253   0.0000       1.487832        40.4860 
 254   0.0000       1.494004        40.6539 
 255   0.0000       1.525075        41.4994 
 256   0.0000       1.537857        41.8472 
 257   0.0000       1.560345        42.4591 
 258   0.0000       1.581337        43.0304 
 259   0.0000       1.594082        43.3772 
 260   0.0000       1.606846        43.7245 
 261   0.0000       1.616903        43.9982 
 262   0.0000       1.631592        44.3979 
 263   0.0000       1.640642        44.6441 
 264   0.0000       1.643632        44.7255 
 265   0.0000       1.665214        45.3128 
 266   0.0000       1.676442        45.6183 
 267   0.0000       1.690268        45.9945 
 268   0.0000       1.719112        46.7794 
 269   0.0000       1.731088        47.1053 
 270   0.0000       1.740210        47.3535 
 271   0.0000       1.769569        48.1524 
 272   0.0000       1.779568        48.4245 
 273   0.0000       1.788789        48.6754 
 274   0.0000       1.885203        51.2990 
 275   0.0000       1.918452        52.2037 
 276   0.0000       1.931415        52.5565 
 277   0.0000       1.942178        52.8494 
 278   0.0000       1.963748        53.4363 
 279   0.0000       1.964997        53.4703 
 280   0.0000       1.986121        54.0451 
 281   0.0000       1.990891        54.1749 
 282   0.0000       2.005473        54.5717 
 283   0.0000       2.028764        55.2055 
 284   0.0000       2.045342        55.6566 
 285   0.0000       2.069570        56.3159 
 286   0.0000       2.080327        56.6086 
 287   0.0000       2.093207        56.9591 
 288   0.0000       2.099633        57.1339 
 289   0.0000       2.108761        57.3823 
 290   0.0000       2.113563        57.5130 
 291   0.0000       2.123745        57.7900 
 292   0.0000       2.148300        58.4582 
 293   0.0000       2.160099        58.7793 
 294   0.0000       2.176542        59.2267 
 295   0.0000       2.183486        59.4157 
 296   0.0000       2.193901        59.6991 
 297   0.0000       2.219612        60.3987 
 298   0.0000       2.226007        60.5727 
 299   0.0000       2.245998        61.1167 
 300   0.0000       2.267555        61.7033 
 301   0.0000       2.283734        62.1436 
 302   0.0000       2.301649        62.6311 
 303   0.0000       2.305308        62.7306 
 304   0.0000       2.309924        62.8562 
 305   0.0000       2.312070        62.9146 
 306   0.0000       2.325833        63.2891 
 307   0.0000       2.340963        63.7008 
 308   0.0000       2.355259        64.0898 
 309   0.0000       2.356501        64.1237 
 310   0.0000       2.369041        64.4649 
 311   0.0000       2.399574        65.2957 
 312   0.0000       2.414842        65.7112 
 313   0.0000       2.432863        66.2016 
 314   0.0000       2.452180        66.7272 
 315   0.0000       2.453886        66.7736 
 316   0.0000       2.470594        67.2283 
 317   0.0000       2.488520        67.7161 
 318   0.0000       2.501896        68.0800 
 319   0.0000       2.523532        68.6688 
 320   0.0000       2.526733        68.7559 
 321   0.0000       2.539443        69.1017 
 322   0.0000       2.563908        69.7675 
 323   0.0000       2.573374        70.0251 
 324   0.0000       2.578997        70.1781 
 325   0.0000       2.582460        70.2723 
 326   0.0000       2.597120        70.6712 
 327   0.0000       2.621963        71.3472 
 328   0.0000       2.627342        71.4936 
 329   0.0000       2.644634        71.9642 
 330   0.0000       2.676806        72.8396 
 331   0.0000       2.688272        73.1516 
 332   0.0000       2.721181        74.0471 
 333   0.0000       2.748733        74.7968 
 334   0.0000       2.763548        75.2000 
 335   0.0000       2.781264        75.6820 
 336   0.0000       2.793275        76.0089 
 337   0.0000       2.797745        76.1305 
 338   0.0000       2.831568        77.0509 
 339   0.0000       2.845475        77.4293 
 340   0.0000       2.852926        77.6321 
 341   0.0000       2.901922        78.9653 
 342   0.0000       2.906550        79.0912 
 343   0.0000       2.907953        79.1294 
 344   0.0000       2.917192        79.3808 
 345   0.0000       2.918457        79.4152 
 346   0.0000       2.940589        80.0175 
 347   0.0000       2.950175        80.2783 
 348   0.0000       2.953178        80.3601 
 349   0.0000       2.986075        81.2552 
 350   0.0000       3.000876        81.6580 
 351   0.0000       3.028527        82.4104 
 352   0.0000       3.047458        82.9255 
 353   0.0000       3.098628        84.3180 
 354   0.0000       3.228435        87.8502 
 355   0.0000       3.241848        88.2152 
 356   0.0000       3.266978        88.8990 
 357   0.0000       3.307729        90.0079 
 358   0.0000       3.420534        93.0775 
 359   0.0000       3.558050        96.8195 
 360   0.0000       3.559368        96.8553 
 361   0.0000       3.691968       100.4636 
 362   0.0000       3.716115       101.1206 
 363   0.0000       3.742876       101.8488 
 364   0.0000       3.758896       102.2848 
 365   0.0000       3.955651       107.6387 
 366   0.0000      13.365491       363.6935 
 367   0.0000      13.408187       364.8553 
 368   0.0000      13.753065       374.2399 
 369   0.0000      13.792613       375.3161 
 370   0.0000      13.809445       375.7741 
 371   0.0000      13.820940       376.0869 
 372   0.0000      14.006976       381.1492 
 373   0.0000      14.198927       386.3724 
 374   0.0000      14.222208       387.0060 
 375   0.0000      14.243527       387.5861 
 376   0.0000      14.249575       387.7506 
 377   0.0000      14.263508       388.1298 
 378   0.0000      14.294425       388.9711 
 379   0.0000      14.618625       397.7930 
 380   0.0000      14.655141       398.7867 
 381   0.0000      25.708177       699.5550 
 382   0.0000      25.875128       704.0980 
 383   0.0000      25.951795       706.1843 
 384   0.0000      51.698523      1406.7883 

                    ********************************
                    * MULLIKEN POPULATION ANALYSIS *
                    ********************************

-----------------------
MULLIKEN ATOMIC CHARGES
-----------------------
   0 C :   -0.110472
   1 C :    0.021389
   2 C :   -0.293201
   3 C :   -0.217649
   4 C :   -0.225801
   5 C :   -0.263588
   6 H :    0.251014
   7 H :    0.204626
   8 H :    0.170457
   9 H :    0.181135
  10 H :    0.179112
  11 C :   -0.476842
  12 C :   -0.520004
  13 H :    0.202329
  14 H :    0.263698
  15 C :    0.120324
  16 H :    0.275406
  17 H :    0.207153
  18 C :   -0.123796
  19 C :   -0.272813
  20 C :   -0.238851
  21 C :   -0.280436
  22 C :   -0.215390
  23 H :    0.279119
  24 H :    0.197037
  25 H :    0.184237
  26 H :    0.188446
  27 Pd:    0.100720
  28 Br:   -0.302979
  29 P :   -0.141871
  30 H :    0.122351
  31 C :    0.647764
  32 O :   -0.573247
  33 O :   -0.550412
  34 O :   -0.627583
  35 H :    0.105352
  36 H :    0.137005
  37 H :    0.396263
Sum of atomic charges:   -1.0000000

--------------------------------
MULLIKEN REDUCED ORBITAL CHARGES
--------------------------------
  0 C s       :     3.266144  s :     3.266144
      pz      :     0.923921  p :     2.809136
      px      :     0.931478
      py      :     0.953737
      dz2     :     0.005651  d :     0.035192
      dxz     :     0.005787
      dyz     :     0.005899
      dx2y2   :     0.011956
      dxy     :     0.005900
  1 C s       :     3.181330  s :     3.181330
      pz      :     0.965046  p :     2.750200
      px      :     0.878470
      py      :     0.906683
      dz2     :     0.005688  d :     0.047081
      dxz     :     0.008694
      dyz     :     0.006528
      dx2y2   :     0.011909
      dxy     :     0.014262
  2 C s       :     3.262136  s :     3.262136
      pz      :     1.002709  p :     2.988879
      px      :     0.946893
      py      :     1.039277
      dz2     :     0.003588  d :     0.042186
      dxz     :     0.007784
      dyz     :     0.004486
      dx2y2   :     0.012455
      dxy     :     0.013874
  3 C s       :     3.227617  s :     3.227617
      pz      :     1.006025  p :     2.949516
      px      :     1.007111
      py      :     0.936380
      dz2     :     0.005732  d :     0.040516
      dxz     :     0.003957
      dyz     :     0.006473
      dx2y2   :     0.014106
      dxy     :     0.010247
  4 C s       :     3.226640  s :     3.226640
      pz      :     1.014102  p :     2.958666
      px      :     0.958562
      py      :     0.986002
      dz2     :     0.004303  d :     0.040495
      dxz     :     0.007048
      dyz     :     0.005345
      dx2y2   :     0.010051
      dxy     :     0.013748
  5 C s       :     3.243991  s :     3.243991
      pz      :     1.045217  p :     2.979165
      px      :     0.934220
      py      :     0.999729
      dz2     :     0.003588  d :     0.040432
      dxz     :     0.008438
      dyz     :     0.005595
      dx2y2   :     0.012134
      dxy     :     0.010677
  6 H s       :     0.748986  s :     0.748986
  7 H s       :     0.795374  s :     0.795374
  8 H s       :     0.829543  s :     0.829543
  9 H s       :     0.818865  s :     0.818865
 10 H s       :     0.820888  s :     0.820888
 11 C s       :     3.350225  s :     3.350225
      pz      :     1.138943  p :     3.082973
      px      :     0.916542
      py      :     1.027487
      dz2     :     0.006037  d :     0.043645
      dxz     :     0.005754
      dyz     :     0.013133
      dx2y2   :     0.009771
      dxy     :     0.008950
 12 C s       :     3.375594  s :     3.375594
      pz      :     1.026217  p :     3.101271
      px      :     0.962702
      py      :     1.112352
      dz2     :     0.010803  d :     0.043140
      dxz     :     0.010911
      dyz     :     0.003445
      dx2y2   :     0.008434
      dxy     :     0.009548
 13 H s       :     0.797671  s :     0.797671
 14 H s       :     0.736302  s :     0.736302
 15 C s       :     3.166787  s :     3.166787
      pz      :     0.851007  p :     2.666179
      px      :     0.915799
      py      :     0.899373
      dz2     :     0.011111  d :     0.046711
      dxz     :     0.012255
      dyz     :     0.007452
      dx2y2   :     0.007812
      dxy     :     0.008081
 16 H s       :     0.724594  s :     0.724594
 17 H s       :     0.792847  s :     0.792847
 18 C s       :     3.308522  s :     3.308522
      pz      :     0.890338  p :     2.773249
      px      :     0.942271
      py      :     0.940639
      dz2     :     0.009324  d :     0.042025
      dxz     :     0.010603
      dyz     :     0.009044
      dx2y2   :     0.007963
      dxy     :     0.005091
 19 C s       :     3.279217  s :     3.279217
      pz      :     1.078600  p :     2.953704
      px      :     0.909795
      py      :     0.965309
      dz2     :     0.009487  d :     0.039892
      dxz     :     0.007543
      dyz     :     0.008355
      dx2y2   :     0.007395
      dxy     :     0.007112
 20 C s       :     3.246404  s :     3.246404
      pz      :     0.973831  p :     2.952140
      px      :     1.008982
      py      :     0.969328
      dz2     :     0.008277  d :     0.040307
      dxz     :     0.011951
      dyz     :     0.007697
      dx2y2   :     0.006708
      dxy     :     0.005675
 21 C s       :     3.267488  s :     3.267488
      pz      :     1.025319  p :     2.972606
      px      :     0.948273
      py      :     0.999014
      dz2     :     0.010227  d :     0.040342
      dxz     :     0.008419
      dyz     :     0.008041
      dx2y2   :     0.007211
      dxy     :     0.006443
 22 C s       :     3.232404  s :     3.232404
      pz      :     0.929435  p :     2.942360
      px      :     1.001145
      py      :     1.011780
      dz2     :     0.011129  d :     0.040627
      dxz     :     0.009249
      dyz     :     0.008441
      dx2y2   :     0.003478
      dxy     :     0.008330
 23 H s       :     0.720881  s :     0.720881
 24 H s       :     0.802963  s :     0.802963
 25 H s       :     0.815763  s :     0.815763
 26 H s       :     0.811554  s :     0.811554
 27 Pds       :     2.513664  s :     2.513664
      pz      :     2.140047  p :     6.371398
      px      :     2.130491
      py      :     2.100859
      dz2     :     1.876590  d :     9.011639
      dxz     :     1.965785
      dyz     :     1.909653
      dx2y2   :     1.928202
      dxy     :     1.331409
      f0      :     0.000319  f :     0.002579
      f+1     :     0.000329
      f-1     :     0.000277
      f+2     :     0.000079
      f-2     :     0.000430
      f+3     :     0.000596
      f-3     :     0.000549
 28 Brs       :     7.958994  s :     7.958994
      pz      :     5.954392  p :    17.322772
      px      :     5.833847
      py      :     5.534534
      dz2     :     2.004361  d :    10.021213
      dxz     :     2.001530
      dyz     :     2.002081
      dx2y2   :     2.009837
      dxy     :     2.003404
 29 P s       :     5.585822  s :     5.585822
      pz      :     3.053544  p :     9.347080
      px      :     3.073222
      py      :     3.220313
      dz2     :     0.032465  d :     0.208969
      dxz     :     0.033832
      dyz     :     0.059370
      dx2y2   :     0.063366
      dxy     :     0.019937
 30 H s       :     0.877649  s :     0.877649
 31 C s       :     2.806642  s :     2.806642
      pz      :     0.784010  p :     2.364026
      px      :     0.837138
      py      :     0.742878
      dz2     :     0.027579  d :     0.181568
      dxz     :     0.037826
      dyz     :     0.024175
      dx2y2   :     0.048831
      dxy     :     0.043156
 32 O s       :     3.765186  s :     3.765186
      pz      :     1.657454  p :     4.781552
      px      :     1.406207
      py      :     1.717890
      dz2     :     0.003267  d :     0.026509
      dxz     :     0.006831
      dyz     :     0.001820
      dx2y2   :     0.007937
      dxy     :     0.006654
 33 O s       :     3.786387  s :     3.786387
      pz      :     1.454889  p :     4.739725
      px      :     1.601497
      py      :     1.683339
      dz2     :     0.005277  d :     0.024301
      dxz     :     0.006440
      dyz     :     0.003696
      dx2y2   :     0.003496
      dxy     :     0.005391
 34 O s       :     3.810052  s :     3.810052
      pz      :     1.683493  p :     4.788038
      px      :     1.637487
      py      :     1.467057
      dz2     :     0.002439  d :     0.029494
      dxz     :     0.008760
      dyz     :     0.003191
      dx2y2   :     0.006616
      dxy     :     0.008488
 35 H s       :     0.894648  s :     0.894648
 36 H s       :     0.862995  s :     0.862995
 37 H s       :     0.603737  s :     0.603737


                     *******************************
                     * LOEWDIN POPULATION ANALYSIS *
                     *******************************

----------------------
LOEWDIN ATOMIC CHARGES
----------------------
   0 C :   -0.142073
   1 C :   -0.067195
   2 C :   -0.160755
   3 C :   -0.162841
   4 C :   -0.167740
   5 C :   -0.155417
   6 H :    0.300057
   7 H :    0.124199
   8 H :    0.115450
   9 H :    0.118251
  10 H :    0.117198
  11 C :   -0.213994
  12 C :   -0.216125
  13 H :    0.119865
  14 H :    0.150290
  15 C :   -0.036891
  16 H :    0.159617
  17 H :    0.119890
  18 C :    0.000761
  19 C :   -0.118569
  20 C :   -0.148861
  21 C :   -0.146943
  22 C :   -0.155426
  23 H :    0.169880
  24 H :    0.126592
  25 H :    0.123215
  26 H :    0.122579
  27 Pd:   -0.806840
  28 Br:   -0.113517
  29 P :    0.420712
  30 H :    0.057333
  31 C :    0.090651
  32 O :   -0.388122
  33 O :   -0.291478
  34 O :   -0.360175
  35 H :    0.045328
  36 H :    0.068037
  37 H :    0.303057

-------------------------------
LOEWDIN REDUCED ORBITAL CHARGES
-------------------------------
  0 C s       :     2.974413  s :     2.974413
      pz      :     0.953359  p :     3.090604
      px      :     1.092754
      py      :     1.044491
      dz2     :     0.010309  d :     0.077056
      dxz     :     0.011922
      dyz     :     0.012133
      dx2y2   :     0.027013
      dxy     :     0.015679
  1 C s       :     2.852377  s :     2.852377
      pz      :     1.004032  p :     3.101849
      px      :     1.036724
      py      :     1.061093
      dz2     :     0.011815  d :     0.112969
      dxz     :     0.019278
      dyz     :     0.015293
      dx2y2   :     0.030249
      dxy     :     0.036335
  2 C s       :     2.894365  s :     2.894365
      pz      :     0.998773  p :     3.170667
      px      :     1.107176
      py      :     1.064717
      dz2     :     0.006844  d :     0.095723
      dxz     :     0.017354
      dyz     :     0.007583
      dx2y2   :     0.030355
      dxy     :     0.033586
  3 C s       :     2.893151  s :     2.893151
      pz      :     1.025469  p :     3.176898
      px      :     1.067160
      py      :     1.084269
      dz2     :     0.010353  d :     0.092792
      dxz     :     0.008389
      dyz     :     0.015423
      dx2y2   :     0.032753
      dxy     :     0.025875
  4 C s       :     2.887171  s :     2.887171
      pz      :     1.030818  p :     3.187588
      px      :     1.083880
      py      :     1.072891
      dz2     :     0.008304  d :     0.092981
      dxz     :     0.015355
      dyz     :     0.010869
      dx2y2   :     0.026208
      dxy     :     0.032245
  5 C s       :     2.891782  s :     2.891782
      pz      :     1.037760  p :     3.171222
      px      :     1.086747
      py      :     1.046716
      dz2     :     0.006960  d :     0.092414
      dxz     :     0.019330
      dyz     :     0.009888
      dx2y2   :     0.029874
      dxy     :     0.026362
  6 H s       :     0.699943  s :     0.699943
  7 H s       :     0.875801  s :     0.875801
  8 H s       :     0.884550  s :     0.884550
  9 H s       :     0.881749  s :     0.881749
 10 H s       :     0.882802  s :     0.882802
 11 C s       :     2.901813  s :     2.901813
      pz      :     1.110059  p :     3.224031
[...]
      dxy     :     0.020519
 13 H s       :     0.880135  s :     0.880135
 14 H s       :     0.849710  s :     0.849710
 15 C s       :     2.839598  s :     2.839598
      pz      :     1.051645  p :     3.084552
      px      :     1.030335
      py      :     1.002573
      dz2     :     0.026434  d :     0.112740
      dxz     :     0.030745
      dyz     :     0.019132
      dx2y2   :     0.017142
      dxy     :     0.019288
 16 H s       :     0.840383  s :     0.840383
 17 H s       :     0.880110  s :     0.880110
 18 C s       :     2.877181  s :     2.877181
      pz      :     1.049672  p :     3.025274
      px      :     1.019633
      py      :     0.955969
      dz2     :     0.023489  d :     0.096784
      dxz     :     0.025934
      dyz     :     0.020660
      dx2y2   :     0.015552
      dxy     :     0.011148
 19 C s       :     2.884851  s :     2.884851
      pz      :     1.075910  p :     3.143593
      px      :     1.039469
      py      :     1.028214
      dz2     :     0.020292  d :     0.090125
      dxz     :     0.018950
      dyz     :     0.016463
      dx2y2   :     0.016504
      dxy     :     0.017916
 20 C s       :     2.889279  s :     2.889279
      pz      :     1.070087  p :     3.167587
      px      :     1.051663
      py      :     1.045838
      dz2     :     0.020290  d :     0.091995
      dxz     :     0.025406
      dyz     :     0.019142
      dx2y2   :     0.013933
      dxy     :     0.013224
 21 C s       :     2.883935  s :     2.883935
      pz      :     1.068414  p :     3.170200
      px      :     1.061674
      py      :     1.040112
      dz2     :     0.022608  d :     0.092808
      dxz     :     0.021387
      dyz     :     0.016611
      dx2y2   :     0.016392
      dxy     :     0.015811
 22 C s       :     2.886616  s :     2.886616
      pz      :     1.088520  p :     3.175743
      px      :     1.050907
      py      :     1.036316
      dz2     :     0.027491  d :     0.093067
      dxz     :     0.023377
      dyz     :     0.020097
      dx2y2   :     0.006966
      dxy     :     0.015136
 23 H s       :     0.830120  s :     0.830120
 24 H s       :     0.873408  s :     0.873408
 25 H s       :     0.876785  s :     0.876785
 26 H s       :     0.877421  s :     0.877421
 27 Pds       :     2.521699  s :     2.521699
      pz      :     2.262554  p :     6.933497
      px      :     2.363940
      py      :     2.307002
      dz2     :     1.938278  d :     9.348286
      dxz     :     2.008135
      dyz     :     1.959845
      dx2y2   :     1.981540
      dxy     :     1.460489
      f0      :     0.000407  f :     0.003357
      f+1     :     0.000412
      f-1     :     0.000353
      f+2     :     0.000095
      f-2     :     0.000592
      f+3     :     0.000785
      f-3     :     0.000715
 28 Brs       :     7.846492  s :     7.846492
      pz      :     5.934815  p :    17.241672
      px      :     5.805475
      py      :     5.501382
      dz2     :     2.005209  d :    10.025353
      dxz     :     2.001709
      dyz     :     2.002146
      dx2y2   :     2.011290
      dxy     :     2.005000
 29 P s       :     5.219243  s :     5.219243
      pz      :     2.993527  p :     9.108470
      px      :     3.008601
      py      :     3.106341
      dz2     :     0.039076  d :     0.251575
      dxz     :     0.040237
      dyz     :     0.071938
      dx2y2   :     0.074759
      dxy     :     0.025564
 30 H s       :     0.942667  s :     0.942667
 31 C s       :     2.778459  s :     2.778459
      pz      :     0.853800  p :     2.724733
      px      :     1.003160
      py      :     0.867773
      dz2     :     0.059598  d :     0.406157
      dxz     :     0.084808
      dyz     :     0.054933
      dx2y2   :     0.110893
      dxy     :     0.095925
 32 O s       :     3.528967  s :     3.528967
      pz      :     1.638313  p :     4.809673
      px      :     1.472514
      py      :     1.698845
      dz2     :     0.006505  d :     0.049482
      dxz     :     0.011997
      dyz     :     0.002603
      dx2y2   :     0.015196
      dxy     :     0.013182
 33 O s       :     3.493464  s :     3.493464
      pz      :     1.460590  p :     4.749429
      px      :     1.616728
      py      :     1.672111
      dz2     :     0.008920  d :     0.048586
      dxz     :     0.014652
      dyz     :     0.008712
      dx2y2   :     0.006498
      dxy     :     0.009804
 34 O s       :     3.520429  s :     3.520429
      pz      :     1.670065  p :     4.788563
      px      :     1.630881
      py      :     1.487617
      dz2     :     0.004445  d :     0.051182
      dxz     :     0.012088
      dyz     :     0.008464
      dx2y2   :     0.011095
      dxy     :     0.015090
 35 H s       :     0.954672  s :     0.954672
 36 H s       :     0.931963  s :     0.931963
 37 H s       :     0.696943  s :     0.696943


                      *****************************
                      * MAYER POPULATION ANALYSIS *
                      *****************************

  NA   - Mulliken gross atomic population
  ZA   - Total nuclear charge
  QA   - Mulliken gross atomic charge
  VA   - Mayer's total valence
  BVA  - Mayer's bonded valence
  FA   - Mayer's free valence

  ATOM       NA         ZA         QA         VA         BVA        FA
  0 C      6.1105     6.0000    -0.1105     3.6485     3.6485    -0.0000
  1 C      5.9786     6.0000     0.0214     3.8778     3.8778     0.0000
  2 C      6.2932     6.0000    -0.2932     3.8684     3.8684    -0.0000
  3 C      6.2176     6.0000    -0.2176     3.8256     3.8256    -0.0000
  4 C      6.2258     6.0000    -0.2258     3.8521     3.8521     0.0000
  5 C      6.2636     6.0000    -0.2636     3.8434     3.8434    -0.0000
  6 H      0.7490     1.0000     0.2510     0.9315     0.9315     0.0000
  7 H      0.7954     1.0000     0.2046     0.9171     0.9171    -0.0000
  8 H      0.8295     1.0000     0.1705     0.9293     0.9293    -0.0000
  9 H      0.8189     1.0000     0.1811     0.9216     0.9216    -0.0000
 10 H      0.8209     1.0000     0.1791     0.9217     0.9217     0.0000
 11 C      6.4768     6.0000    -0.4768     3.6621     3.6621     0.0000
 12 C      6.5200     6.0000    -0.5200     3.6689     3.6689     0.0000
 13 H      0.7977     1.0000     0.2023     0.9119     0.9119     0.0000
 14 H      0.7363     1.0000     0.2637     0.8843     0.8843    -0.0000
 15 C      5.8797     6.0000     0.1203     3.6957     3.6957    -0.0000
 16 H      0.7246     1.0000     0.2754     0.8936     0.8936     0.0000
 17 H      0.7928     1.0000     0.2072     0.9098     0.9098     0.0000
 18 C      6.1238     6.0000    -0.1238     3.8221     3.8221     0.0000
 19 C      6.2728     6.0000    -0.2728     3.7526     3.7526    -0.0000
 20 C      6.2389     6.0000    -0.2389     3.8152     3.8152    -0.0000
 21 C      6.2804     6.0000    -0.2804     3.8309     3.8309    -0.0000
 22 C      6.2154     6.0000    -0.2154     3.8232     3.8232    -0.0000
 23 H      0.7209     1.0000     0.2791     0.9128     0.9128    -0.0000
 24 H      0.8030     1.0000     0.1970     0.9192     0.9192    -0.0000
 25 H      0.8158     1.0000     0.1842     0.9252     0.9252     0.0000
 26 H      0.8116     1.0000     0.1884     0.9205     0.9205    -0.0000
 27 Pd    17.8993    18.0000     0.1007     2.9281     2.9281    -0.0000
 28 Br    35.3030    35.0000    -0.3030     1.0847     1.0847     0.0000
 29 P     15.1419    15.0000    -0.1419     3.7072     3.7072    -0.0000
 30 H      0.8776     1.0000     0.1224     0.9550     0.9550    -0.0000
 31 C      5.3522     6.0000     0.6478     4.3392     4.3392    -0.0000
 32 O      8.5732     8.0000    -0.5732     2.0217     2.0217     0.0000
 33 O      8.5504     8.0000    -0.5504     2.0209     2.0209     0.0000
 34 O      8.6276     8.0000    -0.6276     1.9152     1.9152     0.0000
 35 H      0.8946     1.0000     0.1054     0.9585     0.9585     0.0000
 36 H      0.8630     1.0000     0.1370     0.9543     0.9543     0.0000
 37 H      0.6037     1.0000     0.3963     0.8310     0.8310     0.0000

  Mayer bond orders larger than 0.100000
B(  0-C ,  1-C ) :   1.4576 B(  0-C ,  2-C ) :   1.4297 B(  0-C ,  6-H ) :   0.2800 
B(  0-C , 27-Pd) :   0.3022 B(  1-C ,  5-C ) :   1.4060 B(  1-C , 11-C ) :   0.9602 
B(  2-C ,  3-C ) :   1.4157 B(  2-C ,  7-H ) :   0.9154 B(  3-C ,  4-C ) :   1.4384 
B(  3-C ,  9-H ) :   0.9256 B(  4-C ,  5-C ) :   1.4376 B(  4-C , 10-H ) :   0.9278 
B(  5-C ,  8-H ) :   0.9215 B(  6-H , 27-Pd) :   0.1454 B(  6-H , 28-Br) :   0.4435 
B( 11-C , 12-C ) :   0.9164 B( 11-C , 13-H ) :   0.9325 B( 11-C , 14-H ) :   0.8976 
B( 12-C , 15-C ) :   0.9690 B( 12-C , 16-H ) :   0.8840 B( 12-C , 17-H ) :   0.9301 
B( 15-C , 18-C ) :   1.3372 B( 15-C , 21-C ) :   1.4066 B( 18-C , 19-C ) :   1.4127 
B( 18-C , 27-Pd) :   0.8149 B( 19-C , 20-C ) :   1.4019 B( 19-C , 23-H ) :   0.8635 
B( 20-C , 22-C ) :   1.4310 B( 20-C , 24-H ) :   0.9252 B( 21-C , 22-C ) :   1.4230 
B( 21-C , 25-H ) :   0.9259 B( 22-C , 26-H ) :   0.9273 B( 27-Pd, 28-Br) :   0.3304 
B( 27-Pd, 29-P ) :   0.7155 B( 27-Pd, 33-O ) :   0.3200 B( 29-P , 30-H ) :   0.9258 
B( 29-P , 35-H ) :   0.9199 B( 29-P , 36-H ) :   0.9261 B( 31-C , 32-O ) :   1.7672 
B( 31-C , 33-O ) :   1.5371 B( 31-C , 34-O ) :   1.0098 B( 34-O , 37-H ) :   0.7932 



------------------
HIRSHFELD ANALYSIS
------------------

Total integrated alpha density =     99.999847963
Total integrated beta density  =     99.999847963

  ATOM     CHARGE      SPIN    
   0 C   -0.166064    0.000000
   1 C   -0.023351    0.000000
   2 C   -0.075307    0.000000
   3 C   -0.070234    0.000000
   4 C   -0.076607    0.000000
   5 C   -0.071045    0.000000
   6 H    0.108194    0.000000
   7 H    0.016713    0.000000
   8 H    0.021449    0.000000
   9 H    0.026516    0.000000
  10 H    0.025917    0.000000
  11 C   -0.049597    0.000000
  12 C   -0.059203    0.000000
  13 H    0.016350    0.000000
  14 H    0.023620    0.000000
  15 C   -0.018299    0.000000
  16 H    0.006444    0.000000
  17 H    0.018250    0.000000
  18 C   -0.101344    0.000000
  19 C   -0.059764    0.000000
  20 C   -0.060574    0.000000
  21 C   -0.064209    0.000000
  22 C   -0.067351    0.000000
  23 H    0.037104    0.000000
  24 H    0.033480    0.000000
  25 H    0.027763    0.000000
  26 H    0.031332    0.000000
  27 Pd   0.474159    0.000000
  28 Br  -0.290030    0.000000
  29 P    0.138763    0.000000
  30 H    0.007769    0.000000
  31 C    0.217139    0.000000
  32 O   -0.451850    0.000000
  33 O   -0.431220    0.000000
  34 O   -0.275948    0.000000
  35 H    0.004352    0.000000
  36 H    0.019882    0.000000
  37 H    0.157104    0.000000

  TOTAL  -0.999696    0.000000

-------
TIMINGS
-------

Total SCF time: 0 days 0 hours 17 min 42 sec 

Total time                  ....    1062.896 sec
Sum of individual times     ....    1061.185 sec  ( 99.8%)

Fock matrix formation       ....    1048.549 sec  ( 98.7%)
  Split-RI-J                ....     156.061 sec  ( 14.9% of F)
  Chain of spheres X        ....     821.362 sec  ( 78.3% of F)
  XC integration            ....      71.058 sec  (  6.8% of F)
    Basis function eval.    ....      19.148 sec  ( 26.9% of XC)
    Density eval.           ....      24.639 sec  ( 34.7% of XC)
    XC-Functional eval.     ....       2.442 sec  (  3.4% of XC)
    XC-Potential eval.      ....      20.638 sec  ( 29.0% of XC)
Diagonalization             ....       1.556 sec  (  0.1%)
Density matrix formation    ....       0.220 sec  (  0.0%)
Population analysis         ....       1.144 sec  (  0.1%)
Initial guess               ....       0.161 sec  (  0.0%)
Orbital Transformation      ....       1.491 sec  (  0.1%)
Orbital Orthonormalization  ....       0.000 sec  (  0.0%)
DIIS solution               ....       0.600 sec  (  0.1%)
Grid generation             ....       7.463 sec  (  0.7%)

Maximum memory used throughout the entire SCF-calculation: 179.6 MB


-------------------------------------------------------------------------------
                          DFT DISPERSION CORRECTION                            
                                                                               
                              DFTD3 V3.1  Rev 1                                
                          USING Becke-Johnson damping                          
-------------------------------------------------------------------------------
The PBEh-3c composite method is recognized
Using three-body term ABC
Active option DFTDOPT                   ...         4   

molecular C6(AA) [au] = 24391.805451 


            DFT-D V3
 parameters
 s6 scaling factor         :     1.0000 
 a1 scaling factor         :     0.4860 
 s8 scaling factor         :     0.0000 
 a2 scaling factor         :     4.5000 
 Damping factor alpha9(ATM):    16.0000 
 ad hoc parameters k1-k3   :    16.0000     1.3333    -4.0000 

 Edisp/kcal,au: -19.826322123730  -0.031595252069 
 E6   /kcal   : -20.038049858 
 E8   /kcal   :  -0.000000000 
 E6(ABC)      :   0.211727734 
 % E8         :   0.000000000 
 % E6(ABC)    :  -1.067912307 

-------------------------   ----------------
Dispersion correction           -0.031595252
-------------------------   ----------------

 ** NOTE ** -> element pd will be treated as ni
------------------   -----------------
gCP correction             0.075263457
------------------   -----------------

-------------------------   --------------------
FINAL SINGLE POINT ENERGY     -3847.544361044338
-------------------------   --------------------

------------------------------------------------------------------------------
                         ORCA SCF GRADIENT CALCULATION
------------------------------------------------------------------------------

 ... reading COSX grid (gridx3)
Gradient of the Kohn-Sham DFT energy:
Kohn-Sham wavefunction type      ... RKS
Hartree-Fock exchange scaling    ...    0.420
Number of operators              ...    1
Number of atoms                  ...   38
Basis set dimensions             ...  385
Integral neglect threshold       ... 2.5e-11
Integral primitive cutoff        ... 2.5e-12
SHARK Integral package           ... ON

Nuc. rep. gradient       (SHARK) ... done (  0.0 sec)
HCore & Overlap gradient (SHARK) ... done (  1.4 sec)
ECP gradient             (SHARK) ... done (  1.7 sec)
RI-J gradient            (SHARK) ... done (  7.3 sec)
COSX-gradient                    ... done ( 70.2 sec)
Exchange-correlation gradient    ... done
Dispersion correction            ... done
gCP correction                   ... done

------------------
CARTESIAN GRADIENT
------------------

   1   C   :   -0.007896289   -0.000093948    0.006325272
   2   C   :   -0.002076172    0.002209223    0.009113794
   3   C   :    0.004213980    0.004438030    0.014962512
   4   C   :   -0.002347025    0.002580598   -0.005450677
   5   C   :   -0.000249207    0.002774632   -0.000793524
   6   C   :    0.001225572   -0.008385871   -0.002295578
   7   H   :   -0.010490099    0.012980694   -0.030712248
   8   H   :    0.000801993   -0.000222646    0.003654924
   9   H   :   -0.001469528    0.006258769    0.001788811
  10   H   :   -0.000018323    0.002653410   -0.000859176
  11   H   :   -0.000598551   -0.000468829   -0.000906843
  12   C   :   -0.000832307   -0.002512638    0.003146684
  13   C   :    0.001327873    0.001443722   -0.000948222
  14   H   :   -0.000248501   -0.003763429   -0.003639098
  15   H   :    0.001792045    0.002785424    0.003269304
  16   C   :    0.000212123    0.005325476   -0.001580687
  17   H   :    0.002971270    0.002590039   -0.000056479
  18   H   :   -0.000556599   -0.000666561   -0.002598994
  19   C   :   -0.001503269    0.002087311   -0.002104517
  20   C   :    0.003570560   -0.000055347    0.006049645
  21   C   :    0.000226864    0.000933682   -0.001988453
  22   C   :    0.004024822   -0.005016488    0.001237679
  23   C   :   -0.001447002    0.003604365    0.002598816
  24   H   :    0.003930650    0.002284722    0.001458763
  25   H   :    0.001466236    0.002513639    0.002212098
  26   H   :    0.002887283   -0.002060404   -0.002911224
  27   H   :   -0.000168350    0.002347627   -0.000521652
  28   Pd  :    0.005275976   -0.003174077    0.005930653
  29   Br  :    0.009100089   -0.022192154    0.001702221
  30   P   :    0.000145024   -0.002400422   -0.001277081
  31   H   :   -0.001005924    0.000990641   -0.001581676
  32   C   :   -0.008774842   -0.001565718   -0.009980249
  33   O   :    0.008898114   -0.004849966    0.002065040
  34   O   :   -0.003348384   -0.004088340   -0.002241698
  35   O   :   -0.006067445   -0.002984024    0.006964713
  36   H   :   -0.004943838   -0.000353538   -0.001461541
  37   H   :   -0.000520359    0.001309136    0.002006782
  38   H   :    0.002688037    0.002351883   -0.000338856

Difference to translation invariance:
           :    0.0001964972   -0.0003913776    0.0002392360

Difference to rotation invariance:
           :   -0.0000035336   -0.0078821544   -0.0085945101

Norm of the cartesian gradient     ...    0.0575552301
RMS gradient                       ...    0.0053905412
MAX gradient                       ...    0.0307122475

-------
TIMINGS
-------

Total SCF gradient time            ...       96.126 sec

One electron gradient       ....       3.157 sec  (  3.3%)
RI-J Coulomb gradient       ....       7.323 sec  (  7.6%)
COSX gradient               ....      70.166 sec  ( 73.0%)
XC gradient                 ....      12.395 sec  ( 12.9%)

Maximum memory used throughout the entire SCFGRAD-calculation: 145.1 MB

                            ***************************************
                            *     ORCA property calculations      *
                            ***************************************

                                    ---------------------
                                    Active property flags
                                    ---------------------
   (+) Dipole Moment


------------------------------------------------------------------------------
                       ORCA ELECTRIC PROPERTIES CALCULATION
------------------------------------------------------------------------------

Dipole Moment Calculation                       ... on
Quadrupole Moment Calculation                   ... off
Polarizability Calculation                      ... off
GBWName                                         ... 3_15_orca.gbw
Electron density                                ... 3_15_orca.scfp
The origin for moment calculation is the CENTER OF MASS  = (-0.362475, -1.860101 -1.032432)

-------------
DIPOLE MOMENT
-------------
                                X             Y             Z
Electronic contribution:      6.82235     -69.21741     -30.05352
Nuclear contribution   :     -5.30892      69.29053      32.86580
                        -----------------------------------------
Total Dipole Moment    :      1.51344       0.07313       2.81228
                        -----------------------------------------
Magnitude (a.u.)       :      3.19449
Magnitude (Debye)      :      8.11974



--------------------
Rotational spectrum 
--------------------
 
Rotational constants in cm-1:     0.007011     0.006175     0.004341 
Rotational constants in MHz :   210.174262   185.125434   130.149309 

 Dipole components along the rotational axes: 
x,y,z [a.u.] :    -0.121740    -1.980793     2.503277 
x,y,z [Debye]:    -0.309439    -5.034776     6.362824 

 

Timings for individual modules:

Sum of individual times         ...     1160.227 sec (=  19.337 min)
GTO integral calculation        ...        1.141 sec (=   0.019 min)   0.1 %
SCF iterations                  ...     1062.927 sec (=  17.715 min)  91.6 %
SCF Gradient evaluation         ...       96.158 sec (=   1.603 min)   8.3 %
                             ****ORCA TERMINATED NORMALLY****
TOTAL RUN TIME: 0 days 0 hours 19 minutes 20 seconds 640 msec
