
                                 *****************
                                 * O   R   C   A *
                                 *****************

                                            #,                                       
                                            ###                                      
                                            ####                                     
                                            #####                                    
                                            ######                                   
                                           ########,                                 
                                     ,,################,,,,,                         
                               ,,#################################,,                 
                          ,,##########################################,,             
                       ,#########################################, ''#####,          
                    ,#############################################,,   '####,        
                  ,##################################################,,,,####,       
                ,###########''''           ''''###############################       
              ,#####''   ,,,,##########,,,,          '''####'''          '####       
            ,##' ,,,,###########################,,,                        '##       
           ' ,,###''''                  '''############,,,                           
         ,,##''                                '''############,,,,        ,,,,,,###''
      ,#''                                            '''#######################'''  
     '                                                          ''''####''''         
             ,#######,   #######,   ,#######,      ##                                
            ,#'     '#,  ##    ##  ,#'     '#,    #''#        ######   ,####,        
            ##       ##  ##   ,#'  ##            #'  '#       #        #'  '#        
            ##       ##  #######   ##           ,######,      #####,   #    #        
            '#,     ,#'  ##    ##  '#,     ,#' ,#      #,         ##   #,  ,#        
             '#######'   ##     ##  '#######'  #'      '#     #####' # '####'        



                  #######################################################
                  #                        -***-                        #
                  #          Department of theory and spectroscopy      #
                  #    Directorship and core code : Frank Neese         #
                  #        Max Planck Institute fuer Kohlenforschung    #
                  #                Kaiser Wilhelm Platz 1               #
                  #                 D-45470 Muelheim/Ruhr               #
                  #                      Germany                        #
                  #                                                     #
                  #                  All rights reserved                #
                  #                        -***-                        #
                  #######################################################


                         Program Version 5.0.3 -  RELEASE  -


 With contributions from (in alphabetic order):
   Daniel Aravena         : Magnetic Suceptibility
   Michael Atanasov       : Ab Initio Ligand Field Theory (pilot matlab implementation)
   Alexander A. Auer      : GIAO ZORA, VPT2 properties, NMR spectrum
   Ute Becker             : Parallelization
   Giovanni Bistoni       : ED, misc. LED, open-shell LED, HFLD
   Martin Brehm           : Molecular dynamics
   Dmytro Bykov           : SCF Hessian
   Vijay G. Chilkuri      : MRCI spin determinant printing, contributions to CSF-ICE
   Dipayan Datta          : RHF DLPNO-CCSD density
   Achintya Kumar Dutta   : EOM-CC, STEOM-CC
   Dmitry Ganyushin       : Spin-Orbit,Spin-Spin,Magnetic field MRCI
   Miquel Garcia          : C-PCM and meta-GGA Hessian, CC/C-PCM, Gaussian charge scheme
   Yang Guo               : DLPNO-NEVPT2, F12-NEVPT2, CIM, IAO-localization
   Andreas Hansen         : Spin unrestricted coupled pair/coupled cluster methods
   Benjamin Helmich-Paris : MC-RPA, TRAH-SCF, COSX integrals
   Lee Huntington         : MR-EOM, pCC
   Robert Izsak           : Overlap fitted RIJCOSX, COSX-SCS-MP3, EOM
   Marcus Kettner         : VPT2
   Christian Kollmar      : KDIIS, OOCD, Brueckner-CCSD(T), CCSD density, CASPT2, CASPT2-K
   Simone Kossmann        : Meta GGA functionals, TD-DFT gradient, OOMP2, MP2 Hessian
   Martin Krupicka        : Initial AUTO-CI
   Lucas Lang             : DCDCAS
   Marvin Lechner         : AUTO-CI (C++ implementation), FIC-MRCC
   Dagmar Lenk            : GEPOL surface, SMD
   Dimitrios Liakos       : Extrapolation schemes; Compound Job, initial MDCI parallelization
   Dimitrios Manganas     : Further ROCIS development; embedding schemes
   Dimitrios Pantazis     : SARC Basis sets
   Anastasios Papadopoulos: AUTO-CI, single reference methods and gradients
   Taras Petrenko         : DFT Hessian,TD-DFT gradient, ASA, ECA, R-Raman, ABS, FL, XAS/XES, NRVS
   Peter Pinski           : DLPNO-MP2, DLPNO-MP2 Gradient
   Christoph Reimann      : Effective Core Potentials
   Marius Retegan         : Local ZFS, SOC
   Christoph Riplinger    : Optimizer, TS searches, QM/MM, DLPNO-CCSD(T), (RO)-DLPNO pert. Triples
   Tobias Risthaus        : Range-separated hybrids, TD-DFT gradient, RPA, STAB
   Michael Roemelt        : Original ROCIS implementation
   Masaaki Saitow         : Open-shell DLPNO-CCSD energy and density
   Barbara Sandhoefer     : DKH picture change effects
   Avijit Sen             : IP-ROCIS
   Kantharuban Sivalingam : CASSCF convergence, NEVPT2, FIC-MRCI
   Bernardo de Souza      : ESD, SOC TD-DFT
   Georgi Stoychev        : AutoAux, RI-MP2 NMR, DLPNO-MP2 response
   Willem Van den Heuvel  : Paramagnetic NMR
   Boris Wezisla          : Elementary symmetry handling
   Frank Wennmohs         : Technical directorship


 We gratefully acknowledge several colleagues who have allowed us to
 interface, adapt or use parts of their codes:
   Stefan Grimme, W. Hujo, H. Kruse, P. Pracht,  : VdW corrections, initial TS optimization,
                  C. Bannwarth, S. Ehlert          DFT functionals, gCP, sTDA/sTD-DF
   Ed Valeev, F. Pavosevic, A. Kumar             : LibInt (2-el integral package), F12 methods
   Garnet Chan, S. Sharma, J. Yang, R. Olivares  : DMRG
   Ulf Ekstrom                                   : XCFun DFT Library
   Mihaly Kallay                                 : mrcc  (arbitrary order and MRCC methods)
   Jiri Pittner, Ondrej Demel                    : Mk-CCSD
   Frank Weinhold                                : gennbo (NPA and NBO analysis)
   Christopher J. Cramer and Donald G. Truhlar   : smd solvation model
   Lars Goerigk                                  : TD-DFT with DH, B97 family of functionals
   V. Asgeirsson, H. Jonsson                     : NEB implementation
   FAccTs GmbH                                   : IRC, NEB, NEB-TS, DLPNO-Multilevel, CI-OPT
                                                   MM, QMMM, 2- and 3-layer-ONIOM, Crystal-QMMM,
                                                   LR-CPCM, SF, NACMEs, symmetry and pop. for TD-DFT,
                                                   nearIR, NL-DFT gradient (VV10), updates on ESD,
                                                   ML-optimized integration grids
   S Lehtola, MJT Oliveira, MAL Marques          : LibXC Library
   Liviu Ungur et al                             : ANISO software


 Your calculation uses the libint2 library for the computation of 2-el integrals
 For citations please refer to: http://libint.valeyev.net

 Your ORCA version has been built with support for libXC version: 5.1.0
 For citations please refer to: https://tddft.org/programs/libxc/

 This ORCA versions uses:
   CBLAS   interface :  Fast vector & matrix operations
   LAPACKE interface :  Fast linear algebra routines
   SCALAPACK package :  Parallel linear algebra routines
   Shared memory     :  Shared parallel matrices
   BLAS/LAPACK       :  OpenBLAS 0.3.15  USE64BITINT DYNAMIC_ARCH NO_AFFINITY SkylakeX SINGLE_THREADED
        Core in use  :  SkylakeX
   Copyright (c) 2011-2014, The OpenBLAS Project


Your calculation utilizes the geometrical counterpoise correction gCP
Please cite in your paper:
H.Kruse, S. Grimme J.Chem.Phys., 136, (2012), 154101 
   

Your calculation utilizes the atom-pairwise dispersion correction
with the Becke-Johnson damping scheme (D3BJ)
Cite in your paper:
S.Grimme, S.Ehrlich, L.Goerigk, J Comput Chem, (2011), 32, 1456–1465 
S.Grimme, J.Antony, S.Ehrlich and H.Krieg, J.Chem.Phys., 132, (2010), 154104 
   

Your calculation employs the composite approach PBEh-3c.
Please cite in your paper:
S. Grimme, J. G. Brandenburg, C. Bannwarth, A. Hansen J.Chem.Phys., 143, (2015), 054107 
   

================================================================================

cite the ECPs for Pt [Def2-ECP] as follows:
Ce-Yb(ecp-28): M. Dolg, H. Stoll, H.Preuss, J. Chem. Phys., 1989, 90, 1730-1734.
Y-Cd(ecp-28), Hf-Hg(ecp-46): D. Andrae,U. Haeussermann, M. Dolg, H. Stoll, H. Preuss, Theor. Chim. Acta, 1990, 77, 123-141.
In-Sb(ecp-28), Tl-Bi(ecp-46): B. Metz, H. Stoll, M. Dolg, J. Chem. Phys., 2000, 113, 2563-2569.
Te-Xe(ecp-28), Po-Rn(ecp-46): K. A. Peterson, D. Figgen, E. Goll, H. Stoll, M. Dolg, J. Chem. Phys., 2003, 119, 11113-11123.
Rb(ecp-28), Cs(ecp-46): T. Leininger, A. Nicklass, W. Kuechle, H. Stoll, M. Dolg, A. Bergner, Chem. Phys. Lett., 1996, 255, 274-280.
Sr(ecp-28), Ba(ecp-46): M. Kaupp, P. V. Schleyer, H. Stoll and H. Preuss, J. Chem. Phys., 1991, 94, 1360-1366.
La(ecp-46): M. Dolg, H. Stoll, A. Savin, H. Preuss, Theor. Chim. Acta, 1989, 75, 173-194.
Lu(ecp-28): X. Cao, M. Dolg, J. Chem. Phys., 2001, 115, 7348-7355.

ECP parameters for Pt [Def2-ECP] have been obtained from:
TURBOMOLE (7.0.2)

----- Orbital basis set information -----
Your calculation utilizes the basis: def2-mSVP

----- AuxJ basis set information -----
Your calculation utilizes the auxiliary basis: def2/J
   F. Weigend, Phys. Chem. Chem. Phys. 8, 1057 (2006).

================================================================================
                                        WARNINGS
                       Please study these warnings very carefully!
================================================================================


WARNING: No Hueckel Guess possible with ECP basis!
  ===> : Switching to HCORE guess!

INFO   : the flag for use of the SHARK integral package has been found!

================================================================================
                                       INPUT FILE
================================================================================
NAME = 10_4_orca.inp
|  1> ! EnGrad PBEh-3c
|  2> %output 
|  3> xyzfile=True 
|  4> end 
|  5> %scf 
|  6> maxiter 250 
|  7> end
|  8> %output
|  9> Print[P_Hirshfeld] = 1
| 10> end
| 11> % maxcore
| 12> 4000
| 13> *xyz -1 1
| 14> Pt  -0.47593212  -0.69340572   0.34243641 
| 15> Cl  -0.05226613  -0.15938938   2.56661014 
| 16> Cl  -2.54242282  -1.85711941   1.09626235 
| 17> Cl  -1.12525122  -1.26177029  -1.82951750 
| 18> C    0.69485636   0.92597884  -0.45475827 
| 19> H    1.36728303   1.44467722   0.24158847 
| 20> H    0.99096497  -0.75273176   0.12965633 
| 21> H    1.25249410   0.73849125  -1.38401276 
| 22> H   -0.11100853   1.61428874  -0.70647073 
| 23> *
| 24> 
| 25>                          ****END OF INPUT****
================================================================================

                     *******************************
                     * Energy+Gradient Calculation *
                     *******************************

---------------------------------
CARTESIAN COORDINATES (ANGSTROEM)
---------------------------------
  Pt    -0.475932   -0.693406    0.342436
  Cl    -0.052266   -0.159389    2.566610
  Cl    -2.542423   -1.857119    1.096262
  Cl    -1.125251   -1.261770   -1.829517
  C      0.694856    0.925979   -0.454758
  H      1.367283    1.444677    0.241588
  H      0.990965   -0.752732    0.129656
  H      1.252494    0.738491   -1.384013
  H     -0.111009    1.614289   -0.706471

----------------------------
CARTESIAN COORDINATES (A.U.)
----------------------------
  NO LB      ZA    FRAG     MASS         X           Y           Z
   0 Pt   18.0000*   0   195.090   -0.899381   -1.310347    0.647111
   1 Cl   17.0000    0    35.453   -0.098769   -0.301202    4.850190
   2 Cl   17.0000    0    35.453   -4.804483   -3.509447    2.071636
   3 Cl   17.0000    0    35.453   -2.126417   -2.384400   -3.457287
   4 C     6.0000    0    12.011    1.313088    1.749846   -0.859369
   5 H     1.0000    0     1.008    2.583790    2.730044    0.456536
   6 H     1.0000    0     1.008    1.872652   -1.422457    0.245015
   7 H     1.0000    0     1.008    2.366871    1.395546   -2.615405
   8 H     1.0000    0     1.008   -0.209776    3.050564   -1.335036
* core charge reduced due to ECP

--------------------------------
INTERNAL COORDINATES (ANGSTROEM)
--------------------------------
 Pt     0   0   0     0.000000000000     0.00000000     0.00000000
 Cl     1   0   0     2.326287837670     0.00000000     0.00000000
 Cl     1   2   0     2.488547149101    88.22122408     0.00000000
 Cl     1   2   3     2.337100204360   174.25004557    20.48627007
 C      1   2   3     2.151434724989    94.72536205   156.50901720
 H      5   1   2     1.098227853522   116.98488323    13.50467410
 H      1   2   3     1.483435881364    88.06480981   212.02350198
 H      5   1   2     1.099829692571   117.43076678   144.11538044
 H      5   1   2     1.089287795714    99.12863627   258.41841223

---------------------------
INTERNAL COORDINATES (A.U.)
---------------------------
 Pt     0   0   0     0.000000000000     0.00000000     0.00000000
 Cl     1   0   0     4.396046921868     0.00000000     0.00000000
 Cl     1   2   0     4.702672583151    88.22122408     0.00000000
 Cl     1   2   3     4.416479333772   174.25004557    20.48627007
 C      1   2   3     4.065622425237    94.72536205   156.50901720
 H      5   1   2     2.075349875800   116.98488323    13.50467410
 H      1   2   3     2.803287553010    88.06480981   212.02350198
 H      5   1   2     2.078376912915   117.43076678   144.11538044
 H      5   1   2     2.058455614923    99.12863627   258.41841223

---------------------
BASIS SET INFORMATION
---------------------
There are 4 groups of distinct atoms

 Group   1 Type Pt  : 7s6p5d1f contracted to 6s3p2d1f pattern {211111/411/41/1}
 Group   2 Type Cl  : 10s7p1d contracted to 4s3p1d pattern {5311/511/1}
 Group   3 Type C   : 8s4p1d contracted to 4s2p1d pattern {5111/31/1}
 Group   4 Type H   : 4s contracted to 2s pattern {31}

Atom   0Pt   basis set group =>   1
Atom   1Cl   basis set group =>   2
Atom   2Cl   basis set group =>   2
Atom   3Cl   basis set group =>   2
Atom   4C    basis set group =>   3
Atom   5H    basis set group =>   4
Atom   6H    basis set group =>   4
Atom   7H    basis set group =>   4
Atom   8H    basis set group =>   4
---------------------------------
AUXILIARY/J BASIS SET INFORMATION
---------------------------------
There are 4 groups of distinct atoms

 Group   1 Type Pt  : 11s5p5d3f3g contracted to 8s5p5d2f3g pattern {41111111/11111/11111/21/111}
 Group   2 Type Cl  : 14s5p5d2f1g contracted to 8s4p3d1f1g pattern {71111111/2111/311/2/1}
 Group   3 Type C   : 12s5p4d2f1g contracted to 6s4p3d1f1g pattern {711111/2111/211/2/1}
 Group   4 Type H   : 5s2p1d contracted to 3s1p1d pattern {311/2/1}

Atom   0Pt   basis set group =>   1
Atom   1Cl   basis set group =>   2
Atom   2Cl   basis set group =>   2
Atom   3Cl   basis set group =>   2
Atom   4C    basis set group =>   3
Atom   5H    basis set group =>   4
Atom   6H    basis set group =>   4
Atom   7H    basis set group =>   4
Atom   8H    basis set group =>   4
-------------------------
ECP PARAMETER INFORMATION
-------------------------

 Group 1, Type Pt ECP Def2-ECP (replacing 60 core electrons, lmax=3)

Atom   0Pt   ECP group =>   1

------------------------------------------------------------------------------
                           ORCA GTO INTEGRAL CALCULATION
                           -- RI-GTO INTEGRALS CHOSEN --
------------------------------------------------------------------------------
------------------------------------------------------------------------------
                   ___                                                        
                  /   \      - P O W E R E D   B Y -                         
                 /     \                                                     
                 |  |  |   _    _      __       _____    __    __             
                 |  |  |  | |  | |    /  \     |  _  \  |  |  /  |          
                  \  \/   | |  | |   /    \    | | | |  |  | /  /          
                 / \  \   | |__| |  /  /\  \   | |_| |  |  |/  /          
                |  |  |   |  __  | /  /__\  \  |    /   |      \           
                |  |  |   | |  | | |   __   |  |    \   |  |\   \          
                \     /   | |  | | |  |  |  |  | |\  \  |  | \   \       
                 \___/    |_|  |_| |__|  |__|  |_| \__\ |__|  \__/        
                                                                              
                      - O R C A' S   B I G   F R I E N D -                    
                                      &                                       
                       - I N T E G R A L  F E E D E R -                       
                                                                              
 v1 FN, 2020, v2 2021                                                         
------------------------------------------------------------------------------


Reading SHARK input file 10_4_orca.SHARKINP.tmp ... ok
----------------------
SHARK INTEGRAL PACKAGE
----------------------

Number of atoms                             ...      9
Number of basis functions                   ...    109
Number of shells                            ...     51
Maximum angular momentum                    ...      3
Integral batch strategy                     ... SHARK/LIBINT Hybrid
RI-J (if used) integral strategy            ... SPLIT-RIJ (Revised 2003 algorithm where possible)
Printlevel                                  ...      1
Contraction scheme used                     ... SEGMENTED contraction
Coulomb Range Separation                    ... NOT USED
Exchange Range Separation                   ... NOT USED
Finite Nucleus Model                        ... NOT USED
Auxiliary Coulomb fitting basis             ... AVAILABLE
   # of basis functions in Aux-J            ...    335
   # of shells in Aux-J                     ...    109
   Maximum angular momentum in Aux-J        ...      4
Auxiliary J/K fitting basis                 ... NOT available
Auxiliary Correlation fitting basis         ... NOT available
Auxiliary 'external' fitting basis          ... NOT available
Integral threshold                          ...     2.500000e-11
Primitive cut-off                           ...     2.500000e-12
Primitive pair pre-selection threshold      ...     2.500000e-12

Calculating pre-screening integrals         ... done (  0.1 sec) Dimension = 51
Organizing shell pair data                  ... done (  0.0 sec)
Shell pair information
Total number of shell pairs                 ...      1326
Shell pairs after pre-screening             ...      1197
Total number of primitive shell pairs       ...      5360
Primitive shell pairs kept                  ...      3507
          la=0 lb=0:    403 shell pairs
          la=1 lb=0:    373 shell pairs
          la=1 lb=1:     99 shell pairs
          la=2 lb=0:    169 shell pairs
          la=2 lb=1:     81 shell pairs
          la=2 lb=2:     21 shell pairs
          la=3 lb=0:     30 shell pairs
          la=3 lb=1:     14 shell pairs
          la=3 lb=2:      6 shell pairs
          la=3 lb=3:      1 shell pairs

Calculating one electron integrals          ... done (  0.0 sec)
Calculating ECP integrals                   ... done (  0.1 sec)
Calculating RI/J V-Matrix + Cholesky decomp.... done (  0.0 sec)
Calculating Nuclear repulsion               ... done (  0.0 sec) ENN=    458.769837820330 Eh

SHARK setup successfully completed in   0.3 seconds

Maximum memory used throughout the entire GTOINT-calculation: 19.1 MB
-------------------------------------------------------------------------------
                                 ORCA SCF
-------------------------------------------------------------------------------

------------
SCF SETTINGS
------------
Hamiltonian:
 Density Functional     Method          .... DFT(GTOs)
 Exchange Functional    Exchange        .... PBE
   PBE kappa parameter   XKappa         ....  1.024500
   PBE mue parameter    XMuePBE         ....  0.123457
 Correlation Functional Correlation     .... PBE
   PBE beta parameter  CBetaPBE         ....  0.030000
 LDA part of GGA corr.  LDAOpt          .... PW91-LDA
 Gradients option       PostSCFGGA      .... off
 Hybrid DFT is turned on
   Fraction HF Exchange ScalHFX         ....  0.420000
   Scaling of DF-GGA-X  ScalDFX         ....  0.580000
   Scaling of DF-GGA-C  ScalDFC         ....  1.000000
   Scaling of DF-LDA-C  ScalLDAC        ....  1.000000
   Perturbative correction              ....  0.000000
   Density functional embedding theory  .... OFF
 RI-approximation to the Coulomb term is turned on
   Number of AuxJ basis functions       .... 335
   RIJ-ON(X) (HFX calculated with O(N)) .... on
   Number of AuxJ basis functions       .... 335
   RIJ-COSX (HFX calculated with COS-X)).... on


General Settings:
 Integral files         IntName         .... 10_4_orca
 Hartree-Fock type      HFTyp           .... RHF
 Total Charge           Charge          ....   -1
 Multiplicity           Mult            ....    1
 Number of Electrons    NEL             ....   80
 Basis Dimension        Dim             ....  109
 Nuclear Repulsion      ENuc            ....    458.7698378203 Eh

Convergence Acceleration:
 DIIS                   CNVDIIS         .... on
   Start iteration      DIISMaxIt       ....    12
   Startup error        DIISStart       ....  0.200000
   # of expansion vecs  DIISMaxEq       ....     5
   Bias factor          DIISBfac        ....   1.050
   Max. coefficient     DIISMaxC        ....  10.000
 Trust-Rad. Augm. Hess. CNVTRAH         .... auto
   Auto Start mean grad. ratio tolernc. ....  1.125000
   Auto Start start iteration           ....    20
   Auto Start num. interpolation iter.  ....    10
   Max. Number of Micro iterations      ....    16
   Max. Number of Macro iterations      .... Maxiter - #DIIS iter
   Number of Davidson start vectors     ....     2
   Converg. threshold I  (grad. norm)   ....   1.000e-05
   Converg. threshold II (energy diff.) ....   1.000e-08
   Grad. Scal. Fac. for Micro threshold ....   0.100
   Minimum threshold for Micro iter.    ....   0.010
   NR start threshold (gradient norm)   ....   0.001
   Initial trust radius                 ....   0.400
   Minimum AH scaling param. (alpha)    ....   1.000
   Maximum AH scaling param. (alpha)    .... 1000.000
   Orbital update algorithm             .... Taylor
   White noise on init. David. guess    .... on
   Maximum white noise                  ....   0.010
   Quad. conv. algorithm                .... NR
   COSX micro iterations for RIJONX calc.... off
 SOSCF                  CNVSOSCF        .... off
 Level Shifting         CNVShift        .... on
   Level shift para.    LevelShift      ....    0.2500
   Turn off err/grad.   ShiftErr        ....    0.0010
 Zerner damping         CNVZerner       .... off
 Static damping         CNVDamp         .... on
   Fraction old density DampFac         ....    0.7000
   Max. Damping (<1)    DampMax         ....    0.9800
   Min. Damping (>=0)   DampMin         ....    0.0000
   Turn off err/grad.   DampErr         ....    0.1000
 Fernandez-Rico         CNVRico         .... off

SCF Procedure:
 Maximum # iterations   MaxIter         ....   250
 SCF integral mode      SCFMode         .... Direct
   Integral package                     .... SHARK and LIBINT hybrid scheme
 Reset frequency        DirectResetFreq ....    20
 Integral Threshold     Thresh          ....  2.500e-11 Eh
 Primitive CutOff       TCut            ....  2.500e-12 Eh

Convergence Tolerance:
 Convergence Check Mode ConvCheckMode   .... Total+1el-Energy
 Convergence forced     ConvForced      .... 0
 Energy Change          TolE            ....  1.000e-08 Eh
 1-El. energy change                    ....  1.000e-05 Eh
 DIIS Error             TolErr          ....  5.000e-07


Diagonalization of the overlap matrix:
Smallest eigenvalue                        ... 9.733e-03
Time for diagonalization                   ...    0.004 sec
Threshold for overlap eigenvalues          ... 1.000e-08
Number of eigenvalues below threshold      ... 0
Time for construction of square roots      ...    0.001 sec
Total time needed                          ...    0.005 sec

--------------------
INITIAL GUESS: HCORE
--------------------
                      -----------------
                      INTIAL GUESS DONE 
                      -----------------
-------------------
DFT GRID GENERATION
-------------------

General Integration Accuracy     IntAcc      ... 4.159
Radial Grid Type                 RadialGrid  ... OptM3 with GC (2021)
Angular Grid (max. ang.)         AngularGrid ... 3 (Lebedev-194)
Angular grid pruning method      GridPruning ... 4 (adaptive)
Weight generation scheme         WeightScheme... Becke
Basis function cutoff            BFCut       ... 1.0000e-11
Integration weight cutoff        WCut        ... 1.0000e-14
Angular grids for H and He will be reduced by one unit
Partially contracted basis set               ... off
Rotationally invariant grid construction     ... off

Total number of grid points                  ...    27566
Total number of batches                      ...      436
Average number of points per batch           ...       63
Average number of grid points per atom       ...     3063
Time for grid setup =    0.198 sec

--------------------
COSX GRID GENERATION
--------------------

GRIDX 1
-------
General Integration Accuracy     IntAcc      ... 3.816
Radial Grid Type                 RadialGrid  ... OptM3 with GC (2021)
Angular Grid (max. ang.)         AngularGrid ... 1 (Lebedev-50)
Angular grid pruning method      GridPruning ... 4 (adaptive)
Weight generation scheme         WeightScheme... Becke
Basis function cutoff            BFCut       ... 1.0000e-11
Integration weight cutoff        WCut        ... 1.0000e-14
Angular grids for H and He will be reduced by one unit
Partially contracted basis set               ... on
Rotationally invariant grid construction     ... off

Total number of grid points                  ...     6235
Total number of batches                      ...      101
Average number of points per batch           ...       61
Average number of grid points per atom       ...      693
UseSFitting                                  ... on

GRIDX 2
-------
General Integration Accuracy     IntAcc      ... 4.020
Radial Grid Type                 RadialGrid  ... OptM3 with GC (2021)
Angular Grid (max. ang.)         AngularGrid ... 2 (Lebedev-110)
Angular grid pruning method      GridPruning ... 4 (adaptive)
Weight generation scheme         WeightScheme... Becke
Basis function cutoff            BFCut       ... 1.0000e-11
Integration weight cutoff        WCut        ... 1.0000e-14
Angular grids for H and He will be reduced by one unit
Partially contracted basis set               ... on
Rotationally invariant grid construction     ... off

Total number of grid points                  ...    14682
Total number of batches                      ...      235
Average number of points per batch           ...       62
Average number of grid points per atom       ...     1631
UseSFitting                                  ... on

GRIDX 3
-------
General Integration Accuracy     IntAcc      ... 4.338
Radial Grid Type                 RadialGrid  ... OptM3 with GC (2021)
Angular Grid (max. ang.)         AngularGrid ... 3 (Lebedev-194)
Angular grid pruning method      GridPruning ... 4 (adaptive)
Weight generation scheme         WeightScheme... Becke
Basis function cutoff            BFCut       ... 1.0000e-11
Integration weight cutoff        WCut        ... 1.0000e-14
Angular grids for H and He will be reduced by one unit
Partially contracted basis set               ... on
Rotationally invariant grid construction     ... off

Total number of grid points                  ...    32680
Total number of batches                      ...      514
Average number of points per batch           ...       63
Average number of grid points per atom       ...     3631
UseSFitting                                  ... on

Time for X-Grid setup             =    0.385 sec

--------------
SCF ITERATIONS
--------------
ITER       Energy         Delta-E        Max-DP      RMS-DP      [F,P]     Damp
               ***  Starting incremental Fock matrix formation  ***
  0  -1490.1577967071   0.00000000000017.38509102  0.29798371  1.5415801 0.7000
  1  -1504.5017822840 -14.343985576838 5.22456043  0.10979367  1.2549840 0.7000
  2  -1514.6291675840 -10.127385300007 3.56604072  0.07836511  0.8111559 0.7000
  3  -1521.6830893824  -7.053921798384 2.45850883  0.05558621  0.5477260 0.7000
  4  -1526.7638334831  -5.080744100699 1.70432972  0.03904883  0.3764468 0.7000
  5  -1530.3804595527  -3.616626069621 1.18789601  0.02737944  0.2599345 0.7000
                               ***Turning on DIIS***
  6  -1532.9424936164  -2.562034063710 0.83106826  0.01919330  0.1787652 0.7000
  7  -1534.7520894076  -1.809595791173 0.58319481  0.01347380  0.1221541 0.7000
  8  -1536.0273539278  -1.275264520265 1.36274474  0.03154006  0.0839914 0.0000
  9  -1539.0325834926  -3.005229564760 0.00885462  0.00041667  0.0035512 0.0000
 10  -1539.0328761481  -0.000292655541 0.00453108  0.00019331  0.0015413 0.0000
 11  -1539.0329488913  -0.000072743144 0.00492373  0.00018974  0.0009122 0.0000
               *** Restarting incremental Fock matrix formation ***
                                   *** Resetting DIIS ***
 12  -1539.0332385715  -0.000289680265 0.00212707  0.00012583  0.0011764 0.0000
 13  -1539.0332606574  -0.000022085852 0.00340268  0.00007021  0.0008763 0.0000
 14  -1539.0332625061  -0.000001848704 0.00117571  0.00003636  0.0008982 0.0000
 15  -1539.0332658997  -0.000003393597 0.00057108  0.00001093  0.0002248 0.0000
 16  -1539.0332662298  -0.000000330116 0.00026233  0.00000549  0.0000766 0.0000
 17  -1539.0332662885  -0.000000058745 0.00013311  0.00000258  0.0000237 0.0000
 18  -1539.0332663011  -0.000000012521 0.00008863  0.00000163  0.0000115 0.0000
 19  -1539.0332663044  -0.000000003334 0.00002855  0.00000062  0.0000040 0.0000
                 **** Energy Check signals convergence ****

               *****************************************************
               *                     SUCCESS                       *
               *           SCF CONVERGED AFTER  20 CYCLES          *
               *****************************************************

Old exchange energy                            =    -42.060570316 Eh
New exchange energy                            =    -42.060685512 Eh
Exchange energy change after final integration =     -0.000115196 Eh
Total energy after final integration           =  -1539.033381500 Eh
Final COS-X integration done in                =     2.861 sec

----------------
TOTAL SCF ENERGY
----------------

Total Energy       :        -1539.03338150 Eh          -41879.22741 eV

Components:
Nuclear Repulsion  :          458.76983782 Eh           12483.76195 eV
Electronic Energy  :        -1997.80321932 Eh          -54362.98936 eV
One Electron Energy:        -3098.58589346 Eh          -84316.80874 eV
Two Electron Energy:         1100.78267414 Eh           29953.81939 eV
Max COSX asymmetry :            0.00001543 Eh               0.00042 eV

Virial components:
Potential Energy   :        -2996.74341824 Eh          -81545.53411 eV
Kinetic Energy     :         1457.71003674 Eh           39666.30670 eV
Virial Ratio       :            2.05578842


DFT components:
N(Alpha)           :       40.000011043716 electrons
N(Beta)            :       40.000011043716 electrons
N(Total)           :       80.000022087433 electrons
E(X)               :      -56.333624534771 Eh       
E(C)               :       -4.035656329068 Eh       
E(XC)              :      -60.369280863839 Eh       
DFET-embed. en.    :        0.000000000000 Eh       

---------------
SCF CONVERGENCE
---------------

  Last Energy change         ...   -2.2669e-10  Tolerance :   1.0000e-08
  Last MAX-Density change    ...    0.0000e+00  Tolerance :   1.0000e-07
  Last RMS-Density change    ...    0.0000e+00  Tolerance :   5.0000e-09
  Last DIIS Error            ...    1.8537e-06  Tolerance :   5.0000e-07

             **** THE GBW FILE WAS UPDATED (10_4_orca.gbw) ****
             **** DENSITY 10_4_orca.scfp WAS UPDATED ****
             **** ENERGY FILE WAS UPDATED (10_4_orca.en.tmp) ****
             **** THE GBW FILE WAS UPDATED (10_4_orca.gbw) ****
             **** DENSITY 10_4_orca.scfp WAS UPDATED ****
----------------
ORBITAL ENERGIES
----------------

  NO   OCC          E(Eh)            E(eV) 
   0   2.0000    -102.100125     -2778.2856 
   1   2.0000    -102.097536     -2778.2152 
   2   2.0000    -102.072277     -2777.5279 
   3   2.0000     -10.342713      -281.4395 
   4   2.0000      -9.564244      -260.2563 
   5   2.0000      -9.561589      -260.1841 
   6   2.0000      -9.535604      -259.4770 
   7   2.0000      -7.250567      -197.2979 
   8   2.0000      -7.247924      -197.2260 
   9   2.0000      -7.245071      -197.1484 
  10   2.0000      -7.244700      -197.1383 
  11   2.0000      -7.242464      -197.0775 
  12   2.0000      -7.241997      -197.0648 
  13   2.0000      -7.221258      -196.5004 
  14   2.0000      -7.217179      -196.3894 
  15   2.0000      -7.216275      -196.3648 
  16   2.0000      -3.997440      -108.7759 
  17   2.0000      -2.211306       -60.1727 
  18   2.0000      -2.199462       -59.8504 
  19   2.0000      -2.181017       -59.3485 
  20   2.0000      -0.701365       -19.0851 
  21   2.0000      -0.685350       -18.6493 
  22   2.0000      -0.660647       -17.9771 
  23   2.0000      -0.652070       -17.7437 
  24   2.0000      -0.393829       -10.7166 
  25   2.0000      -0.351752        -9.5717 
  26   2.0000      -0.335334        -9.1249 
  27   2.0000      -0.304958        -8.2983 
  28   2.0000      -0.278400        -7.5756 
  29   2.0000      -0.266399        -7.2491 
  30   2.0000      -0.255850        -6.9620 
  31   2.0000      -0.218957        -5.9581 
  32   2.0000      -0.202307        -5.5050 
  33   2.0000      -0.194488        -5.2923 
  34   2.0000      -0.189014        -5.1433 
  35   2.0000      -0.159717        -4.3461 
  36   2.0000      -0.151971        -4.1353 
  37   2.0000      -0.149287        -4.0623 
  38   2.0000      -0.140499        -3.8232 
  39   2.0000      -0.138363        -3.7650 
  40   0.0000       0.098117         2.6699 
  41   0.0000       0.123852         3.3702 
  42   0.0000       0.214068         5.8251 
  43   0.0000       0.250458         6.8153 
  44   0.0000       0.263689         7.1753 
  45   0.0000       0.267614         7.2822 
  46   0.0000       0.308329         8.3901 
  47   0.0000       0.328907         8.9500 
  48   0.0000       0.378749        10.3063 
  49   0.0000       0.406867        11.0714 
  50   0.0000       0.535342        14.5674 
  51   0.0000       0.557308        15.1651 
  52   0.0000       0.573022        15.5927 
  53   0.0000       0.583891        15.8885 
  54   0.0000       0.649200        17.6656 
  55   0.0000       0.681519        18.5451 
  56   0.0000       0.705836        19.2068 
  57   0.0000       0.776823        21.1384 
  58   0.0000       0.784824        21.3561 
  59   0.0000       0.841464        22.8974 
  60   0.0000       0.877378        23.8747 
  61   0.0000       0.923408        25.1272 
  62   0.0000       0.933941        25.4138 
  63   0.0000       0.971262        26.4294 
  64   0.0000       0.996383        27.1130 
  65   0.0000       1.015342        27.6289 
  66   0.0000       1.029069        28.0024 
  67   0.0000       1.033367        28.1194 
  68   0.0000       1.035180        28.1687 
  69   0.0000       1.041501        28.3407 
  70   0.0000       1.046989        28.4900 
  71   0.0000       1.049678        28.5632 
  72   0.0000       1.063070        28.9276 
  73   0.0000       1.070010        29.1165 
  74   0.0000       1.076569        29.2949 
  75   0.0000       1.085639        29.5417 
  76   0.0000       1.108988        30.1771 
  77   0.0000       1.119517        30.4636 
  78   0.0000       1.131323        30.7849 
  79   0.0000       1.135098        30.8876 
  80   0.0000       1.146346        31.1937 
  81   0.0000       1.200711        32.6730 
  82   0.0000       1.239025        33.7156 
  83   0.0000       1.258378        34.2422 
  84   0.0000       1.268742        34.5242 
  85   0.0000       1.281227        34.8640 
  86   0.0000       1.290621        35.1196 
  87   0.0000       1.333673        36.2911 
  88   0.0000       1.395060        37.9615 
  89   0.0000       1.439391        39.1678 
  90   0.0000       1.482138        40.3310 
  91   0.0000       1.522062        41.4174 
  92   0.0000       1.594434        43.3868 
  93   0.0000       1.608666        43.7740 
  94   0.0000       1.627551        44.2879 
  95   0.0000       1.635056        44.4921 
  96   0.0000       1.683202        45.8022 
  97   0.0000       1.829984        49.7964 
  98   0.0000       1.910123        51.9771 
  99   0.0000       1.935271        52.6614 
 100   0.0000       1.994687        54.2782 
 101   0.0000       2.041217        55.5443 
 102   0.0000       2.323715        63.2315 
 103   0.0000       2.430051        66.1251 
 104   0.0000       2.448216        66.6193 
 105   0.0000       2.538855        69.0857 
 106   0.0000      13.805081       375.6554 
 107   0.0000      51.137520      1391.5227 
 108   0.0000     282.750589      7694.0347 

                    ********************************
                    * MULLIKEN POPULATION ANALYSIS *
                    ********************************

-----------------------
MULLIKEN ATOMIC CHARGES
-----------------------
   0 Pt:    0.162170
   1 Cl:   -0.388242
   2 Cl:   -0.421157
   3 Cl:   -0.401445
   4 C :   -0.849556
   5 H :    0.242107
   6 H :    0.157110
   7 H :    0.241405
   8 H :    0.257609
Sum of atomic charges:   -1.0000000

--------------------------------
MULLIKEN REDUCED ORBITAL CHARGES
--------------------------------
  0 Pts       :     2.730174  s :     2.730174
      pz      :     2.132493  p :     6.443536
      px      :     2.158963
      py      :     2.152080
      dz2     :     1.476904  d :     8.636884
      dxz     :     1.864757
      dyz     :     1.820062
      dx2y2   :     1.697979
      dxy     :     1.777181
      f0      :     0.006389  f :     0.027237
      f+1     :     0.005832
      f-1     :     0.003579
      f+2     :     0.001678
      f-2     :     0.002941
      f+3     :     0.004854
      f-3     :     0.001964
  1 Cls       :     5.942292  s :     5.942292
      pz      :     3.581362  p :    11.429130
      px      :     3.935249
      py      :     3.912519
      dz2     :     0.007231  d :     0.016820
      dxz     :     0.004063
      dyz     :     0.004463
      dx2y2   :     0.000478
      dxy     :     0.000585
  2 Cls       :     5.950172  s :     5.950172
      pz      :     3.922790  p :    11.462952
      px      :     3.692059
      py      :     3.848103
      dz2     :     0.001218  d :     0.008033
      dxz     :     0.001872
      dyz     :     0.000696
      dx2y2   :     0.001687
      dxy     :     0.002560
  3 Cls       :     5.942576  s :     5.942576
      pz      :     3.630322  p :    11.442678
      px      :     3.898581
      py      :     3.913775
      dz2     :     0.006098  d :     0.016191
      dxz     :     0.004355
      dyz     :     0.004216
      dx2y2   :     0.000728
      dxy     :     0.000793
  4 C s       :     3.468637  s :     3.468637
      pz      :     1.122754  p :     3.347174
      px      :     1.148569
      py      :     1.075851
      dz2     :     0.005319  d :     0.033744
      dxz     :     0.010356
      dyz     :     0.005115
      dx2y2   :     0.002872
      dxy     :     0.010083
  5 H s       :     0.757893  s :     0.757893
  6 H s       :     0.842890  s :     0.842890
  7 H s       :     0.758595  s :     0.758595
  8 H s       :     0.742391  s :     0.742391


                     *******************************
                     * LOEWDIN POPULATION ANALYSIS *
                     *******************************

----------------------
LOEWDIN ATOMIC CHARGES
----------------------
   0 Pt:   -0.782511
   1 Cl:   -0.105967
   2 Cl:   -0.229064
   3 Cl:   -0.117230
   4 C :   -0.387989
   5 H :    0.141830
   6 H :    0.176738
   7 H :    0.141464
   8 H :    0.162729

-------------------------------
LOEWDIN REDUCED ORBITAL CHARGES
-------------------------------
  0 Pts       :     2.713105  s :     2.713105
      pz      :     2.342292  p :     6.902760
      px      :     2.313164
      py      :     2.247304
      dz2     :     1.631129  d :     9.123403
      dxz     :     1.960684
      dyz     :     1.922706
      dx2y2   :     1.758543
      dxy     :     1.850341
      f0      :     0.011079  f :     0.043242
      f+1     :     0.009194
      f-1     :     0.006130
      f+2     :     0.002475
      f-2     :     0.004860
      f+3     :     0.006635
      f-3     :     0.002870
  1 Cls       :     5.754226  s :     5.754226
      pz      :     3.563642  p :    11.332691
      px      :     3.896059
      py      :     3.872990
      dz2     :     0.008121  d :     0.019050
      dxz     :     0.004707
      dyz     :     0.005054
      dx2y2   :     0.000524
      dxy     :     0.000644
  2 Cls       :     5.800951  s :     5.800951
      pz      :     3.899784  p :    11.419283
      px      :     3.691138
      py      :     3.828361
      dz2     :     0.001365  d :     0.008829
      dxz     :     0.002093
      dyz     :     0.000729
      dx2y2   :     0.001646
      dxy     :     0.002997
  3 Cls       :     5.756889  s :     5.756889
      pz      :     3.611423  p :    11.342062
      px      :     3.860049
      py      :     3.870590
      dz2     :     0.007102  d :     0.018278
      dxz     :     0.004849
      dyz     :     0.004731
      dx2y2   :     0.000768
      dxy     :     0.000829
  4 C s       :     3.001563  s :     3.001563
      pz      :     1.120318  p :     3.330287
      px      :     1.133270
      py      :     1.076699
      dz2     :     0.008729  d :     0.056139
      dxz     :     0.017280
      dyz     :     0.008564
      dx2y2   :     0.004566
      dxy     :     0.017000
  5 H s       :     0.858170  s :     0.858170
  6 H s       :     0.823262  s :     0.823262
  7 H s       :     0.858536  s :     0.858536
  8 H s       :     0.837271  s :     0.837271


                      *****************************
                      * MAYER POPULATION ANALYSIS *
                      *****************************

  NA   - Mulliken gross atomic population
  ZA   - Total nuclear charge
  QA   - Mulliken gross atomic charge
  VA   - Mayer's total valence
  BVA  - Mayer's bonded valence
  FA   - Mayer's free valence

  ATOM       NA         ZA         QA         VA         BVA        FA
  0 Pt    17.8378    18.0000     0.1622     3.7325     3.7325     0.0000
  1 Cl    17.3882    17.0000    -0.3882     0.9984     0.9984    -0.0000
  2 Cl    17.4212    17.0000    -0.4212     0.9667     0.9667     0.0000
  3 Cl    17.4014    17.0000    -0.4014     0.9806     0.9806    -0.0000
  4 C      6.8496     6.0000    -0.8496     3.7468     3.7468     0.0000
  5 H      0.7579     1.0000     0.2421     0.8936     0.8936     0.0000
  6 H      0.8429     1.0000     0.1571     0.9676     0.9676    -0.0000
  7 H      0.7586     1.0000     0.2414     0.8935     0.8935    -0.0000
  8 H      0.7424     1.0000     0.2576     0.8858     0.8858     0.0000

  Mayer bond orders larger than 0.100000
B(  0-Pt,  1-Cl) :   0.8014 B(  0-Pt,  2-Cl) :   0.7266 B(  0-Pt,  3-Cl) :   0.7784 
B(  0-Pt,  4-C ) :   0.7108 B(  0-Pt,  6-H ) :   0.6930 B(  1-Cl,  3-Cl) :   0.1384 
B(  2-Cl,  4-C ) :   0.1170 B(  4-C ,  5-H ) :   0.8918 B(  4-C ,  6-H ) :   0.1875 
B(  4-C ,  7-H ) :   0.8962 B(  4-C ,  8-H ) :   0.8955 


------------------
HIRSHFELD ANALYSIS
------------------

Total integrated alpha density =     40.000011044
Total integrated beta density  =     40.000011044

  ATOM     CHARGE      SPIN    
   0 Pt   0.101904    0.000000
   1 Cl  -0.350955    0.000000
   2 Cl  -0.420021    0.000000
   3 Cl  -0.355969    0.000000
   4 C   -0.086016    0.000000
   5 H    0.023266    0.000000
   6 H    0.032047    0.000000
   7 H    0.024082    0.000000
   8 H    0.031638    0.000000

  TOTAL  -1.000022    0.000000

-------
TIMINGS
-------

Total SCF time: 0 days 0 hours 0 min 27 sec 

Total time                  ....      27.532 sec
Sum of individual times     ....      27.340 sec  ( 99.3%)

Fock matrix formation       ....      26.608 sec  ( 96.6%)
  Split-RI-J                ....       2.148 sec  (  8.1% of F)
  Chain of spheres X        ....      21.125 sec  ( 79.4% of F)
  XC integration            ....       3.278 sec  ( 12.3% of F)
    Basis function eval.    ....       1.359 sec  ( 41.5% of XC)
    Density eval.           ....       0.572 sec  ( 17.5% of XC)
    XC-Functional eval.     ....       0.500 sec  ( 15.3% of XC)
    XC-Potential eval.      ....       0.688 sec  ( 21.0% of XC)
Diagonalization             ....       0.029 sec  (  0.1%)
Density matrix formation    ....       0.003 sec  (  0.0%)
Population analysis         ....       0.103 sec  (  0.4%)
Initial guess               ....       0.003 sec  (  0.0%)
Orbital Transformation      ....       0.000 sec  (  0.0%)
Orbital Orthonormalization  ....       0.000 sec  (  0.0%)
DIIS solution               ....       0.010 sec  (  0.0%)
Grid generation             ....       0.584 sec  (  2.1%)

Maximum memory used throughout the entire SCF-calculation: 76.7 MB


-------------------------------------------------------------------------------
                          DFT DISPERSION CORRECTION                            
                                                                               
                              DFTD3 V3.1  Rev 1                                
                          USING Becke-Johnson damping                          
-------------------------------------------------------------------------------
The PBEh-3c composite method is recognized
Using three-body term ABC
Active option DFTDOPT                   ...         4   

molecular C6(AA) [au] = 3373.707567 


            DFT-D V3
 parameters
 s6 scaling factor         :     1.0000 
 a1 scaling factor         :     0.4860 
 s8 scaling factor         :     0.0000 
 a2 scaling factor         :     4.5000 
 Damping factor alpha9(ATM):    16.0000 
 ad hoc parameters k1-k3   :    16.0000     1.3333    -4.0000 

 Edisp/kcal,au: -3.288160261278  -0.005240016361 
 E6   /kcal   :  -3.297907334 
 E8   /kcal   :  -0.000000000 
 E6(ABC)      :   0.009747073 
 % E8         :   0.000000000 
 % E6(ABC)    :  -0.296429377 

-------------------------   ----------------
Dispersion correction           -0.005240016
-------------------------   ----------------

 ** NOTE ** -> element pt will be treated as ni
NOTIFICATION: Different basis set in ORCA and otool_gcp:
ORCA: 109  gCP: 108 
If you are NOT using ECPs, check your basis set inputs!
------------------   -----------------
gCP correction             0.018972514
------------------   -----------------

-------------------------   --------------------
FINAL SINGLE POINT ENERGY     -1539.019649003081
-------------------------   --------------------

------------------------------------------------------------------------------
                         ORCA SCF GRADIENT CALCULATION
------------------------------------------------------------------------------

 ... reading COSX grid (gridx3)
Gradient of the Kohn-Sham DFT energy:
Kohn-Sham wavefunction type      ... RKS
Hartree-Fock exchange scaling    ...    0.420
Number of operators              ...    1
Number of atoms                  ...    9
Basis set dimensions             ...  109
Integral neglect threshold       ... 2.5e-11
Integral primitive cutoff        ... 2.5e-12
SHARK Integral package           ... ON

Nuc. rep. gradient       (SHARK) ... done (  0.0 sec)
HCore & Overlap gradient (SHARK) ... done (  0.1 sec)
ECP gradient             (SHARK) ... done (  0.3 sec)
RI-J gradient            (SHARK) ... done (  0.6 sec)
COSX-gradient                    ... done (  3.7 sec)
Exchange-correlation gradient    ... done
Dispersion correction            ... done
gCP correction                   ... done

------------------
CARTESIAN GRADIENT
------------------

   1   Pt  :    0.028965467   -0.004028036   -0.002932077
   2   Cl  :   -0.004383733   -0.002303022    0.003750265
   3   Cl  :   -0.020139166   -0.010348770    0.006073638
   4   Cl  :   -0.007886279   -0.002147265   -0.000887523
   5   C   :    0.005142443   -0.001896661    0.000032801
   6   H   :    0.005547288    0.009624411   -0.002354040
   7   H   :   -0.014502419    0.006259714    0.003146705
   8   H   :    0.005894602    0.006622194   -0.006665491
   9   H   :    0.001513242   -0.001197488    0.000121304

Difference to translation invariance:
           :    0.0001514451    0.0005850751    0.0002855798

Difference to rotation invariance:
           :   -0.0003083627    0.0011242133   -0.0023002860

Norm of the cartesian gradient     ...    0.0454392927
RMS gradient                       ...    0.0087447960
MAX gradient                       ...    0.0289654667

-------
TIMINGS
-------

Total SCF gradient time            ...        5.707 sec

One electron gradient       ....       0.360 sec  (  6.3%)
RI-J Coulomb gradient       ....       0.615 sec  ( 10.8%)
COSX gradient               ....       3.681 sec  ( 64.5%)
XC gradient                 ....       0.705 sec  ( 12.4%)

Maximum memory used throughout the entire SCFGRAD-calculation: 51.1 MB

                            ***************************************
                            *     ORCA property calculations      *
                            ***************************************

                                    ---------------------
                                    Active property flags
                                    ---------------------
   (+) Dipole Moment


------------------------------------------------------------------------------
                       ORCA ELECTRIC PROPERTIES CALCULATION
------------------------------------------------------------------------------

Dipole Moment Calculation                       ... on
Quadrupole Moment Calculation                   ... off
Polarizability Calculation                      ... off
GBWName                                         ... 10_4_orca.gbw
Electron density                                ... 10_4_orca.scfp
The origin for moment calculation is the CENTER OF MASS  = (-1.266946, -1.412481  0.741677)

-------------
DIPOLE MOMENT
-------------
                                X             Y             Z
Electronic contribution:     22.62052       2.11114      -4.15700
Nuclear contribution   :    -21.11243      -1.06328       3.54760
                        -----------------------------------------
Total Dipole Moment    :      1.50809       1.04786      -0.60940
                        -----------------------------------------
Magnitude (a.u.)       :      1.93486
Magnitude (Debye)      :      4.91803



--------------------
Rotational spectrum 
--------------------
 
Rotational constants in cm-1:     0.059037     0.042523     0.025473 
Rotational constants in MHz :  1769.893595  1274.812465   763.674492 

 Dipole components along the rotational axes: 
x,y,z [a.u.] :     0.015290     1.934451    -0.036971 
x,y,z [Debye]:     0.038864     4.916983    -0.093972 

 

Timings for individual modules:

Sum of individual times         ...       33.651 sec (=   0.561 min)
GTO integral calculation        ...        0.361 sec (=   0.006 min)   1.1 %
SCF iterations                  ...       27.553 sec (=   0.459 min)  81.9 %
SCF Gradient evaluation         ...        5.737 sec (=   0.096 min)  17.0 %
                             ****ORCA TERMINATED NORMALLY****
TOTAL RUN TIME: 0 days 0 hours 0 minutes 34 seconds 4 msec
