
                                 *****************
                                 * O   R   C   A *
                                 *****************

                                            #,                                       
                                            ###                                      
                                            ####                                     
                                            #####                                    
                                            ######                                   
                                           ########,                                 
                                     ,,################,,,,,                         
                               ,,#################################,,                 
                          ,,##########################################,,             
                       ,#########################################, ''#####,          
                    ,#############################################,,   '####,        
                  ,##################################################,,,,####,       
                ,###########''''           ''''###############################       
              ,#####''   ,,,,##########,,,,          '''####'''          '####       
            ,##' ,,,,###########################,,,                        '##       
           ' ,,###''''                  '''############,,,                           
         ,,##''                                '''############,,,,        ,,,,,,###''
      ,#''                                            '''#######################'''  
     '                                                          ''''####''''         
             ,#######,   #######,   ,#######,      ##                                
            ,#'     '#,  ##    ##  ,#'     '#,    #''#        ######   ,####,        
            ##       ##  ##   ,#'  ##            #'  '#       #        #'  '#        
            ##       ##  #######   ##           ,######,      #####,   #    #        
            '#,     ,#'  ##    ##  '#,     ,#' ,#      #,         ##   #,  ,#        
             '#######'   ##     ##  '#######'  #'      '#     #####' # '####'        



                  #######################################################
                  #                        -***-                        #
                  #          Department of theory and spectroscopy      #
                  #    Directorship and core code : Frank Neese         #
                  #        Max Planck Institute fuer Kohlenforschung    #
                  #                Kaiser Wilhelm Platz 1               #
                  #                 D-45470 Muelheim/Ruhr               #
                  #                      Germany                        #
                  #                                                     #
                  #                  All rights reserved                #
                  #                        -***-                        #
                  #######################################################


                         Program Version 5.0.4 -  RELEASE  -


 With contributions from (in alphabetic order):
   Daniel Aravena         : Magnetic Suceptibility
   Michael Atanasov       : Ab Initio Ligand Field Theory (pilot matlab implementation)
   Alexander A. Auer      : GIAO ZORA, VPT2 properties, NMR spectrum
   Ute Becker             : Parallelization
   Giovanni Bistoni       : ED, misc. LED, open-shell LED, HFLD
   Martin Brehm           : Molecular dynamics
   Dmytro Bykov           : SCF Hessian
   Vijay G. Chilkuri      : MRCI spin determinant printing, contributions to CSF-ICE
   Dipayan Datta          : RHF DLPNO-CCSD density
   Achintya Kumar Dutta   : EOM-CC, STEOM-CC
   Dmitry Ganyushin       : Spin-Orbit,Spin-Spin,Magnetic field MRCI
   Miquel Garcia          : C-PCM and meta-GGA Hessian, CC/C-PCM, Gaussian charge scheme
   Yang Guo               : DLPNO-NEVPT2, F12-NEVPT2, CIM, IAO-localization
   Andreas Hansen         : Spin unrestricted coupled pair/coupled cluster methods
   Benjamin Helmich-Paris : MC-RPA, TRAH-SCF, COSX integrals
   Lee Huntington         : MR-EOM, pCC
   Robert Izsak           : Overlap fitted RIJCOSX, COSX-SCS-MP3, EOM
   Marcus Kettner         : VPT2
   Christian Kollmar      : KDIIS, OOCD, Brueckner-CCSD(T), CCSD density, CASPT2, CASPT2-K
   Simone Kossmann        : Meta GGA functionals, TD-DFT gradient, OOMP2, MP2 Hessian
   Martin Krupicka        : Initial AUTO-CI
   Lucas Lang             : DCDCAS
   Marvin Lechner         : AUTO-CI (C++ implementation), FIC-MRCC
   Dagmar Lenk            : GEPOL surface, SMD
   Dimitrios Liakos       : Extrapolation schemes; Compound Job, initial MDCI parallelization
   Dimitrios Manganas     : Further ROCIS development; embedding schemes
   Dimitrios Pantazis     : SARC Basis sets
   Anastasios Papadopoulos: AUTO-CI, single reference methods and gradients
   Taras Petrenko         : DFT Hessian,TD-DFT gradient, ASA, ECA, R-Raman, ABS, FL, XAS/XES, NRVS
   Peter Pinski           : DLPNO-MP2, DLPNO-MP2 Gradient
   Christoph Reimann      : Effective Core Potentials
   Marius Retegan         : Local ZFS, SOC
   Christoph Riplinger    : Optimizer, TS searches, QM/MM, DLPNO-CCSD(T), (RO)-DLPNO pert. Triples
   Tobias Risthaus        : Range-separated hybrids, TD-DFT gradient, RPA, STAB
   Michael Roemelt        : Original ROCIS implementation
   Masaaki Saitow         : Open-shell DLPNO-CCSD energy and density
   Barbara Sandhoefer     : DKH picture change effects
   Avijit Sen             : IP-ROCIS
   Kantharuban Sivalingam : CASSCF convergence, NEVPT2, FIC-MRCI
   Bernardo de Souza      : ESD, SOC TD-DFT
   Georgi Stoychev        : AutoAux, RI-MP2 NMR, DLPNO-MP2 response
   Willem Van den Heuvel  : Paramagnetic NMR
   Boris Wezisla          : Elementary symmetry handling
   Frank Wennmohs         : Technical directorship


 We gratefully acknowledge several colleagues who have allowed us to
 interface, adapt or use parts of their codes:
   Stefan Grimme, W. Hujo, H. Kruse, P. Pracht,  : VdW corrections, initial TS optimization,
                  C. Bannwarth, S. Ehlert          DFT functionals, gCP, sTDA/sTD-DF
   Ed Valeev, F. Pavosevic, A. Kumar             : LibInt (2-el integral package), F12 methods
   Garnet Chan, S. Sharma, J. Yang, R. Olivares  : DMRG
   Ulf Ekstrom                                   : XCFun DFT Library
   Mihaly Kallay                                 : mrcc  (arbitrary order and MRCC methods)
   Jiri Pittner, Ondrej Demel                    : Mk-CCSD
   Frank Weinhold                                : gennbo (NPA and NBO analysis)
   Christopher J. Cramer and Donald G. Truhlar   : smd solvation model
   Lars Goerigk                                  : TD-DFT with DH, B97 family of functionals
   V. Asgeirsson, H. Jonsson                     : NEB implementation
   FAccTs GmbH                                   : IRC, NEB, NEB-TS, DLPNO-Multilevel, CI-OPT
                                                   MM, QMMM, 2- and 3-layer-ONIOM, Crystal-QMMM,
                                                   LR-CPCM, SF, NACMEs, symmetry and pop. for TD-DFT,
                                                   nearIR, NL-DFT gradient (VV10), updates on ESD,
                                                   ML-optimized integration grids
   S Lehtola, MJT Oliveira, MAL Marques          : LibXC Library
   Liviu Ungur et al                             : ANISO software


 Your calculation uses the libint2 library for the computation of 2-el integrals
 For citations please refer to: http://libint.valeyev.net

 Your ORCA version has been built with support for libXC version: 5.1.0
 For citations please refer to: https://tddft.org/programs/libxc/

 This ORCA versions uses:
   CBLAS   interface :  Fast vector & matrix operations
   LAPACKE interface :  Fast linear algebra routines
   SCALAPACK package :  Parallel linear algebra routines
   Shared memory     :  Shared parallel matrices
   BLAS/LAPACK       :  OpenBLAS 0.3.15  USE64BITINT DYNAMIC_ARCH NO_AFFINITY SkylakeX SINGLE_THREADED
        Core in use  :  SkylakeX
   Copyright (c) 2011-2014, The OpenBLAS Project




***************************************
The coordinates will be read from file: IEIP_ts_guess.xyz
***************************************




################################################################################


                                COMPOUND JOB MainJOB 
Basename: reaction-5-ieip_optts_Compound_0

################################################################################

================================================================================
                                       INPUT FILE
================================================================================
NAME = reaction-5-ieip_optts_Compound_0.inp
|  1> %pal nprocs 8 end 
|  2>   
|  3>  *xyzfile 1 1 IEIP_ts_guess.xyz 
|  4>   
|  5> 
|  6>                          ****END OF INPUT****
================================================================================


***************************************
The coordinates will be read from file: IEIP_ts_guess.xyz
***************************************


================================================================================

----- Orbital basis set information -----
Your calculation utilizes the basis: def2-SVP
   F. Weigend and R. Ahlrichs, Phys. Chem. Chem. Phys. 7, 3297 (2005).



################################################################################


                                COMPOUND JOB  1 
Basename: reaction-5-ieip_optts_Compound_1
NOTE: please remember that MaxCore and PAL settings will be ignored.

################################################################################

================================================================================
                                       INPUT FILE
================================================================================
NAME = reaction-5-ieip_optts_Compound_1.inp
|  1>   
|  2>    
|  3>   ! PBEh-3c OptTS Freq pal8 
|  4>    
|  5>   %geom 
|  6>    calc_hess true 
|  7>    recalc_hess 20 
|  8>    maxiter 600 
|  9>   end  
| 10>    
| 11> 
| 12>                          ****END OF INPUT****
================================================================================
Your calculation utilizes the geometrical counterpoise correction gCP
Please cite in your paper:
H.Kruse, S. Grimme J.Chem.Phys., 136, (2012), 154101 
   

Your calculation utilizes the atom-pairwise dispersion correction
with the Becke-Johnson damping scheme (D3BJ)
Cite in your paper:
S.Grimme, S.Ehrlich, L.Goerigk, J Comput Chem, (2011), 32, 1456–1465 
S.Grimme, J.Antony, S.Ehrlich and H.Krieg, J.Chem.Phys., 132, (2010), 154104 
   

Your calculation employs the composite approach PBEh-3c.
Please cite in your paper:
S. Grimme, J. G. Brandenburg, C. Bannwarth, A. Hansen J.Chem.Phys., 143, (2015), 054107 
   

================================================================================

----- Orbital basis set information -----
Your calculation utilizes the basis: def2-mSVP

----- AuxJ basis set information -----
Your calculation utilizes the auxiliary basis: def2/J
   F. Weigend, Phys. Chem. Chem. Phys. 8, 1057 (2006).

================================================================================
                                        WARNINGS
                       Please study these warnings very carefully!
================================================================================


WARNING: Geometry Optimization
  ===> : Switching off AutoStart
         For restart on a previous wavefunction, please use MOREAD

INFO   : the flag for use of the SHARK integral package has been found!


                       *****************************
                       * Geometry Optimization Run *
                       *****************************

Geometry optimization settings:
Update method            Update   .... Bofill
Choice of coordinates    CoordSys .... Z-matrix Internals
Initial Hessian          InHess   .... Almoef's Model

Convergence Tolerances:
Energy Change            TolE     ....  5.0000e-06 Eh
Max. Gradient            TolMAXG  ....  3.0000e-04 Eh/bohr
RMS Gradient             TolRMSG  ....  1.0000e-04 Eh/bohr
Max. Displacement        TolMAXD  ....  4.0000e-03 bohr
RMS Displacement         TolRMSD  ....  2.0000e-03 bohr
Strict Convergence                ....  False
------------------------------------------------------------------------------
                        ORCA OPTIMIZATION COORDINATE SETUP
------------------------------------------------------------------------------

The optimization will be done in new redundant internal coordinates
Making redundant internal coordinates   ...  (new redundants) done
Following TS mode number                ...     0
Evaluating the initial hessian          ...  (Is done on the fly) done
Evaluating the coordinates              ...  done
Calculating the B-matrix                .... done
Calculating the G-matrix                .... done
Diagonalizing the G-matrix              .... done
Small eigenvalue found = 1.657e-02
Small eigenvalue found = 2.510e-02
The first mode is                       ....   53
The number of degrees of freedom        ....   57

    -----------------------------------------------------------------
                    Redundant Internal Coordinates


    -----------------------------------------------------------------
         Definition                    Initial Value    d2E/dq (diagonal element)
    -----------------------------------------------------------------
      1. B(C   1,Sc  0)                  2.3486         0.000000   
      2. B(N   2,C   1)                  1.3425         0.000000   
      3. B(C   3,N   2)                  1.3704         0.000000   
      4. B(C   4,C   3)                  1.3505         0.000000   
      5. B(N   5,C   1)                  1.3482         0.000000   
      6. B(N   5,C   4)                  1.3683         0.000000   
      7. B(C   6,N   5)                  1.4507         0.000000   
      8. B(H   7,C   6)                  1.0866         0.000000   
      9. B(H   8,C   6)                  1.0895         0.000000   
     10. B(H   9,C   6)                  1.0887         0.000000   
     11. B(C  10,N   2)                  1.4511         0.000000   
     12. B(H  11,C  10)                  1.0861         0.000000   
     13. B(H  12,C  10)                  1.0875         0.000000   
     14. B(H  13,C  10)                  1.0885         0.000000   
     15. B(H  14,C   3)                  1.0766         0.000000   
     16. B(H  15,C   4)                  1.0764         0.000000   
     17. B(C  16,Sc  0)                  2.3220         0.000000   
     18. B(H  17,C  16)                  1.0893         0.000000   
     19. B(H  18,C  16)                  1.1092         0.000000   
     20. B(H  19,C  16)                  1.1002         0.000000   
     21. B(H  20,C  16)                  1.3822         0.000000   
     22. B(H  20,Sc  0)                  1.7942         0.000000   
     23. A(C   1,Sc  0,C  16)           99.7560         0.000000   
     24. A(C  16,Sc  0,H  20)           36.4726         0.000000   
     25. A(C   1,Sc  0,H  20)          112.3242         0.000000   
     26. A(Sc  0,C   1,N   5)          116.0830         0.000000   
     27. A(N   2,C   1,N   5)          104.4509         0.000000   
     28. A(Sc  0,C   1,N   2)          138.5307         0.000000   
     29. A(C   3,N   2,C  10)          122.6725         0.000000   
     30. A(C   1,N   2,C  10)          126.0600         0.000000   
     31. A(C   1,N   2,C   3)          111.2606         0.000000   
     32. A(C   4,C   3,H  14)          130.3901         0.000000   
     33. A(N   2,C   3,H  14)          123.0105         0.000000   
     34. A(N   2,C   3,C   4)          106.5989         0.000000   
     35. A(C   3,C   4,H  15)          130.6162         0.000000   
     36. A(C   3,C   4,N   5)          106.3336         0.000000   
     37. A(N   5,C   4,H  15)          123.0494         0.000000   
     38. A(C   1,N   5,C   4)          111.3530         0.000000   
     39. A(C   4,N   5,C   6)          124.6048         0.000000   
     40. A(C   1,N   5,C   6)          124.0422         0.000000   
     41. A(H   8,C   6,H   9)          110.0240         0.000000   
     42. A(H   7,C   6,H   9)          107.6847         0.000000   
     43. A(N   5,C   6,H   9)          110.4663         0.000000   
     44. A(H   7,C   6,H   8)          107.7034         0.000000   
     45. A(N   5,C   6,H   8)          111.1154         0.000000   
     46. A(N   5,C   6,H   7)          109.7447         0.000000   
     47. A(H  12,C  10,H  13)          109.0276         0.000000   
     48. A(H  11,C  10,H  13)          108.7242         0.000000   
     49. A(N   2,C  10,H  13)          110.1073         0.000000   
     50. A(H  11,C  10,H  12)          108.6744         0.000000   
     51. A(N   2,C  10,H  12)          110.3594         0.000000   
     52. A(N   2,C  10,H  11)          109.9095         0.000000   
     53. A(H  17,C  16,H  18)          104.2970         0.000000   
     54. A(Sc  0,C  16,H  18)          100.2344         0.000000   
     55. A(Sc  0,C  16,H  17)          139.7907         0.000000   
     56. A(H  19,C  16,H  20)          113.6066         0.000000   
     57. A(H  18,C  16,H  20)          130.5420         0.000000   
     58. A(H  17,C  16,H  20)           89.5657         0.000000   
     59. A(Sc  0,C  16,H  20)           50.5008         0.000000   
     60. A(H  18,C  16,H  19)          108.2991         0.000000   
     61. A(H  17,C  16,H  19)          104.6900         0.000000   
     62. A(Sc  0,C  16,H  19)           97.0677         0.000000   
     63. A(Sc  0,H  20,C  16)           93.0266         0.000000   
     64. D(N   2,C   1,Sc  0,H  20)     65.4419         0.000000   
     65. D(N   2,C   1,Sc  0,C  16)    101.2042         0.000000   
     66. D(N   5,C   1,Sc  0,H  20)   -101.3323         0.000000   
     67. D(N   5,C   1,Sc  0,C  16)    -65.5701         0.000000   
     68. D(C  10,N   2,C   1,Sc  0)     13.6734         0.000000   
     69. D(C  10,N   2,C   1,N   5)   -178.5780         0.000000   
     70. D(C   3,N   2,C   1,N   5)      0.4775         0.000000   
     71. D(C   3,N   2,C   1,Sc  0)   -167.2711         0.000000   
     72. D(H  14,C   3,N   2,C  10)     -1.3651         0.000000   
     73. D(C   4,C   3,N   2,C  10)    178.8686         0.000000   
     74. D(C   4,C   3,N   2,C   1)     -0.2243         0.000000   
     75. D(H  14,C   3,N   2,C   1)    179.5420         0.000000   
     76. D(N   5,C   4,C   3,H  14)   -179.8693         0.000000   
     77. D(H  15,C   4,C   3,N   2)    179.5624         0.000000   
     78. D(N   5,C   4,C   3,N   2)     -0.1266         0.000000   
     79. D(H  15,C   4,C   3,H  14)     -0.1803         0.000000   
     80. D(C   6,N   5,C   4,H  15)      0.7628         0.000000   
     81. D(C   1,N   5,C   4,H  15)   -179.2794         0.000000   
     82. D(C   6,N   5,C   1,N   2)    179.3968         0.000000   
     83. D(C   6,N   5,C   1,Sc  0)     -9.6046         0.000000   
     84. D(C   4,N   5,C   1,N   2)     -0.5613         0.000000   
     85. D(C   6,N   5,C   4,C   3)   -179.5188         0.000000   
     86. D(C   4,N   5,C   1,Sc  0)    170.4373         0.000000   
     87. D(C   1,N   5,C   4,C   3)      0.4390         0.000000   
     88. D(H   9,C   6,N   5,C   4)    124.4530         0.000000   
     89. D(H   9,C   6,N   5,C   1)    -55.4996         0.000000   
     90. D(H   8,C   6,N   5,C   4)   -113.1409         0.000000   
     91. D(H   8,C   6,N   5,C   1)     66.9065         0.000000   
     92. D(H   7,C   6,N   5,C   4)      5.8682         0.000000   
     93. D(H   7,C   6,N   5,C   1)   -174.0843         0.000000   
     94. D(H  11,C  10,N   2,C   1)     -0.3658         0.000000   
     95. D(H  13,C  10,N   2,C   3)    -59.5731         0.000000   
     96. D(H  13,C  10,N   2,C   1)    119.3812         0.000000   
     97. D(H  12,C  10,N   2,C   3)     60.8360         0.000000   
     98. D(H  12,C  10,N   2,C   1)   -120.2097         0.000000   
     99. D(H  11,C  10,N   2,C   3)   -179.3201         0.000000   
    100. D(H  19,C  16,Sc  0,H  20)    114.8815         0.000000   
    101. D(H  19,C  16,Sc  0,C   1)      0.3129         0.000000   
    102. D(H  18,C  16,Sc  0,H  20)   -135.0049         0.000000   
    103. D(H  18,C  16,Sc  0,C   1)    110.4265         0.000000   
    104. D(H  17,C  16,Sc  0,H  20)     -7.9712         0.000000   
    105. D(H  20,C  16,Sc  0,C   1)   -114.5686         0.000000   
    106. D(H  17,C  16,Sc  0,C   1)   -122.5398         0.000000   
    107. D(Sc  0,H  20,C  16,H  19)    -79.2672         0.000000   
    108. D(Sc  0,H  20,C  16,H  18)     66.2920         0.000000   
    109. D(Sc  0,H  20,C  16,H  17)    174.8635         0.000000   
    110. D(C  16,H  20,Sc  0,C   1)     75.6810         0.000000   
    -----------------------------------------------------------------

Number of atoms                         .... 21
Number of degrees of freedom            .... 110

         *************************************************************
         *                GEOMETRY OPTIMIZATION CYCLE   1            *
         *************************************************************
---------------------------------
CARTESIAN COORDINATES (ANGSTROEM)
---------------------------------
  Sc     1.197500   -0.404700   -1.975290
  C      0.364480   -0.555480    0.215390
  N     -0.461250   -1.340170    0.925840
  C     -0.784390   -0.763450    2.126280
  C     -0.135940    0.420280    2.172570
  N      0.562110    0.522740    1.000230
  C      1.409220    1.644350    0.641080
  H      1.484670    2.330780    1.479990
  H      0.993940    2.195740   -0.201860
  H      2.414680    1.301150    0.403090
  C     -0.955310   -2.644410    0.525150
  H     -0.562600   -2.903970   -0.453590
  H     -2.041600   -2.638160    0.474020
  H     -0.638080   -3.400750    1.240740
  H     -1.441350   -1.227430    2.841900
  H     -0.122370    1.182570    2.932400
  C     -0.161370    1.289240   -2.797240
  H     -0.869700    1.469430   -3.604980
  H      0.581440    2.106950   -2.896810
  H     -0.739400    1.457880   -1.876480
  H     -0.090020   -0.039720   -3.170400

----------------------------
CARTESIAN COORDINATES (A.U.)
----------------------------
  NO LB      ZA    FRAG     MASS         X           Y           Z
   0 Sc   21.0000    0    44.960    2.262947   -0.764772   -3.732757
   1 C     6.0000    0    12.011    0.688767   -1.049705    0.407028
   2 N     7.0000    0    14.007   -0.871636   -2.532554    1.749584
   3 C     6.0000    0    12.011   -1.482282   -1.442711    4.018087
   4 C     6.0000    0    12.011   -0.256889    0.794214    4.105562
   5 N     7.0000    0    14.007    1.062234    0.987835    1.890161
   6 C     6.0000    0    12.011    2.663040    3.107371    1.211466
   7 H     1.0000    0     1.008    2.805620    4.404536    2.796776
   8 H     1.0000    0     1.008    1.878274    4.149347   -0.381460
   9 H     1.0000    0     1.008    4.563084    2.458817    0.761730
  10 C     6.0000    0    12.011   -1.805274   -4.997211    0.992390
  11 H     1.0000    0     1.008   -1.063160   -5.487708   -0.857161
  12 H     1.0000    0     1.008   -3.858065   -4.985400    0.895768
  13 H     1.0000    0     1.008   -1.205796   -6.426486    2.344659
  14 H     1.0000    0     1.008   -2.723757   -2.319507    5.370413
  15 H     1.0000    0     1.008   -0.231246    2.234733    5.541433
  16 C     6.0000    0    12.011   -0.304945    2.436311   -5.286018
  17 H     1.0000    0     1.008   -1.643495    2.776820   -6.812425
  18 H     1.0000    0     1.008    1.098762    3.981558   -5.474178
  19 H     1.0000    0     1.008   -1.397264    2.754994   -3.546033
  20 H     1.0000    0     1.008   -0.170113   -0.075060   -5.991188

--------------------------------
INTERNAL COORDINATES (ANGSTROEM)
--------------------------------
 Sc     0   0   0     0.000000000000     0.00000000     0.00000000
 C      1   0   0     2.348560365671     0.00000000     0.00000000
 N      2   1   0     1.342500514525   138.53068924     0.00000000
 C      3   2   1     1.370431177258   111.26060665   192.72890009
 C      4   3   2     1.350498752128   106.59892747   359.77565493
 N      2   1   3     1.348180184879   116.08303101   193.22571589
 C      6   2   1     1.450721567600   124.04216143   350.39540900
 H      7   6   2     1.086576658823   109.74466012   185.91567487
 H      7   6   2     1.089511933895   111.11536394    66.90650211
 H      7   6   2     1.088749416395   110.46630791   304.50042012
 C      3   2   1     1.451099492557   126.05995332    13.67341127
 H     11   3   2     1.086059172099   109.90952055   359.63416077
 H     11   3   2     1.087510599259   110.35939085   239.79033556
 H     11   3   2     1.088464109009   110.10727731   119.38120214
 H      4   3   2     1.076562058778   123.01050687   179.54198794
 H      5   4   3     1.076388321146   130.61621827   179.56241002
 C      1   2   3     2.321973773108    99.75600104   101.20421325
 H     17   1   2     1.089331782608   139.79072840   237.46023483
 H     17   1   2     1.109202652855   100.23441042   110.42649107
 H     17   1   2     1.100162309889    97.06765906     0.31292419
 H     17   1   2     1.382198932752    50.50077039   245.43142197

---------------------------
INTERNAL COORDINATES (A.U.)
---------------------------
 Sc     0   0   0     0.000000000000     0.00000000     0.00000000
 C      1   0   0     4.438135900100     0.00000000     0.00000000
 N      2   1   0     2.536958307101   138.53068924     0.00000000
 C      3   2   1     2.589739610404   111.26060665   192.72890009
 C      4   3   2     2.552072785725   106.59892747   359.77565493
 N      2   1   3     2.547691328600   116.08303101   193.22571589
 C      6   2   1     2.741466459337   124.04216143   350.39540900
 H      7   6   2     2.053332308688   109.74466012   185.91567487
 H      7   6   2     2.058879174701   111.11536394    66.90650211
 H      7   6   2     2.057438225453   110.46630791   304.50042012
 C      3   2   1     2.742180634005   126.05995332    13.67341127
 H     11   3   2     2.052354400500   109.90952055   359.63416077
 H     11   3   2     2.055097200336   110.35939085   239.79033556
 H     11   3   2     2.056899072629   110.10727731   119.38120214
 H      4   3   2     2.034407457261   123.01050687   179.54198794
 H      5   4   3     2.034079140718   130.61621827   179.56241002
 C      1   2   3     4.387894521321    99.75600104   101.20421325
 H     17   1   2     2.058538738105   139.79072840   237.46023483
 H     17   1   2     2.096089240914   100.23441042   110.42649107
 H     17   1   2     2.079005468552    97.06765906     0.31292419
 H     17   1   2     2.611977445499    50.50077039   245.43142197

---------------------
BASIS SET INFORMATION
---------------------
There are 4 groups of distinct atoms

 Group   1 Type Sc  : 14s9p5d1f contracted to 5s3p2d1f pattern {63311/531/41/1}
 Group   2 Type C   : 8s4p1d contracted to 4s2p1d pattern {5111/31/1}
 Group   3 Type N   : 8s4p1d contracted to 4s2p1d pattern {5111/31/1}
 Group   4 Type H   : 4s contracted to 2s pattern {31}

Atom   0Sc   basis set group =>   1
Atom   1C    basis set group =>   2
Atom   2N    basis set group =>   3
Atom   3C    basis set group =>   2
Atom   4C    basis set group =>   2
Atom   5N    basis set group =>   3
Atom   6C    basis set group =>   2
Atom   7H    basis set group =>   4
Atom   8H    basis set group =>   4
Atom   9H    basis set group =>   4
Atom  10C    basis set group =>   2
Atom  11H    basis set group =>   4
Atom  12H    basis set group =>   4
Atom  13H    basis set group =>   4
Atom  14H    basis set group =>   4
Atom  15H    basis set group =>   4
Atom  16C    basis set group =>   2
Atom  17H    basis set group =>   4
Atom  18H    basis set group =>   4
Atom  19H    basis set group =>   4
Atom  20H    basis set group =>   4
---------------------------------
AUXILIARY/J BASIS SET INFORMATION
---------------------------------
There are 4 groups of distinct atoms

 Group   1 Type Sc  : 19s5p5d3f3g contracted to 8s5p5d2f3g pattern {121111111/11111/11111/21/111}
 Group   2 Type C   : 12s5p4d2f1g contracted to 6s4p3d1f1g pattern {711111/2111/211/2/1}
 Group   3 Type N   : 12s5p4d2f1g contracted to 6s4p3d1f1g pattern {711111/2111/211/2/1}
 Group   4 Type H   : 5s2p1d contracted to 3s1p1d pattern {311/2/1}

Atom   0Sc   basis set group =>   1
Atom   1C    basis set group =>   2
Atom   2N    basis set group =>   3
Atom   3C    basis set group =>   2
Atom   4C    basis set group =>   2
Atom   5N    basis set group =>   3
Atom   6C    basis set group =>   2
Atom   7H    basis set group =>   4
Atom   8H    basis set group =>   4
Atom   9H    basis set group =>   4
Atom  10C    basis set group =>   2
Atom  11H    basis set group =>   4
Atom  12H    basis set group =>   4
Atom  13H    basis set group =>   4
Atom  14H    basis set group =>   4
Atom  15H    basis set group =>   4
Atom  16C    basis set group =>   2
Atom  17H    basis set group =>   4
Atom  18H    basis set group =>   4
Atom  19H    basis set group =>   4
Atom  20H    basis set group =>   4


           ************************************************************
           *        Program running with 8 parallel MPI-processes     *
           *              working on a common directory               *
           ************************************************************
------------------------------------------------------------------------------
                           ORCA GTO INTEGRAL CALCULATION
                           -- RI-GTO INTEGRALS CHOSEN --
------------------------------------------------------------------------------
------------------------------------------------------------------------------
                   ___                                                        
                  /   \      - P O W E R E D   B Y -                         
                 /     \                                                     
                 |  |  |   _    _      __       _____    __    __             
                 |  |  |  | |  | |    /  \     |  _  \  |  |  /  |          
                  \  \/   | |  | |   /    \    | | | |  |  | /  /          
                 / \  \   | |__| |  /  /\  \   | |_| |  |  |/  /          
                |  |  |   |  __  | /  /__\  \  |    /   |      \           
                |  |  |   | |  | | |   __   |  |    \   |  |\   \          
                \     /   | |  | | |  |  |  |  | |\  \  |  | \   \       
                 \___/    |_|  |_| |__|  |__|  |_| \__\ |__|  \__/        
                                                                              
                      - O R C A' S   B I G   F R I E N D -                    
                                      &                                       
                       - I N T E G R A L  F E E D E R -                       
                                                                              
 v1 FN, 2020, v2 2021                                                         
------------------------------------------------------------------------------


Reading SHARK input file reaction-5-ieip_optts_Compound_1.SHARKINP.tmp ... ok
----------------------
SHARK INTEGRAL PACKAGE
----------------------

Number of atoms                             ...     21
Number of basis functions                   ...    175
Number of shells                            ...     91
Maximum angular momentum                    ...      3
Integral batch strategy                     ... SHARK/LIBINT Hybrid
RI-J (if used) integral strategy            ... SPLIT-RIJ (Revised 2003 algorithm where possible)
Printlevel                                  ...      1
Contraction scheme used                     ... SEGMENTED contraction
Coulomb Range Separation                    ... NOT USED
Exchange Range Separation                   ... NOT USED
Finite Nucleus Model                        ... NOT USED
Auxiliary Coulomb fitting basis             ... AVAILABLE
   # of basis functions in Aux-J            ...    613
   # of shells in Aux-J                     ...    203
   Maximum angular momentum in Aux-J        ...      4
Auxiliary J/K fitting basis                 ... NOT available
Auxiliary Correlation fitting basis         ... NOT available
Auxiliary 'external' fitting basis          ... NOT available
Integral threshold                          ...     2.500000e-11
Primitive cut-off                           ...     2.500000e-12
Primitive pair pre-selection threshold      ...     2.500000e-12

Calculating pre-screening integrals         ... done (  0.0 sec) Dimension = 91
Organizing shell pair data                  ... done (  0.0 sec)
Shell pair information
Total number of shell pairs                 ...      4186
Shell pairs after pre-screening             ...      3666
Total number of primitive shell pairs       ...     16651
Primitive shell pairs kept                  ...      9839
          la=0 lb=0:   1551 shell pairs
          la=1 lb=0:   1077 shell pairs
          la=1 lb=1:    186 shell pairs
          la=2 lb=0:    527 shell pairs
          la=2 lb=1:    183 shell pairs
          la=2 lb=2:     51 shell pairs
          la=3 lb=0:     61 shell pairs
          la=3 lb=1:     19 shell pairs
          la=3 lb=2:     10 shell pairs
          la=3 lb=3:      1 shell pairs

Calculating one electron integrals          ... done (  0.0 sec)
Calculating RI/J V-Matrix + Cholesky decomp.... done (  0.0 sec)
Calculating Nuclear repulsion               ... done (  0.0 sec) ENN=    580.654683575454 Eh

SHARK setup successfully completed in   0.2 seconds

Maximum memory used throughout the entire GTOINT-calculation: 17.4 MB


           ************************************************************
           *        Program running with 8 parallel MPI-processes     *
           *              working on a common directory               *
           ************************************************************
-------------------------------------------------------------------------------
                                 ORCA SCF
-------------------------------------------------------------------------------

------------
SCF SETTINGS
------------
Hamiltonian:
 Density Functional     Method          .... DFT(GTOs)
 Exchange Functional    Exchange        .... PBE
   PBE kappa parameter   XKappa         ....  1.024500
   PBE mue parameter    XMuePBE         ....  0.123457
 Correlation Functional Correlation     .... PBE
   PBE beta parameter  CBetaPBE         ....  0.030000
 LDA part of GGA corr.  LDAOpt          .... PW91-LDA
 Gradients option       PostSCFGGA      .... off
 Hybrid DFT is turned on
   Fraction HF Exchange ScalHFX         ....  0.420000
   Scaling of DF-GGA-X  ScalDFX         ....  0.580000
   Scaling of DF-GGA-C  ScalDFC         ....  1.000000
   Scaling of DF-LDA-C  ScalLDAC        ....  1.000000
   Perturbative correction              ....  0.000000
   Density functional embedding theory  .... OFF
 RI-approximation to the Coulomb term is turned on
   Number of AuxJ basis functions       .... 613
   RIJ-ON(X) (HFX calculated with O(N)) .... on
   Number of AuxJ basis functions       .... 613
   RIJ-COSX (HFX calculated with COS-X)).... on


General Settings:
 Integral files         IntName         .... reaction-5-ieip_optts_Compound_1
 Hartree-Fock type      HFTyp           .... RHF
 Total Charge           Charge          ....    1
 Multiplicity           Mult            ....    1
 Number of Electrons    NEL             ....   82
 Basis Dimension        Dim             ....  175
 Nuclear Repulsion      ENuc            ....    580.6546835755 Eh

Convergence Acceleration:
 DIIS                   CNVDIIS         .... on
   Start iteration      DIISMaxIt       ....    12
   Startup error        DIISStart       ....  0.200000
   # of expansion vecs  DIISMaxEq       ....     5
   Bias factor          DIISBfac        ....   1.050
   Max. coefficient     DIISMaxC        ....  10.000
 Trust-Rad. Augm. Hess. CNVTRAH         .... auto
   Auto Start mean grad. ratio tolernc. ....  1.125000
   Auto Start start iteration           ....    20
   Auto Start num. interpolation iter.  ....    10
   Max. Number of Micro iterations      ....    16
   Max. Number of Macro iterations      .... Maxiter - #DIIS iter
   Number of Davidson start vectors     ....     2
   Converg. threshold I  (grad. norm)   ....   1.000e-05
   Converg. threshold II (energy diff.) ....   1.000e-08
   Grad. Scal. Fac. for Micro threshold ....   0.100
   Minimum threshold for Micro iter.    ....   0.010
   NR start threshold (gradient norm)   ....   0.001
   Initial trust radius                 ....   0.400
   Minimum AH scaling param. (alpha)    ....   1.000
   Maximum AH scaling param. (alpha)    .... 1000.000
   Orbital update algorithm             .... Taylor
   White noise on init. David. guess    .... on
   Maximum white noise                  ....   0.010
   Quad. conv. algorithm                .... NR
   COSX micro iterations for RIJONX calc.... off
 SOSCF                  CNVSOSCF        .... off
 Level Shifting         CNVShift        .... on
   Level shift para.    LevelShift      ....    0.2500
   Turn off err/grad.   ShiftErr        ....    0.0010
 Zerner damping         CNVZerner       .... off
 Static damping         CNVDamp         .... on
   Fraction old density DampFac         ....    0.7000
   Max. Damping (<1)    DampMax         ....    0.9800
   Min. Damping (>=0)   DampMin         ....    0.0000
   Turn off err/grad.   DampErr         ....    0.1000
 Fernandez-Rico         CNVRico         .... off

SCF Procedure:
 Maximum # iterations   MaxIter         ....   125
 SCF integral mode      SCFMode         .... Direct
   Integral package                     .... SHARK and LIBINT hybrid scheme
 Reset frequency        DirectResetFreq ....    20
 Integral Threshold     Thresh          ....  2.500e-11 Eh
 Primitive CutOff       TCut            ....  2.500e-12 Eh

Convergence Tolerance:
 Convergence Check Mode ConvCheckMode   .... Total+1el-Energy
 Convergence forced     ConvForced      .... 0
 Energy Change          TolE            ....  1.000e-08 Eh
 1-El. energy change                    ....  1.000e-05 Eh
 DIIS Error             TolErr          ....  5.000e-07


Diagonalization of the overlap matrix:
Smallest eigenvalue                        ... 1.419e-03
Time for diagonalization                   ...    0.005 sec
Threshold for overlap eigenvalues          ... 1.000e-08
Number of eigenvalues below threshold      ... 0
Time for construction of square roots      ...    0.003 sec
Total time needed                          ...    0.009 sec

--------------------------------
INITIAL GUESS: MINIMAL BASIS EHT
--------------------------------
The minimal basis has 70 functions
EHT matrix was diagonalized
Basis set overlap was calculated now projecting the orbitals
Using GuessMode=FMatrix for the initial guess
C*T matrix was formed
Effective Fockian was calculated
Effective Fockian was diagonalized
Initial density was built
                      ------------------
                      INITIAL GUESS DONE
                      ------------------
-------------------
DFT GRID GENERATION
-------------------

General Integration Accuracy     IntAcc      ... 4.159
Radial Grid Type                 RadialGrid  ... OptM3 with GC (2021)
Angular Grid (max. ang.)         AngularGrid ... 3 (Lebedev-194)
Angular grid pruning method      GridPruning ... 4 (adaptive)
Weight generation scheme         WeightScheme... Becke
Basis function cutoff            BFCut       ... 1.0000e-11
Integration weight cutoff        WCut        ... 1.0000e-14
Angular grids for H and He will be reduced by one unit
Partially contracted basis set               ... off
Rotationally invariant grid construction     ... off

Total number of grid points                  ...    48156
Total number of batches                      ...      763
Average number of points per batch           ...       63
Average number of grid points per atom       ...     2293
Time for grid setup =    0.176 sec

--------------------
COSX GRID GENERATION
--------------------

GRIDX 1
-------
General Integration Accuracy     IntAcc      ... 3.816
Radial Grid Type                 RadialGrid  ... OptM3 with GC (2021)
Angular Grid (max. ang.)         AngularGrid ... 1 (Lebedev-50)
Angular grid pruning method      GridPruning ... 4 (adaptive)
Weight generation scheme         WeightScheme... Becke
Basis function cutoff            BFCut       ... 1.0000e-11
Integration weight cutoff        WCut        ... 1.0000e-14
Angular grids for H and He will be reduced by one unit
Partially contracted basis set               ... on
Rotationally invariant grid construction     ... off

Total number of grid points                  ...    12271
Total number of batches                      ...      202
Average number of points per batch           ...       60
Average number of grid points per atom       ...      584
UseSFitting                                  ... on

GRIDX 2
-------
General Integration Accuracy     IntAcc      ... 4.020
Radial Grid Type                 RadialGrid  ... OptM3 with GC (2021)
Angular Grid (max. ang.)         AngularGrid ... 2 (Lebedev-110)
Angular grid pruning method      GridPruning ... 4 (adaptive)
Weight generation scheme         WeightScheme... Becke
Basis function cutoff            BFCut       ... 1.0000e-11
Integration weight cutoff        WCut        ... 1.0000e-14
Angular grids for H and He will be reduced by one unit
Partially contracted basis set               ... on
Rotationally invariant grid construction     ... off

Total number of grid points                  ...    25951
Total number of batches                      ...      415
Average number of points per batch           ...       62
Average number of grid points per atom       ...     1236
UseSFitting                                  ... on

GRIDX 3
-------
General Integration Accuracy     IntAcc      ... 4.338
Radial Grid Type                 RadialGrid  ... OptM3 with GC (2021)
Angular Grid (max. ang.)         AngularGrid ... 3 (Lebedev-194)
Angular grid pruning method      GridPruning ... 4 (adaptive)
Weight generation scheme         WeightScheme... Becke
Basis function cutoff            BFCut       ... 1.0000e-11
Integration weight cutoff        WCut        ... 1.0000e-14
Angular grids for H and He will be reduced by one unit
Partially contracted basis set               ... on
Rotationally invariant grid construction     ... off

Total number of grid points                  ...    56869
Total number of batches                      ...      898
Average number of points per batch           ...       63
Average number of grid points per atom       ...     2708
UseSFitting                                  ... on

Time for X-Grid setup             =    0.395 sec

--------------
SCF ITERATIONS
--------------
ITER       Energy         Delta-E        Max-DP      RMS-DP      [F,P]     Damp
               ***  Starting incremental Fock matrix formation  ***
  0  -1102.7883622580   0.000000000000 0.53999264  0.00750577  0.4060729 0.7000
  1  -1102.4416358009   0.346726457146 0.16017645  0.00457000  0.2832656 0.7000
  2  -1103.1538585286  -0.712222727708 0.11329293  0.00304871  0.2034698 0.7000
                               ***Turning on DIIS***
  3  -1103.4949634848  -0.341104956227 0.07805461  0.00211620  0.1460045 0.7000
  4  -1103.7284541004  -0.233490615600 0.06794328  0.00219858  0.1034143 0.7000
  5  -1103.9201187537  -0.191664653323 0.16867139  0.00544309  0.0715630 0.0000
  6  -1104.4015673632  -0.481448609460 0.05523689  0.00134033  0.0412924 0.0000
  7  -1104.4158698442  -0.014302481012 0.02406329  0.00078636  0.0175631 0.0000
  8  -1104.4219262693  -0.006056425133 0.01768777  0.00063192  0.0108127 0.0000
  9  -1104.4257577068  -0.003831437523 0.01522797  0.00055106  0.0066639 0.0000
 10  -1104.4284128872  -0.002655180387 0.01363170  0.00043159  0.0060438 0.0000
 11  -1104.4302781268  -0.001865239541 0.01343138  0.00037668  0.0057867 0.0000
 12  -1104.4317482415  -0.001470114686 0.01936310  0.00043345  0.0054554 0.0000
 13  -1104.4332747650  -0.001526523534 0.02028129  0.00043393  0.0049493 0.0000
 14  -1104.4346565104  -0.001381745434 0.02064653  0.00044829  0.0043255 0.0000
 15  -1104.4359013354  -0.001244824955 0.01873534  0.00038285  0.0036786 0.0000
 16  -1104.4368646837  -0.000963348327 0.02348812  0.00050107  0.0030886 0.0000
 17  -1104.4378955434  -0.001030859685 0.01404993  0.00030927  0.0028604 0.0000
 18  -1104.4384913586  -0.000595815199 0.02258450  0.00051200  0.0024726 0.0000
 19  -1104.4392391847  -0.000747826106 0.00930355  0.00023143  0.0032928 0.0000
               *** Restarting incremental Fock matrix formation ***
                                   *** Resetting DIIS ***

 WARNING: the maximum gradient error descreased on average only by a factor   1.1
          during the last 20 iterations

                      *** Initiating the TRAH-SCF procedure ***


TRAH GRIDX
----------

General Integration Accuracy     IntAcc      ... 3.067
Radial Grid Type                 RadialGrid  ... OptM3 with GC (2021)
Angular Grid (max. ang.)         AngularGrid ... 1 (Lebedev-50)
Angular grid pruning method      GridPruning ... 4 (adaptive)
Weight generation scheme         WeightScheme... Becke
Basis function cutoff            BFCut       ... 1.0000e-11
Integration weight cutoff        WCut        ... 1.0000e-14
Angular grids for H and He will be reduced by one unit
Partially contracted basis set               ... on
Rotationally invariant grid construction     ... off

Total number of grid points                  ...     6532
Total number of batches                      ...      117
Average number of points per batch           ...       55
Average number of grid points per atom       ...      311


TRAH GRID
---------

General Integration Accuracy     IntAcc      ... 3.467
Radial Grid Type                 RadialGrid  ... OptM3 with GC (2021)
Angular Grid (max. ang.)         AngularGrid ... 1 (Lebedev-50)
Angular grid pruning method      GridPruning ... 4 (adaptive)
Weight generation scheme         WeightScheme... Becke
Basis function cutoff            BFCut       ... 1.0000e-11
Integration weight cutoff        WCut        ... 1.0000e-14
Angular grids for H and He will be reduced by one unit
Partially contracted basis set               ... off
Rotationally invariant grid construction     ... off

Total number of grid points                  ...    16314
Total number of batches                      ...      266
Average number of points per batch           ...       61
Average number of grid points per atom       ...      777

 --------------------------------------------------------------------------------------------
   Iter.        energy            ||Error||_2        Shift      TRadius  Mac/Mic        Rej.
 --------------------------------------------------------------------------------------------
    0      -1104.439630613878     1.706352e-02                     0.400 (TRAH MAcro)   No
    0     dE    -6.477458e-05     8.202494e-02    -1.2954e-04      0.008 (TRAH MIcro)
    0     dE    -7.259015e-04     4.533493e-02    -1.4381e-03      0.098 (TRAH MIcro)
    0     dE    -9.940605e-04     3.315694e-02    -1.9526e-03      0.135 (TRAH MIcro)
    0     dE    -1.143865e-03     1.868997e-02    -2.2320e-03      0.158 (TRAH MIcro)
    0     dE    -1.185812e-03     1.181185e-02    -2.3085e-03      0.165 (TRAH MIcro)
    0     dE    -1.199589e-03     6.301426e-03    -2.3334e-03      0.168 (TRAH MIcro)
    0     dE    -1.204610e-03     4.433121e-03    -2.3425e-03      0.169 (TRAH MIcro)
    0     dE    -1.205979e-03     1.804220e-03    -2.3449e-03      0.169 (TRAH MIcro)
    0     dE    -1.206301e-03     6.626443e-04    -2.3455e-03      0.169 (TRAH MIcro)
    1      -1104.440666711057     1.513368e-02                     0.480 (TRAH MAcro)   No
    1     dE    -1.585312e-05     2.890851e-02    -3.1706e-05      0.002 (TRAH MIcro)
    1     dE    -4.177270e-05     1.146759e-02    -8.3536e-05      0.011 (TRAH MIcro)
    1     dE    -4.954402e-05     4.311303e-03    -9.9063e-05      0.016 (TRAH MIcro)
    1     dE    -5.135231e-05     2.755536e-03    -1.0267e-04      0.018 (TRAH MIcro)
    1     dE    -5.221182e-05     2.063539e-03    -1.0439e-04      0.019 (TRAH MIcro)
    1     dE    -5.275717e-05     1.372019e-03    -1.0547e-04      0.019 (TRAH MIcro)
    2      -1104.440720477067     1.405627e-03                     0.576 (TRAH MAcro)   No
    2     dE    -5.100525e-08     4.457273e-03    -1.0203e-07      0.000 (TRAH MIcro)
    2     dE    -2.539074e-07     1.703405e-03    -5.0781e-07      0.001 (TRAH MIcro)
    2     dE    -3.444887e-07     1.115411e-03    -6.8898e-07      0.001 (TRAH MIcro)
    2     dE    -4.257761e-07     6.925800e-04    -8.5155e-07      0.002 (TRAH MIcro)
    2     dE    -4.720900e-07     4.325530e-04    -9.4417e-07      0.002 (TRAH MIcro)
    2     dE    -4.781895e-07     1.642122e-04    -9.5637e-07      0.002 (TRAH MIcro)
    2     dE    -4.797222e-07     6.138662e-05    -9.5944e-07      0.003 (TRAH MIcro)
    3      -1104.440720897091     6.210120e-05                           (NR   MAcro)
    3     dE    -2.589151e-10     2.379061e-05                           (NR   MIcro)
    3     dE    -3.733375e-10     2.567292e-05                           (NR   MIcro)
    3     dE    -4.198638e-10     1.229117e-05                           (NR   MIcro)
    3     dE    -4.344750e-10     7.694436e-06                           (NR   MIcro)
    3     dE    -4.423840e-10     7.030418e-06                           (NR   MIcro)
    3     dE    -4.461153e-10     3.619082e-06                           (NR   MIcro)
    3     dE    -4.476889e-10     2.861310e-06                           (NR   MIcro)
    3     dE    -4.479419e-10     9.869817e-07                           (NR   MIcro)
    4      -1104.440720896785     9.957837e-07                           (NR   MAcro)

               *****************************************************
               *                     SUCCESS                       *
               *           SCF CONVERGED AFTER  55 CYCLES          *
               *****************************************************

Old exchange energy                            =    -36.306493781 Eh
New exchange energy                            =    -36.306526809 Eh
Exchange energy change after final integration =     -0.000033028 Eh
Total energy after final integration           =  -1104.440753924 Eh
Final COS-X integration done in                =     1.675 sec

----------------
TOTAL SCF ENERGY
----------------

Total Energy       :        -1104.44075392 Eh          -30053.36080 eV

Components:
Nuclear Repulsion  :          580.65468358 Eh           15800.41722 eV
Electronic Energy  :        -1685.09543750 Eh          -45853.77802 eV
One Electron Energy:        -2646.99583800 Eh          -72028.41861 eV
Two Electron Energy:          961.90040050 Eh           26174.64059 eV
Max COSX asymmetry :            0.00000674 Eh               0.00018 eV

Virial components:
Potential Energy   :        -2205.68656424 Eh          -60019.78276 eV
Kinetic Energy     :         1101.24581031 Eh           29966.42196 eV
Virial Ratio       :            2.00290121


DFT components:
N(Alpha)           :       41.000391345641 electrons
N(Beta)            :       41.000391345641 electrons
N(Total)           :       82.000782691283 electrons
E(X)               :      -48.412687198981 Eh       
E(C)               :       -3.768850180619 Eh       
E(XC)              :      -52.181537379600 Eh       
DFET-embed. en.    :        0.000000000000 Eh       

---------------
SCF CONVERGENCE
---------------

  Last Energy change         ...    3.0673e-10  Tolerance :   1.0000e-08
  Last Orbital Gradient      ...    9.9578e-07  Tolerance :   1.0000e-05
  Last Orbital Rotation      ...    5.7434e-05

             **** THE GBW FILE WAS UPDATED (reaction-5-ieip_optts_Compound_1.gbw) ****
             **** DENSITY reaction-5-ieip_optts_Compound_1.scfp WAS UPDATED ****
             **** ENERGY FILE WAS UPDATED (reaction-5-ieip_optts_Compound_1.en.tmp) ****
             **** THE GBW FILE WAS UPDATED (reaction-5-ieip_optts_Compound_1.gbw) ****
             **** DENSITY reaction-5-ieip_optts_Compound_1.scfp WAS UPDATED ****
----------------
ORBITAL ENERGIES
----------------

  NO   OCC          E(Eh)            E(eV) 
   0   2.0000    -162.804643     -4430.1396 
   1   2.0000     -18.108547      -492.7586 
   2   2.0000     -14.951836      -406.8601 
   3   2.0000     -14.940615      -406.5548 
   4   2.0000     -14.940005      -406.5382 
   5   2.0000     -14.860298      -404.3693 
   6   2.0000     -14.859908      -404.3587 
   7   2.0000     -10.636297      -289.4283 
   8   2.0000     -10.627009      -289.1756 
   9   2.0000     -10.625814      -289.1431 
  10   2.0000     -10.622682      -289.0579 
  11   2.0000     -10.617227      -288.9094 
  12   2.0000     -10.565546      -287.5031 
  13   2.0000      -2.340426       -63.6862 
  14   2.0000      -1.500260       -40.8242 
  15   2.0000      -1.487379       -40.4736 
  16   2.0000      -1.476579       -40.1798 
  17   2.0000      -1.309219       -35.6257 
  18   2.0000      -1.186753       -32.2932 
  19   2.0000      -1.024569       -27.8799 
  20   2.0000      -0.980028       -26.6679 
  21   2.0000      -0.926786       -25.2191 
  22   2.0000      -0.903297       -24.5800 
  23   2.0000      -0.841506       -22.8986 
  24   2.0000      -0.802842       -21.8465 
  25   2.0000      -0.749943       -20.4070 
  26   2.0000      -0.703153       -19.1338 
  27   2.0000      -0.674053       -18.3419 
  28   2.0000      -0.658844       -17.9281 
  29   2.0000      -0.656135       -17.8543 
  30   2.0000      -0.650165       -17.6919 
  31   2.0000      -0.606729       -16.5099 
  32   2.0000      -0.600610       -16.3434 
  33   2.0000      -0.597298       -16.2533 
  34   2.0000      -0.590823       -16.0771 
  35   2.0000      -0.585923       -15.9438 
  36   2.0000      -0.547950       -14.9105 
  37   2.0000      -0.503611       -13.7039 
  38   2.0000      -0.485411       -13.2087 
  39   2.0000      -0.431925       -11.7533 
  40   2.0000      -0.298794        -8.1306 
  41   0.0000      -0.168226        -4.5777 
  42   0.0000      -0.152808        -4.1581 
  43   0.0000      -0.128413        -3.4943 
  44   0.0000      -0.119809        -3.2602 
  45   0.0000      -0.114826        -3.1246 
  46   0.0000      -0.105287        -2.8650 
  47   0.0000      -0.080918        -2.2019 
  48   0.0000      -0.064742        -1.7617 
  49   0.0000      -0.049731        -1.3532 
  50   0.0000      -0.001140        -0.0310 
  51   0.0000       0.005818         0.1583 
  52   0.0000       0.030515         0.8304 
  53   0.0000       0.049270         1.3407 
  54   0.0000       0.051434         1.3996 
  55   0.0000       0.054483         1.4825 
  56   0.0000       0.061328         1.6688 
  57   0.0000       0.072159         1.9636 
  58   0.0000       0.075148         2.0449 
  59   0.0000       0.078111         2.1255 
  60   0.0000       0.083449         2.2708 
  61   0.0000       0.087231         2.3737 
  62   0.0000       0.088923         2.4197 
  63   0.0000       0.098915         2.6916 
  64   0.0000       0.124023         3.3748 
  65   0.0000       0.135475         3.6865 
  66   0.0000       0.168480         4.5846 
  67   0.0000       0.170563         4.6413 
  68   0.0000       0.219189         5.9644 
  69   0.0000       0.230741         6.2788 
  70   0.0000       0.308724         8.4008 
  71   0.0000       0.331045         9.0082 
  72   0.0000       0.333740         9.0815 
  73   0.0000       0.353516         9.6197 
  74   0.0000       0.369690        10.0598 
  75   0.0000       0.378300        10.2941 
  76   0.0000       0.394282        10.7290 
  77   0.0000       0.416444        11.3320 
  78   0.0000       0.426269        11.5994 
  79   0.0000       0.432167        11.7599 
  80   0.0000       0.435343        11.8463 
  81   0.0000       0.440861        11.9964 
  82   0.0000       0.451747        12.2927 
  83   0.0000       0.470679        12.8078 
  84   0.0000       0.490675        13.3519 
  85   0.0000       0.516110        14.0441 
  86   0.0000       0.529165        14.3993 
  87   0.0000       0.536386        14.5958 
  88   0.0000       0.550442        14.9783 
  89   0.0000       0.567233        15.4352 
  90   0.0000       0.599246        16.3063 
  91   0.0000       0.613652        16.6983 
  92   0.0000       0.660131        17.9631 
  93   0.0000       0.679135        18.4802 
  94   0.0000       0.702100        19.1051 
  95   0.0000       0.735460        20.0129 
  96   0.0000       0.769231        20.9318 
  97   0.0000       0.781024        21.2527 
  98   0.0000       0.795795        21.6547 
  99   0.0000       0.809905        22.0386 
 100   0.0000       0.843106        22.9421 
 101   0.0000       0.853427        23.2229 
 102   0.0000       0.860062        23.4035 
 103   0.0000       0.866787        23.5865 
 104   0.0000       0.874586        23.7987 
 105   0.0000       0.889884        24.2150 
 106   0.0000       0.893690        24.3185 
 107   0.0000       0.909794        24.7567 
 108   0.0000       0.915104        24.9012 
 109   0.0000       0.925400        25.1814 
 110   0.0000       0.934547        25.4303 
 111   0.0000       0.945167        25.7193 
 112   0.0000       0.958154        26.0727 
 113   0.0000       0.962662        26.1954 
 114   0.0000       0.981881        26.7184 
 115   0.0000       1.002335        27.2749 
 116   0.0000       1.031608        28.0715 
 117   0.0000       1.080585        29.4042 
 118   0.0000       1.112197        30.2644 
 119   0.0000       1.131301        30.7843 
 120   0.0000       1.162263        31.6268 
 121   0.0000       1.173082        31.9212 
 122   0.0000       1.214382        33.0450 
 123   0.0000       1.243585        33.8397 
 124   0.0000       1.262258        34.3478 
 125   0.0000       1.294462        35.2241 
 126   0.0000       1.328057        36.1383 
 127   0.0000       1.344665        36.5902 
 128   0.0000       1.461220        39.7618 
 129   0.0000       1.498417        40.7740 
 130   0.0000       1.516477        41.2654 
 131   0.0000       1.564157        42.5629 
 132   0.0000       1.724792        46.9340 
 133   0.0000       1.734870        47.2082 
 134   0.0000       1.762110        47.9495 
 135   0.0000       1.777372        48.3647 
 136   0.0000       1.825171        49.6654 
 137   0.0000       1.846084        50.2345 
 138   0.0000       1.865595        50.7654 
 139   0.0000       1.880458        51.1699 
 140   0.0000       1.906265        51.8721 
 141   0.0000       1.939718        52.7824 
 142   0.0000       1.962583        53.4046 
 143   0.0000       2.005820        54.5811 
 144   0.0000       2.047019        55.7022 
 145   0.0000       2.058994        56.0281 
 146   0.0000       2.084937        56.7340 
 147   0.0000       2.134950        58.0949 
 148   0.0000       2.159073        58.7514 
 149   0.0000       2.161539        58.8185 
 150   0.0000       2.174478        59.1706 
 151   0.0000       2.193217        59.6805 
 152   0.0000       2.212577        60.2073 
 153   0.0000       2.242981        61.0346 
 154   0.0000       2.262569        61.5676 
 155   0.0000       2.271218        61.8030 
 156   0.0000       2.366760        64.4028 
 157   0.0000       2.376047        64.6555 
 158   0.0000       2.431281        66.1585 
 159   0.0000       2.521143        68.6038 
 160   0.0000       2.531353        68.8816 
 161   0.0000       2.656674        72.2918 
 162   0.0000       2.708238        73.6949 
 163   0.0000       2.743244        74.6475 
 164   0.0000       2.953059        80.3568 
 165   0.0000       3.023265        82.2672 
 166   0.0000       3.079328        83.7928 
 167   0.0000      13.366664       363.7254 
 168   0.0000      13.563840       369.0909 
 169   0.0000      13.623442       370.7127 
 170   0.0000      13.639462       371.1486 
 171   0.0000      13.788559       375.2058 
 172   0.0000      13.971366       380.1802 
 173   0.0000      19.110527       520.0239 
 174   0.0000      19.313637       525.5508 

                    ********************************
                    * MULLIKEN POPULATION ANALYSIS *
                    ********************************

-----------------------
MULLIKEN ATOMIC CHARGES
-----------------------
   0 Sc:    0.590737
   1 C :    0.188682
   2 N :   -0.420493
   3 C :   -0.069396
   4 C :   -0.067356
   5 N :   -0.405688
   6 C :   -0.542017
   7 H :    0.289024
   8 H :    0.264903
   9 H :    0.264145
  10 C :   -0.514087
  11 H :    0.247598
  12 H :    0.276641
  13 H :    0.274251
  14 H :    0.301324
  15 H :    0.300898
  16 C :   -0.987935
  17 H :    0.311292
  18 H :    0.245108
  19 H :    0.260855
  20 H :    0.191514
Sum of atomic charges:    1.0000000

--------------------------------
MULLIKEN REDUCED ORBITAL CHARGES
--------------------------------
  0 Scs       :     6.505394  s :     6.505394
      pz      :     4.178018  p :    12.276925
      px      :     4.059232
      py      :     4.039675
      dz2     :     0.137273  d :     1.601856
      dxz     :     0.378150
      dyz     :     0.276641
      dx2y2   :     0.301473
      dxy     :     0.508319
      f0      :     0.005118  f :     0.025088
      f+1     :     0.006199
      f-1     :     0.001619
      f+2     :     0.003174
      f-2     :     0.004898
      f+3     :     0.001687
      f-3     :     0.002393
  1 C s       :     3.231867  s :     3.231867
      pz      :     0.998946  p :     2.512635
      px      :     0.816613
      py      :     0.697076
      dz2     :     0.008023  d :     0.066816
      dxz     :     0.010969
      dyz     :     0.022389
      dx2y2   :     0.014287
      dxy     :     0.011148
  2 N s       :     3.534026  s :     3.534026
      pz      :     1.226160  p :     3.833474
      px      :     1.365424
      py      :     1.241890
      dz2     :     0.012655  d :     0.052992
      dxz     :     0.008084
      dyz     :     0.013163
      dx2y2   :     0.009959
      dxy     :     0.009131
  3 C s       :     3.160748  s :     3.160748
      pz      :     0.864118  p :     2.854405
      px      :     1.050928
      py      :     0.939360
      dz2     :     0.013741  d :     0.054243
      dxz     :     0.010713
      dyz     :     0.013118
      dx2y2   :     0.006806
      dxy     :     0.009865
  4 C s       :     3.156657  s :     3.156657
      pz      :     0.875139  p :     2.855728
      px      :     0.938880
      py      :     1.041710
      dz2     :     0.013146  d :     0.054971
      dxz     :     0.010989
      dyz     :     0.013742
      dx2y2   :     0.010881
      dxy     :     0.006213
  5 N s       :     3.526816  s :     3.526816
      pz      :     1.213630  p :     3.826361
      px      :     1.369028
      py      :     1.243703
      dz2     :     0.012486  d :     0.052511
      dxz     :     0.009603
      dyz     :     0.011723
      dx2y2   :     0.008850
      dxy     :     0.009850
  6 C s       :     3.372703  s :     3.372703
      pz      :     1.180736  p :     3.120158
      px      :     1.015099
      py      :     0.924323
      dz2     :     0.007369  d :     0.049156
      dxz     :     0.005170
      dyz     :     0.013663
      dx2y2   :     0.010301
      dxy     :     0.012653
  7 H s       :     0.710976  s :     0.710976
  8 H s       :     0.735097  s :     0.735097
  9 H s       :     0.735855  s :     0.735855
 10 C s       :     3.367005  s :     3.367005
      pz      :     1.138083  p :     3.098180
      px      :     1.135982
      py      :     0.824115
      dz2     :     0.009224  d :     0.048903
      dxz     :     0.004751
      dyz     :     0.011065
      dx2y2   :     0.015716
      dxy     :     0.008146
 11 H s       :     0.752402  s :     0.752402
 12 H s       :     0.723359  s :     0.723359
 13 H s       :     0.725749  s :     0.725749
 14 H s       :     0.698676  s :     0.698676
 15 H s       :     0.699102  s :     0.699102
 16 C s       :     3.490499  s :     3.490499
      pz      :     1.175489  p :     3.468980
      px      :     1.182759
      py      :     1.110732
      dz2     :     0.005802  d :     0.028456
      dxz     :     0.010067
      dyz     :     0.001907
      dx2y2   :     0.004385
      dxy     :     0.006295
 17 H s       :     0.688708  s :     0.688708
 18 H s       :     0.754892  s :     0.754892
 19 H s       :     0.739145  s :     0.739145
 20 H s       :     0.808486  s :     0.808486


                     *******************************
                     * LOEWDIN POPULATION ANALYSIS *
                     *******************************

----------------------
LOEWDIN ATOMIC CHARGES
----------------------
   0 Sc:    0.245134
   1 C :   -0.038093
   2 N :    0.002376
   3 C :   -0.086157
   4 C :   -0.082255
   5 N :   -0.003586
   6 C :   -0.240295
   7 H :    0.161430
   8 H :    0.147825
   9 H :    0.151462
  10 C :   -0.233649
  11 H :    0.146738
  12 H :    0.153936
  13 H :    0.152891
  14 H :    0.167990
  15 H :    0.166632
  16 C :   -0.495806
  17 H :    0.167335
  18 H :    0.160589
  19 H :    0.164725
  20 H :    0.190778

-------------------------------
LOEWDIN REDUCED ORBITAL CHARGES
-------------------------------
  0 Scs       :     6.495328  s :     6.495328
      pz      :     4.221863  p :    12.377732
      px      :     4.076716
      py      :     4.079153
      dz2     :     0.192095  d :     1.816767
      dxz     :     0.421973
      dyz     :     0.313818
      dx2y2   :     0.325153
      dxy     :     0.563727
      f0      :     0.013470  f :     0.065040
      f+1     :     0.015459
      f-1     :     0.004527
      f+2     :     0.007842
      f-2     :     0.011515
      f+3     :     0.006624
      f-3     :     0.005603
  1 C s       :     2.959485  s :     2.959485
      pz      :     1.147926  p :     2.932526
      px      :     0.911722
      py      :     0.872878
      dz2     :     0.016132  d :     0.146081
      dxz     :     0.021822
      dyz     :     0.048195
      dx2y2   :     0.032350
      dxy     :     0.027583
  2 N s       :     3.045559  s :     3.045559
      pz      :     1.247770  p :     3.824804
      px      :     1.336513
      py      :     1.240521
      dz2     :     0.031615  d :     0.127261
      dxz     :     0.020518
      dyz     :     0.033021
      dx2y2   :     0.021273
      dxy     :     0.020835
  3 C s       :     2.884442  s :     2.884442
      pz      :     0.971757  p :     3.080960
      px      :     1.063844
      py      :     1.045360
      dz2     :     0.031919  d :     0.120755
      dxz     :     0.021408
      dyz     :     0.030808
      dx2y2   :     0.014793
      dxy     :     0.021827
  4 C s       :     2.885080  s :     2.885080
      pz      :     0.976367  p :     3.074842
      px      :     1.008813
      py      :     1.089662
      dz2     :     0.030328  d :     0.122333
      dxz     :     0.025030
      dyz     :     0.028947
      dx2y2   :     0.023106
      dxy     :     0.014921
  5 N s       :     3.042673  s :     3.042673
      pz      :     1.247947  p :     3.834131
      px      :     1.333148
      py      :     1.253037
      dz2     :     0.031382  d :     0.126781
      dxz     :     0.022952
      dyz     :     0.031282
      dx2y2   :     0.019350
      dxy     :     0.021814
  6 C s       :     2.939523  s :     2.939523
      pz      :     1.148880  p :     3.206666
      px      :     1.061007
      py      :     0.996779
      dz2     :     0.013263  d :     0.094106
      dxz     :     0.009214
      dyz     :     0.025555
      dx2y2   :     0.020729
      dxy     :     0.025345
  7 H s       :     0.838570  s :     0.838570
  8 H s       :     0.852175  s :     0.852175
  9 H s       :     0.848538  s :     0.848538
 10 C s       :     2.939974  s :     2.939974
      pz      :     1.133651  p :     3.199911
      px      :     1.133698
      py      :     0.932563
      dz2     :     0.016627  d :     0.093764
      dxz     :     0.007517
      dyz     :     0.021999
      dx2y2   :     0.030847
      dxy     :     0.016774
 11 H s       :     0.853262  s :     0.853262
 12 H s       :     0.846064  s :     0.846064
 13 H s       :     0.847109  s :     0.847109
 14 H s       :     0.832010  s :     0.832010
 15 H s       :     0.833368  s :     0.833368
 16 C s       :     3.011571  s :     3.011571
      pz      :     1.152553  p :     3.437649
      px      :     1.166609
      py      :     1.118488
      dz2     :     0.009509  d :     0.046586
      dxz     :     0.015924
      dyz     :     0.003393
      dx2y2   :     0.007702
      dxy     :     0.010058
 17 H s       :     0.832665  s :     0.832665
 18 H s       :     0.839411  s :     0.839411
 19 H s       :     0.835275  s :     0.835275
 20 H s       :     0.809222  s :     0.809222


                      *****************************
                      * MAYER POPULATION ANALYSIS *
                      *****************************

  NA   - Mulliken gross atomic population
  ZA   - Total nuclear charge
  QA   - Mulliken gross atomic charge
  VA   - Mayer's total valence
  BVA  - Mayer's bonded valence
  FA   - Mayer's free valence

  ATOM       NA         ZA         QA         VA         BVA        FA
  0 Sc    20.4093    21.0000     0.5907     1.9459     1.9459     0.0000
  1 C      5.8113     6.0000     0.1887     3.1639     3.1639     0.0000
  2 N      7.4205     7.0000    -0.4205     3.4145     3.4145     0.0000
  3 C      6.0694     6.0000    -0.0694     3.7519     3.7519    -0.0000
  4 C      6.0674     6.0000    -0.0674     3.7460     3.7460     0.0000
  5 N      7.4057     7.0000    -0.4057     3.3775     3.3775    -0.0000
  6 C      6.5420     6.0000    -0.5420     3.6033     3.6033     0.0000
  7 H      0.7110     1.0000     0.2890     0.8921     0.8921    -0.0000
  8 H      0.7351     1.0000     0.2649     0.8869     0.8869     0.0000
  9 H      0.7359     1.0000     0.2641     0.8944     0.8944     0.0000
 10 C      6.5141     6.0000    -0.5141     3.6241     3.6241    -0.0000
 11 H      0.7524     1.0000     0.2476     0.9070     0.9070     0.0000
 12 H      0.7234     1.0000     0.2766     0.8863     0.8863    -0.0000
 13 H      0.7257     1.0000     0.2743     0.8866     0.8866     0.0000
 14 H      0.6987     1.0000     0.3013     0.8792     0.8792     0.0000
 15 H      0.6991     1.0000     0.3009     0.8789     0.8789     0.0000
 16 C      6.9879     6.0000    -0.9879     3.5986     3.5986     0.0000
 17 H      0.6887     1.0000     0.3113     0.8703     0.8703    -0.0000
 18 H      0.7549     1.0000     0.2451     0.9025     0.9025     0.0000
 19 H      0.7391     1.0000     0.2609     0.8895     0.8895    -0.0000
 20 H      0.8085     1.0000     0.1915     0.9514     0.9514     0.0000

  Mayer bond orders larger than 0.100000
B(  0-Sc,  1-C ) :   0.6025 B(  0-Sc, 16-C ) :   0.5892 B(  0-Sc, 20-H ) :   0.5749 
B(  1-C ,  2-N ) :   1.2439 B(  1-C ,  5-N ) :   1.2244 B(  2-N ,  3-C ) :   1.1508 
B(  2-N , 10-C ) :   0.9156 B(  3-C ,  4-C ) :   1.6448 B(  3-C , 14-H ) :   0.8790 
B(  4-C ,  5-N ) :   1.1376 B(  4-C , 15-H ) :   0.8787 B(  5-N ,  6-C ) :   0.9101 
B(  6-C ,  7-H ) :   0.8998 B(  6-C ,  8-H ) :   0.8908 B(  6-C ,  9-H ) :   0.8927 
B( 10-C , 11-H ) :   0.9154 B( 10-C , 12-H ) :   0.8963 B( 10-C , 13-H ) :   0.8964 
B( 16-C , 17-H ) :   0.8800 B( 16-C , 18-H ) :   0.8652 B( 16-C , 19-H ) :   0.8752 
B( 16-C , 20-H ) :   0.3790 

-------
TIMINGS
-------

Total SCF time: 0 days 0 hours 0 min 33 sec 

Total time                  ....      33.693 sec
Sum of individual times     ....      33.264 sec  ( 98.7%)

Fock matrix formation       ....      32.218 sec  ( 95.6%)
  Split-RI-J                ....       5.297 sec  ( 16.4% of F)
  Chain of spheres X        ....      23.375 sec  ( 72.6% of F)
  XC integration            ....       3.482 sec  ( 10.8% of F)
    Basis function eval.    ....       1.176 sec  ( 33.8% of XC)
    Density eval.           ....       0.730 sec  ( 21.0% of XC)
    XC-Functional eval.     ....       0.221 sec  (  6.3% of XC)
    XC-Potential eval.      ....       0.947 sec  ( 27.2% of XC)
Diagonalization             ....       0.157 sec  (  0.5%)
Density matrix formation    ....       0.028 sec  (  0.1%)
Population analysis         ....       0.010 sec  (  0.0%)
Initial guess               ....       0.021 sec  (  0.1%)
Orbital Transformation      ....       0.150 sec  (  0.4%)
Orbital Orthonormalization  ....       0.000 sec  (  0.0%)
DIIS solution               ....       0.107 sec  (  0.3%)
Grid generation             ....       0.571 sec  (  1.7%)

Maximum memory used throughout the entire SCF-calculation: 69.6 MB


-------------------------------------------------------------------------------
                          DFT DISPERSION CORRECTION                            
                                                                               
                              DFTD3 V3.1  Rev 1                                
                          USING Becke-Johnson damping                          
-------------------------------------------------------------------------------
The PBEh-3c composite method is recognized
Using three-body term ABC
Active option DFTDOPT                   ...         4   

molecular C6(AA) [au] = 5395.558264 


            DFT-D V3
 parameters
 s6 scaling factor         :     1.0000 
 a1 scaling factor         :     0.4860 
 s8 scaling factor         :     0.0000 
 a2 scaling factor         :     4.5000 
 Damping factor alpha9(ATM):    16.0000 
 ad hoc parameters k1-k3   :    16.0000     1.3333    -4.0000 

 Edisp/kcal,au: -7.048228905428  -0.011232066518 
 E6   /kcal   :  -7.092993614 
 E8   /kcal   :  -0.000000000 
 E6(ABC)      :   0.044764708 
 % E8         :   0.000000000 
 % E6(ABC)    :  -0.635119955 

-------------------------   ----------------
Dispersion correction           -0.011232067
-------------------------   ----------------

------------------   -----------------
gCP correction             0.036677742
------------------   -----------------

-------------------------   --------------------
FINAL SINGLE POINT ENERGY     -1104.415308248543
-------------------------   --------------------



           ************************************************************
           *        Program running with 8 parallel MPI-processes     *
           *              working on a common directory               *
           ************************************************************
------------------------------------------------------------------------------
                         ORCA SCF GRADIENT CALCULATION
------------------------------------------------------------------------------

 ... reading COSX grid (gridx3)
Gradient of the Kohn-Sham DFT energy:
Kohn-Sham wavefunction type      ... RKS
Hartree-Fock exchange scaling    ...    0.420
Number of operators              ...    1
Number of atoms                  ...   21
Basis set dimensions             ...  175
Integral neglect threshold       ... 2.5e-11
Integral primitive cutoff        ... 2.5e-12
SHARK Integral package           ... ON

Nuc. rep. gradient       (SHARK) ... done (  0.0 sec)
HCore & Overlap gradient (SHARK) ... done (  0.1 sec)
RI-J gradient            (SHARK) ... done (  0.4 sec)
COSX-gradient                    ... done (  2.2 sec)
Exchange-correlation gradient    ... done
Dispersion correction            ... done
gCP correction                   ... done

------------------
CARTESIAN GRADIENT
------------------

   1   Sc  :    0.000152335   -0.008957568    0.002934694
   2   C   :    0.000163729    0.000609685   -0.000442028
   3   N   :    0.000238770   -0.000246989   -0.000355254
   4   C   :    0.000160347   -0.000017669   -0.000480032
   5   C   :    0.000244931   -0.000115205   -0.000505811
   6   N   :    0.000080562   -0.000079359    0.000064519
   7   C   :    0.000285374   -0.000681204   -0.001257581
   8   H   :    0.000221394   -0.000005615   -0.000169721
   9   H   :    0.000197030   -0.000619549   -0.000488570
  10   H   :   -0.000112231   -0.000195247   -0.000005990
  11   C   :   -0.000605898   -0.000400674    0.000633110
  12   H   :   -0.000011476   -0.000692302    0.000157410
  13   H   :    0.000126271   -0.000185837    0.000435106
  14   H   :   -0.000263080   -0.000172496    0.000524959
  15   H   :   -0.000301176    0.000260378   -0.000149320
  16   H   :   -0.000109681    0.000316719   -0.000433700
  17   C   :   -0.001313627    0.009528745    0.000468218
  18   H   :   -0.000120333   -0.001981298    0.000646580
  19   H   :   -0.003911589    0.007128393    0.000313628
  20   H   :   -0.001083357    0.003070837    0.000566518
  21   H   :    0.005434151   -0.006894686   -0.002531018

Difference to translation invariance:
           :   -0.0005275524   -0.0003309418   -0.0000742844

Difference to rotation invariance:
           :   -0.0005887903    0.0012133930   -0.0005386552

Norm of the cartesian gradient     ...    0.0188007897
RMS gradient                       ...    0.0023686769
MAX gradient                       ...    0.0095287447

-------
TIMINGS
-------

Total SCF gradient time            ...        3.467 sec

One electron gradient       ....       0.061 sec  (  1.7%)
RI-J Coulomb gradient       ....       0.414 sec  ( 11.9%)
COSX gradient               ....       2.187 sec  ( 63.1%)
XC gradient                 ....       0.483 sec  ( 13.9%)

Maximum memory used throughout the entire SCFGRAD-calculation: 43.1 MB


           ************************************************************
           *        Program running with 8 parallel MPI-processes     *
           *              working on a common directory               *
           ************************************************************

-------------------------------------------------------------------------------
                               ORCA SCF HESSIAN
-------------------------------------------------------------------------------

                   --------- SHARK INITIALIZATION DONE ---------

Hessian of the Kohn-Sham DFT energy:
Kohn-Sham wavefunction type                      ... RKS
Hartree-Fock exchange scaling                    ...    0.420
Number of operators                              ...    1
Number of atoms                                  ...   21
Basis set dimensions                             ...  175
Integral neglect threshold                       ... 2.5e-11
Integral primitive cutoff                        ... 2.5e-12

Setting up DFT Hessian calculations              ... 

HESS GRID
---------

General Integration Accuracy     IntAcc      ... 4.388
Radial Grid Type                 RadialGrid  ... OptM3 with GC (2021)
Angular Grid (max. ang.)         AngularGrid ... 4 (Lebedev-302)
Angular grid pruning method      GridPruning ... 4 (adaptive)
Weight generation scheme         WeightScheme... Becke
Basis function cutoff            BFCut       ... 1.0000e-11
[...]
           ************************************************************
------------------------------------------------------------------------------
                         ORCA SCF GRADIENT CALCULATION
------------------------------------------------------------------------------

 ... reading COSX grid (gridx3)
Gradient of the Kohn-Sham DFT energy:
Kohn-Sham wavefunction type      ... RKS
Hartree-Fock exchange scaling    ...    0.420
Number of operators              ...    1
Number of atoms                  ...   21
Basis set dimensions             ...  175
Integral neglect threshold       ... 2.5e-11
Integral primitive cutoff        ... 2.5e-12
SHARK Integral package           ... ON

Nuc. rep. gradient       (SHARK) ... done (  0.0 sec)
HCore & Overlap gradient (SHARK) ... done (  0.1 sec)
RI-J gradient            (SHARK) ... done (  0.4 sec)
COSX-gradient                    ... done (  2.1 sec)
Exchange-correlation gradient    ... done
Dispersion correction            ... done
gCP correction                   ... done

------------------
CARTESIAN GRADIENT
------------------

   1   Sc  :   -0.000053526    0.000025682    0.000011911
   2   C   :   -0.000035409    0.000011661    0.000003882
   3   N   :   -0.000031625    0.000002247    0.000003731
   4   C   :   -0.000023197   -0.000007842    0.000005637
   5   C   :   -0.000034379   -0.000000158    0.000011168
   6   N   :   -0.000046610    0.000015882    0.000005212
   7   C   :   -0.000050586    0.000012292    0.000037366
   8   H   :   -0.000050727    0.000004791    0.000025992
   9   H   :   -0.000061487    0.000026079    0.000019789
  10   H   :   -0.000043495    0.000020677    0.000010015
  11   C   :   -0.000024348    0.000005617   -0.000000752
  12   H   :   -0.000033344    0.000016596   -0.000000707
  13   H   :   -0.000025123   -0.000002925    0.000000797
  14   H   :   -0.000020681    0.000008996   -0.000014215
  15   H   :   -0.000017557   -0.000015305    0.000002326
  16   H   :   -0.000029644   -0.000011559    0.000013442
  17   C   :   -0.000086832    0.000041044    0.000019251
  18   H   :   -0.000077093    0.000036067    0.000017522
  19   H   :   -0.000066075    0.000050678    0.000027222
  20   H   :   -0.000065322    0.000041922    0.000026726
  21   H   :   -0.000052572    0.000051077    0.000001908

Difference to translation invariance:
           :   -0.0009296321    0.0003335191    0.0002282248

Difference to rotation invariance:
           :    0.0022450618    0.0010720373    0.0009425364

Norm of the cartesian gradient     ...    0.0002591748
RMS gradient                       ...    0.0000326530
MAX gradient                       ...    0.0000868319

-------
TIMINGS
-------

Total SCF gradient time            ...        3.354 sec

One electron gradient       ....       0.058 sec  (  1.7%)
RI-J Coulomb gradient       ....       0.395 sec  ( 11.8%)
COSX gradient               ....       2.102 sec  ( 62.7%)
XC gradient                 ....       0.470 sec  ( 14.0%)

Maximum memory used throughout the entire SCFGRAD-calculation: 43.0 MB

                            ***************************************
                            *     ORCA property calculations      *
                            ***************************************

                                    ---------------------
                                    Active property flags
                                    ---------------------
   (+) Dipole Moment


------------------------------------------------------------------------------
                       ORCA ELECTRIC PROPERTIES CALCULATION
------------------------------------------------------------------------------

Dipole Moment Calculation                       ... on
Quadrupole Moment Calculation                   ... off
Polarizability Calculation                      ... off
GBWName                                         ... reaction-5-ieip_optts_Compound_2.gbw
Electron density                                ... reaction-5-ieip_optts_Compound_2.scfp
The origin for moment calculation is the CENTER OF MASS  = ( 0.430259, -0.104703 -0.209675)

-------------
DIPOLE MOMENT
-------------
                                X             Y             Z
Electronic contribution:      5.59264      -1.00373      -2.75358
Nuclear contribution   :     -4.90937       1.13529       2.74571
                        -----------------------------------------
Total Dipole Moment    :      0.68327       0.13156      -0.00787
                        -----------------------------------------
Magnitude (a.u.)       :      0.69586
Magnitude (Debye)      :      1.76874



--------------------
Rotational spectrum 
--------------------
 
Rotational constants in cm-1:     0.062909     0.026744     0.019911 
Rotational constants in MHz :  1885.972712   801.760726   596.915191 

 Dipole components along the rotational axes: 
x,y,z [a.u.] :    -0.068815     0.474839    -0.503998 
x,y,z [Debye]:    -0.174913     1.206945    -1.281060 

 



--------------------------------------------------------------------------------
                   Intrinsic Reaction Coordinate Calculation
--------------------------------------------------------------------------------

System:
Nr. of atoms                        .... 21
Algorithm: SD (steepest descent step) plus correction
Settings:
Max. no of cycles        MaxIter    .... 600
Direction                           .... Forward and backward
Initial displacement Hessian type   .... Read
Hessian Filename                    .... reaction-5-ieip_optts_Compound_1.hess
Following Hessian mode              .... 0
Initial displacement type           .... Energy
  Initial displacement energy change.... 2.000 mEh
Coordinate system following type    .... Cartesian
Length of steepest descent step     .... 0.150 bohr
Do parabolic fit 
  if SD step is uphill              .... YES
Do Correction to SD step            .... YES
Scaling for length of correction
  compared to SD step               .... 0.333
Do parabolic fit to SD correction   .... YES
Only interpolate for parabolic fit  .... YES
Do update to length of
  SD step and correction            .... YES
Convergence Tolerances:
  Max. Gradient            TolMAXG  ....  2.0000e-03 Eh/bohr
  RMS Gradient             TolRMSG  ....  5.0000e-04 Eh/bohr
Storing full IRC trajectory in      .... reaction-5-ieip_optts_Compound_2_IRC_Full_trj.xyz
Storing forward trajectory in       .... reaction-5-ieip_optts_Compound_2_IRC_F_trj.xyz
Storing backward trajectory in      .... reaction-5-ieip_optts_Compound_2_IRC_B_trj.xyz


 ...good, the file reaction-5-ieip_optts_Compound_1.hess exists
Reading the hessian file           ...... done
Determining length of initial displacement:
  Requested energy change (quadratic behavior): 2.000 mEh
  Resulting scaling factor for initial displacement along normalized TS mode: 0.2706

         *************************************************************
         *                          FORWARD IRC                      *
         *************************************************************

Iteration    E(Eh)      dE(kcal/mol)  max(|G|)   RMS(G) 
Convergence thresholds                0.002000  0.000500            
    0     -1104.435251   -1.145810    0.010399  0.002543
    1     -1104.438071   -2.915255    0.015709  0.002974
    2     -1104.441793   -5.250637    0.018174  0.003428
    3     -1104.445895   -7.824807    0.019458  0.003624
    4     -1104.450117   -10.474044    0.019410  0.003611
    5     -1104.454293   -13.094701    0.018693  0.003501
    6     -1104.458289   -15.601879    0.017490  0.003323
    7     -1104.462035   -17.952467    0.016143  0.003101
    8     -1104.465502   -20.128480    0.014650  0.002854
    9     -1104.468681   -22.123104    0.013247  0.002633
   10     -1104.471519   -23.903780    0.011780  0.002444
   11     -1104.473979   -25.447693    0.010537  0.002343
   12     -1104.476017   -26.726262    0.009184  0.002476
   13     -1104.476408   -26.971959    0.009005  0.001965
   14     -1104.477373   -27.577371    0.008409  0.001703
   15     -1104.478325   -28.174572    0.007704  0.001581
   16     -1104.479198   -28.722800    0.007053  0.001457
   17     -1104.479995   -29.222496    0.006369  0.001345
   18     -1104.480710   -29.671690    0.005733  0.001270
   19     -1104.481325   -30.057561    0.005089  0.001309
   20     -1104.481523   -30.181598    0.004910  0.001213
   21     -1104.481789   -30.348359    0.004636  0.000996
   22     -1104.482073   -30.526811    0.004313  0.000945
   23     -1104.482338   -30.693145    0.004007  0.000887
   24     -1104.482587   -30.849509    0.003701  0.000834
   25     -1104.482821   -30.996332    0.003411  0.000786
   26     -1104.483040   -31.133390    0.003124  0.000733
   27     -1104.483246   -31.262832    0.002853  0.000692
   28     -1104.483438   -31.383236    0.002592  0.000644
   29     -1104.483619   -31.497195    0.002347  0.000609
   30     -1104.483789   -31.603261    0.002116  0.000590
   31     -1104.483942   -31.699849    0.001918  0.000598
   32     -1104.484075   -31.782980    0.002163  0.000728
   33     -1104.484108   -31.803826    0.001753  0.000565
   34     -1104.484175   -31.845957    0.001735  0.000500

                      ***********************HURRAY********************
                      ***            THE IRC HAS CONVERGED          ***
                      *************************************************


         *************************************************************
         *                          BACKWARD IRC                     *
         *************************************************************

Iteration    E(Eh)      dE(kcal/mol)  max(|G|)   RMS(G) 
Convergence thresholds                0.002000  0.000500            
    0     -1104.435375   -1.223430    0.012045  0.002888
    1     -1104.438708   -3.314985    0.017373  0.003435
    2     -1104.442721   -5.833274    0.016790  0.003458
    3     -1104.446397   -8.140085    0.011809  0.002924
    4     -1104.449277   -9.947074    0.007496  0.002238
    5     -1104.451312   -11.224076    0.005146  0.001683
    6     -1104.452736   -12.117311    0.004800  0.001792
    7     -1104.452906   -12.223946    0.004508  0.001337
    8     -1104.453181   -12.397082    0.004257  0.001275
    9     -1104.453480   -12.584332    0.004205  0.001088
   10     -1104.453795   -12.781852    0.004036  0.001047
   11     -1104.454093   -12.969288    0.004023  0.001004
   12     -1104.454381   -13.149922    0.003850  0.000967
   13     -1104.454659   -13.324410    0.003846  0.000936
   14     -1104.454929   -13.493376    0.003690  0.000908
   15     -1104.455191   -13.657990    0.003687  0.000886
   16     -1104.455446   -13.818347    0.003554  0.000864
   17     -1104.455697   -13.975766    0.003548  0.000849
   18     -1104.455943   -14.130032    0.003435  0.000833
   19     -1104.456186   -14.282327    0.003426  0.000823
   20     -1104.456425   -14.432487    0.003332  0.000812
   21     -1104.456662   -14.581416    0.003320  0.000806
   22     -1104.456898   -14.728975    0.003245  0.000799
   23     -1104.457132   -14.875874    0.003227  0.000796
   24     -1104.457365   -15.021978    0.003166  0.000792
   25     -1104.457597   -15.167791    0.003148  0.000791
   26     -1104.457829   -15.313290    0.003093  0.000789
   27     -1104.458060   -15.458688    0.003066  0.000788
   28     -1104.458292   -15.604028    0.003026  0.000788
   29     -1104.458524   -15.749385    0.003004  0.000788
   30     -1104.458755   -15.894703    0.002964  0.000788
   31     -1104.458987   -16.039996    0.002940  0.000787
   32     -1104.459218   -16.185179    0.002904  0.000786
   33     -1104.459449   -16.330175    0.002879  0.000785
   34     -1104.459680   -16.474815    0.002839  0.000782
   35     -1104.459909   -16.618934    0.002820  0.000779
   36     -1104.460138   -16.762331    0.002790  0.000775
   37     -1104.460365   -16.904828    0.002796  0.000770
   38     -1104.460590   -17.046057    0.002787  0.000762
   39     -1104.460813   -17.185870    0.002768  0.000754
   40     -1104.461033   -17.323806    0.002733  0.000745
   41     -1104.461249   -17.459566    0.002690  0.000735
   42     -1104.461461   -17.592630    0.002629  0.000725
   43     -1104.461668   -17.722262    0.002561  0.000716
   44     -1104.461867   -17.847597    0.002472  0.000714
   45     -1104.462057   -17.966700    0.002393  0.000723
   46     -1104.462234   -18.077528    0.002282  0.000755
   47     -1104.462392   -18.176697    0.002271  0.000800
   48     -1104.462462   -18.220772    0.002209  0.000705
   49     -1104.462544   -18.272462    0.002174  0.000612
   50     -1104.462634   -18.328558    0.002142  0.000601
   51     -1104.462721   -18.383389    0.002094  0.000592
   52     -1104.462806   -18.436819    0.002063  0.000578
   53     -1104.462890   -18.489189    0.002015  0.000565
   54     -1104.462972   -18.540427    0.001983  0.000552
   55     -1104.463051   -18.590399    0.001933  0.000539
   56     -1104.463129   -18.639242    0.001896  0.000526
   57     -1104.463205   -18.686760    0.001849  0.000512
   58     -1104.463279   -18.733184    0.001808  0.000500
   59     -1104.463350   -18.778199    0.001758  0.000486

                      ***********************HURRAY********************
                      ***            THE IRC HAS CONVERGED          ***
                      *************************************************


---------------------------------------------------------------
                       IRC PATH SUMMARY              
---------------------------------------------------------------
All gradients are in Eh/Bohr.

Step        E(Eh)      dE(kcal/mol)  max(|G|)   RMS(G) 
   1     -1104.463350   -18.778199    0.001758  0.000486
   2     -1104.463279   -18.733184    0.001808  0.000500
   3     -1104.463205   -18.686760    0.001849  0.000512
   4     -1104.463129   -18.639242    0.001896  0.000526
   5     -1104.463051   -18.590399    0.001933  0.000539
   6     -1104.462972   -18.540427    0.001983  0.000552
   7     -1104.462890   -18.489189    0.002015  0.000565
   8     -1104.462806   -18.436819    0.002063  0.000578
   9     -1104.462721   -18.383389    0.002094  0.000592
  10     -1104.462634   -18.328558    0.002142  0.000601
  11     -1104.462544   -18.272462    0.002174  0.000612
  12     -1104.462462   -18.220772    0.002209  0.000705
  13     -1104.462392   -18.176697    0.002271  0.000800
  14     -1104.462234   -18.077528    0.002282  0.000755
  15     -1104.462057   -17.966700    0.002393  0.000723
  16     -1104.461867   -17.847597    0.002472  0.000714
  17     -1104.461668   -17.722262    0.002561  0.000716
  18     -1104.461461   -17.592630    0.002629  0.000725
  19     -1104.461249   -17.459566    0.002690  0.000735
  20     -1104.461033   -17.323806    0.002733  0.000745
  21     -1104.460813   -17.185870    0.002768  0.000754
  22     -1104.460590   -17.046057    0.002787  0.000762
  23     -1104.460365   -16.904828    0.002796  0.000770
  24     -1104.460138   -16.762331    0.002790  0.000775
  25     -1104.459909   -16.618934    0.002820  0.000779
  26     -1104.459680   -16.474815    0.002839  0.000782
  27     -1104.459449   -16.330175    0.002879  0.000785
  28     -1104.459218   -16.185179    0.002904  0.000786
  29     -1104.458987   -16.039996    0.002940  0.000787
  30     -1104.458755   -15.894703    0.002964  0.000788
  31     -1104.458524   -15.749385    0.003004  0.000788
  32     -1104.458292   -15.604028    0.003026  0.000788
  33     -1104.458060   -15.458688    0.003066  0.000788
  34     -1104.457829   -15.313290    0.003093  0.000789
  35     -1104.457597   -15.167791    0.003148  0.000791
  36     -1104.457365   -15.021978    0.003166  0.000792
  37     -1104.457132   -14.875874    0.003227  0.000796
  38     -1104.456898   -14.728975    0.003245  0.000799
  39     -1104.456662   -14.581416    0.003320  0.000806
  40     -1104.456425   -14.432487    0.003332  0.000812
  41     -1104.456186   -14.282327    0.003426  0.000823
  42     -1104.455943   -14.130032    0.003435  0.000833
  43     -1104.455697   -13.975766    0.003548  0.000849
  44     -1104.455446   -13.818347    0.003554  0.000864
  45     -1104.455191   -13.657990    0.003687  0.000886
  46     -1104.454929   -13.493376    0.003690  0.000908
  47     -1104.454659   -13.324410    0.003846  0.000936
  48     -1104.454381   -13.149922    0.003850  0.000967
  49     -1104.454093   -12.969288    0.004023  0.001004
  50     -1104.453795   -12.781852    0.004036  0.001047
  51     -1104.453480   -12.584332    0.004205  0.001088
  52     -1104.453181   -12.397082    0.004257  0.001275
  53     -1104.452906   -12.223946    0.004508  0.001337
  54     -1104.452736   -12.117311    0.004800  0.001792
  55     -1104.451312   -11.224076    0.005146  0.001683
  56     -1104.449277   -9.947074    0.007496  0.002238
  57     -1104.446397   -8.140085    0.011809  0.002924
  58     -1104.442721   -5.833274    0.016790  0.003458
  59     -1104.438708   -3.314985    0.017373  0.003435
  60     -1104.435375   -1.223430    0.012045  0.002888
  61     -1104.433425    0.000000    0.000087  0.000033 <= TS
  62     -1104.435251   -1.145810    0.010399  0.002543
  63     -1104.438071   -2.915255    0.015709  0.002974
  64     -1104.441793   -5.250637    0.018174  0.003428
  65     -1104.445895   -7.824807    0.019458  0.003624
  66     -1104.450117   -10.474044    0.019410  0.003611
  67     -1104.454293   -13.094701    0.018693  0.003501
  68     -1104.458289   -15.601879    0.017490  0.003323
  69     -1104.462035   -17.952467    0.016143  0.003101
  70     -1104.465502   -20.128480    0.014650  0.002854
  71     -1104.468681   -22.123104    0.013247  0.002633
  72     -1104.471519   -23.903780    0.011780  0.002444
  73     -1104.473979   -25.447693    0.010537  0.002343
  74     -1104.476017   -26.726262    0.009184  0.002476
  75     -1104.476408   -26.971959    0.009005  0.001965
  76     -1104.477373   -27.577371    0.008409  0.001703
  77     -1104.478325   -28.174572    0.007704  0.001581
  78     -1104.479198   -28.722800    0.007053  0.001457
  79     -1104.479995   -29.222496    0.006369  0.001345
  80     -1104.480710   -29.671690    0.005733  0.001270
  81     -1104.481325   -30.057561    0.005089  0.001309
  82     -1104.481523   -30.181598    0.004910  0.001213
  83     -1104.481789   -30.348359    0.004636  0.000996
  84     -1104.482073   -30.526811    0.004313  0.000945
  85     -1104.482338   -30.693145    0.004007  0.000887
  86     -1104.482587   -30.849509    0.003701  0.000834
  87     -1104.482821   -30.996332    0.003411  0.000786
  88     -1104.483040   -31.133390    0.003124  0.000733
  89     -1104.483246   -31.262832    0.002853  0.000692
  90     -1104.483438   -31.383236    0.002592  0.000644
  91     -1104.483619   -31.497195    0.002347  0.000609
  92     -1104.483789   -31.603261    0.002116  0.000590
  93     -1104.483942   -31.699849    0.001918  0.000598
  94     -1104.484075   -31.782980    0.002163  0.000728
  95     -1104.484108   -31.803826    0.001753  0.000565
  96     -1104.484175   -31.845957    0.001735  0.000500

Timings for individual modules:

Sum of individual times         ...     5606.356 sec (=  93.439 min)
GTO integral calculation        ...      181.150 sec (=   3.019 min)   3.2 %
SCF iterations                  ...     4756.445 sec (=  79.274 min)  84.8 %
SCF Gradient evaluation         ...      668.762 sec (=  11.146 min)  11.9 %
================================================================================

----- Orbital basis set information -----
Your calculation utilizes the basis: def2-SVP
   F. Weigend and R. Ahlrichs, Phys. Chem. Chem. Phys. 7, 3297 (2005).

                             ****ORCA TERMINATED NORMALLY****
TOTAL RUN TIME: 0 days 1 hours 47 minutes 5 seconds 176 msec
