
                                 *****************
                                 * O   R   C   A *
                                 *****************

                                            #,                                       
                                            ###                                      
                                            ####                                     
                                            #####                                    
                                            ######                                   
                                           ########,                                 
                                     ,,################,,,,,                         
                               ,,#################################,,                 
                          ,,##########################################,,             
                       ,#########################################, ''#####,          
                    ,#############################################,,   '####,        
                  ,##################################################,,,,####,       
                ,###########''''           ''''###############################       
              ,#####''   ,,,,##########,,,,          '''####'''          '####       
            ,##' ,,,,###########################,,,                        '##       
           ' ,,###''''                  '''############,,,                           
         ,,##''                                '''############,,,,        ,,,,,,###''
      ,#''                                            '''#######################'''  
     '                                                          ''''####''''         
             ,#######,   #######,   ,#######,      ##                                
            ,#'     '#,  ##    ##  ,#'     '#,    #''#        ######   ,####,        
            ##       ##  ##   ,#'  ##            #'  '#       #        #'  '#        
            ##       ##  #######   ##           ,######,      #####,   #    #        
            '#,     ,#'  ##    ##  '#,     ,#' ,#      #,         ##   #,  ,#        
             '#######'   ##     ##  '#######'  #'      '#     #####' # '####'        



                  #######################################################
                  #                        -***-                        #
                  #          Department of theory and spectroscopy      #
                  #    Directorship and core code : Frank Neese         #
                  #        Max Planck Institute fuer Kohlenforschung    #
                  #                Kaiser Wilhelm Platz 1               #
                  #                 D-45470 Muelheim/Ruhr               #
                  #                      Germany                        #
                  #                                                     #
                  #                  All rights reserved                #
                  #                        -***-                        #
                  #######################################################


                         Program Version 5.0.3 -  RELEASE  -


 With contributions from (in alphabetic order):
   Daniel Aravena         : Magnetic Suceptibility
   Michael Atanasov       : Ab Initio Ligand Field Theory (pilot matlab implementation)
   Alexander A. Auer      : GIAO ZORA, VPT2 properties, NMR spectrum
   Ute Becker             : Parallelization
   Giovanni Bistoni       : ED, misc. LED, open-shell LED, HFLD
   Martin Brehm           : Molecular dynamics
   Dmytro Bykov           : SCF Hessian
   Vijay G. Chilkuri      : MRCI spin determinant printing, contributions to CSF-ICE
   Dipayan Datta          : RHF DLPNO-CCSD density
   Achintya Kumar Dutta   : EOM-CC, STEOM-CC
   Dmitry Ganyushin       : Spin-Orbit,Spin-Spin,Magnetic field MRCI
   Miquel Garcia          : C-PCM and meta-GGA Hessian, CC/C-PCM, Gaussian charge scheme
   Yang Guo               : DLPNO-NEVPT2, F12-NEVPT2, CIM, IAO-localization
   Andreas Hansen         : Spin unrestricted coupled pair/coupled cluster methods
   Benjamin Helmich-Paris : MC-RPA, TRAH-SCF, COSX integrals
   Lee Huntington         : MR-EOM, pCC
   Robert Izsak           : Overlap fitted RIJCOSX, COSX-SCS-MP3, EOM
   Marcus Kettner         : VPT2
   Christian Kollmar      : KDIIS, OOCD, Brueckner-CCSD(T), CCSD density, CASPT2, CASPT2-K
   Simone Kossmann        : Meta GGA functionals, TD-DFT gradient, OOMP2, MP2 Hessian
   Martin Krupicka        : Initial AUTO-CI
   Lucas Lang             : DCDCAS
   Marvin Lechner         : AUTO-CI (C++ implementation), FIC-MRCC
   Dagmar Lenk            : GEPOL surface, SMD
   Dimitrios Liakos       : Extrapolation schemes; Compound Job, initial MDCI parallelization
   Dimitrios Manganas     : Further ROCIS development; embedding schemes
   Dimitrios Pantazis     : SARC Basis sets
   Anastasios Papadopoulos: AUTO-CI, single reference methods and gradients
   Taras Petrenko         : DFT Hessian,TD-DFT gradient, ASA, ECA, R-Raman, ABS, FL, XAS/XES, NRVS
   Peter Pinski           : DLPNO-MP2, DLPNO-MP2 Gradient
   Christoph Reimann      : Effective Core Potentials
   Marius Retegan         : Local ZFS, SOC
   Christoph Riplinger    : Optimizer, TS searches, QM/MM, DLPNO-CCSD(T), (RO)-DLPNO pert. Triples
   Tobias Risthaus        : Range-separated hybrids, TD-DFT gradient, RPA, STAB
   Michael Roemelt        : Original ROCIS implementation
   Masaaki Saitow         : Open-shell DLPNO-CCSD energy and density
   Barbara Sandhoefer     : DKH picture change effects
   Avijit Sen             : IP-ROCIS
   Kantharuban Sivalingam : CASSCF convergence, NEVPT2, FIC-MRCI
   Bernardo de Souza      : ESD, SOC TD-DFT
   Georgi Stoychev        : AutoAux, RI-MP2 NMR, DLPNO-MP2 response
   Willem Van den Heuvel  : Paramagnetic NMR
   Boris Wezisla          : Elementary symmetry handling
   Frank Wennmohs         : Technical directorship


 We gratefully acknowledge several colleagues who have allowed us to
 interface, adapt or use parts of their codes:
   Stefan Grimme, W. Hujo, H. Kruse, P. Pracht,  : VdW corrections, initial TS optimization,
                  C. Bannwarth, S. Ehlert          DFT functionals, gCP, sTDA/sTD-DF
   Ed Valeev, F. Pavosevic, A. Kumar             : LibInt (2-el integral package), F12 methods
   Garnet Chan, S. Sharma, J. Yang, R. Olivares  : DMRG
   Ulf Ekstrom                                   : XCFun DFT Library
   Mihaly Kallay                                 : mrcc  (arbitrary order and MRCC methods)
   Jiri Pittner, Ondrej Demel                    : Mk-CCSD
   Frank Weinhold                                : gennbo (NPA and NBO analysis)
   Christopher J. Cramer and Donald G. Truhlar   : smd solvation model
   Lars Goerigk                                  : TD-DFT with DH, B97 family of functionals
   V. Asgeirsson, H. Jonsson                     : NEB implementation
   FAccTs GmbH                                   : IRC, NEB, NEB-TS, DLPNO-Multilevel, CI-OPT
                                                   MM, QMMM, 2- and 3-layer-ONIOM, Crystal-QMMM,
                                                   LR-CPCM, SF, NACMEs, symmetry and pop. for TD-DFT,
                                                   nearIR, NL-DFT gradient (VV10), updates on ESD,
                                                   ML-optimized integration grids
   S Lehtola, MJT Oliveira, MAL Marques          : LibXC Library
   Liviu Ungur et al                             : ANISO software


 Your calculation uses the libint2 library for the computation of 2-el integrals
 For citations please refer to: http://libint.valeyev.net

 Your ORCA version has been built with support for libXC version: 5.1.0
 For citations please refer to: https://tddft.org/programs/libxc/

 This ORCA versions uses:
   CBLAS   interface :  Fast vector & matrix operations
   LAPACKE interface :  Fast linear algebra routines
   SCALAPACK package :  Parallel linear algebra routines
   Shared memory     :  Shared parallel matrices
   BLAS/LAPACK       :  OpenBLAS 0.3.15  USE64BITINT DYNAMIC_ARCH NO_AFFINITY SkylakeX SINGLE_THREADED
        Core in use  :  SkylakeX
   Copyright (c) 2011-2014, The OpenBLAS Project


Your calculation utilizes the geometrical counterpoise correction gCP
Please cite in your paper:
H.Kruse, S. Grimme J.Chem.Phys., 136, (2012), 154101 
   

Your calculation utilizes the atom-pairwise dispersion correction
with the Becke-Johnson damping scheme (D3BJ)
Cite in your paper:
S.Grimme, S.Ehrlich, L.Goerigk, J Comput Chem, (2011), 32, 1456–1465 
S.Grimme, J.Antony, S.Ehrlich and H.Krieg, J.Chem.Phys., 132, (2010), 154104 
   

Your calculation employs the composite approach PBEh-3c.
Please cite in your paper:
S. Grimme, J. G. Brandenburg, C. Bannwarth, A. Hansen J.Chem.Phys., 143, (2015), 054107 
   

================================================================================

cite the ECPs for Pd [Def2-ECP] as follows:
Ce-Yb(ecp-28): M. Dolg, H. Stoll, H.Preuss, J. Chem. Phys., 1989, 90, 1730-1734.
Y-Cd(ecp-28), Hf-Hg(ecp-46): D. Andrae,U. Haeussermann, M. Dolg, H. Stoll, H. Preuss, Theor. Chim. Acta, 1990, 77, 123-141.
In-Sb(ecp-28), Tl-Bi(ecp-46): B. Metz, H. Stoll, M. Dolg, J. Chem. Phys., 2000, 113, 2563-2569.
Te-Xe(ecp-28), Po-Rn(ecp-46): K. A. Peterson, D. Figgen, E. Goll, H. Stoll, M. Dolg, J. Chem. Phys., 2003, 119, 11113-11123.
Rb(ecp-28), Cs(ecp-46): T. Leininger, A. Nicklass, W. Kuechle, H. Stoll, M. Dolg, A. Bergner, Chem. Phys. Lett., 1996, 255, 274-280.
Sr(ecp-28), Ba(ecp-46): M. Kaupp, P. V. Schleyer, H. Stoll and H. Preuss, J. Chem. Phys., 1991, 94, 1360-1366.
La(ecp-46): M. Dolg, H. Stoll, A. Savin, H. Preuss, Theor. Chim. Acta, 1989, 75, 173-194.
Lu(ecp-28): X. Cao, M. Dolg, J. Chem. Phys., 2001, 115, 7348-7355.

ECP parameters for Pd [Def2-ECP] have been obtained from:
TURBOMOLE (7.0.2)

----- Orbital basis set information -----
Your calculation utilizes the basis: def2-mSVP

----- AuxJ basis set information -----
Your calculation utilizes the auxiliary basis: def2/J
   F. Weigend, Phys. Chem. Chem. Phys. 8, 1057 (2006).

================================================================================
                                        WARNINGS
                       Please study these warnings very carefully!
================================================================================


INFO   : the flag for use of the SHARK integral package has been found!

================================================================================
                                       INPUT FILE
================================================================================
NAME = 5_2_orca.inp
|  1> ! EnGrad PBEh-3c
|  2> %output 
|  3> xyzfile=True 
|  4> end 
|  5> %scf 
|  6> maxiter 250 
|  7> end
|  8> %output
|  9> Print[P_Hirshfeld] = 1
| 10> end
| 11> % maxcore
| 12> 4000
| 13> *xyz 0 1
| 14> C   -1.66208713   0.19603482  -0.39094849 
| 15> C   -1.89330477  -0.81831506  -1.31447801 
| 16> C   -1.42663067  -2.09409448  -1.08612105 
| 17> C   -0.62199326  -2.35887354   0.00789220 
| 18> C   -0.97136830  -0.11771855   0.79832183 
| 19> C   -0.36657175  -1.37417999   0.95871705 
| 20> H   -2.10977222   1.15004540  -0.61097772 
| 21> H   -2.52980918  -0.62170155  -2.17032529 
| 22> H   -1.70737282  -2.89214022  -1.75325975 
| 23> H    0.26732217  -1.62922194   1.79470356 
| 24> H   -0.25121572  -3.35896073   0.17252155 
| 25> Pd   1.40637618   1.14555779  -0.00891469 
| 26> O    2.97322558   1.11155729  -1.45929122 
| 27> O    2.62321538  -0.49680981  -0.06192829 
| 28> O    0.37117767   2.87534199   0.00756760 
| 29> C    0.08854254   2.95340731   1.33415005 
| 30> O    0.51584314   2.20070175   2.08139098 
| 31> H   -1.42016519   1.00122284   2.64721759 
| 32> C    3.26212350  -0.03610059  -1.05011377 
| 33> H    4.08028794  -0.61598874  -1.49022511 
| 34> H   -0.62745284   3.77896941   1.59174140 
| 35> *
| 36> 
| 37>                          ****END OF INPUT****
================================================================================

                     *******************************
                     * Energy+Gradient Calculation *
                     *******************************

---------------------------------
CARTESIAN COORDINATES (ANGSTROEM)
---------------------------------
  C     -1.662087    0.196035   -0.390948
  C     -1.893305   -0.818315   -1.314478
  C     -1.426631   -2.094094   -1.086121
  C     -0.621993   -2.358874    0.007892
  C     -0.971368   -0.117719    0.798322
  C     -0.366572   -1.374180    0.958717
  H     -2.109772    1.150045   -0.610978
  H     -2.529809   -0.621702   -2.170325
  H     -1.707373   -2.892140   -1.753260
  H      0.267322   -1.629222    1.794704
  H     -0.251216   -3.358961    0.172522
  Pd     1.406376    1.145558   -0.008915
  O      2.973226    1.111557   -1.459291
  O      2.623215   -0.496810   -0.061928
  O      0.371178    2.875342    0.007568
  C      0.088543    2.953407    1.334150
  O      0.515843    2.200702    2.081391
  H     -1.420165    1.001223    2.647218
  C      3.262123   -0.036101   -1.050114
  H      4.080288   -0.615989   -1.490225
  H     -0.627453    3.778969    1.591741

----------------------------
CARTESIAN COORDINATES (A.U.)
----------------------------
  NO LB      ZA    FRAG     MASS         X           Y           Z
   0 C     6.0000    0    12.011   -3.140889    0.370452   -0.738786
   1 C     6.0000    0    12.011   -3.577828   -1.546391   -2.484003
   2 C     6.0000    0    12.011   -2.695941   -3.957265   -2.052471
   3 C     6.0000    0    12.011   -1.175397   -4.457625    0.014914
   4 C     6.0000    0    12.011   -1.835620   -0.222456    1.508610
   5 C     6.0000    0    12.011   -0.692720   -2.596824    1.811713
   6 H     1.0000    0     1.008   -3.986892    2.173271   -1.154581
   7 H     1.0000    0     1.008   -4.780647   -1.174846   -4.101320
   8 H     1.0000    0     1.008   -3.226467   -5.465353   -3.313181
   9 H     1.0000    0     1.008    0.505166   -3.078783    3.391498
  10 H     1.0000    0     1.008   -0.474729   -6.347516    0.326018
  11 Pd   18.0000*   0   106.400    2.657666    2.164790   -0.016846
  12 O     8.0000    0    15.999    5.618582    2.100539   -2.757661
  13 O     8.0000    0    15.999    4.957159   -0.938834   -0.117028
  14 O     8.0000    0    15.999    0.701424    5.433609    0.014301
  15 C     6.0000    0    12.011    0.167321    5.581131    2.521178
  16 O     8.0000    0    15.999    0.974802    4.158724    3.933259
  17 H     1.0000    0     1.008   -2.683723    1.892037    5.002516
  18 C     6.0000    0    12.011    6.164520   -0.068220   -1.984427
  19 H     1.0000    0     1.008    7.710627   -1.164050   -2.816117
  20 H     1.0000    0     1.008   -1.185714    7.141217    3.007955
* core charge reduced due to ECP

--------------------------------
INTERNAL COORDINATES (ANGSTROEM)
--------------------------------
 C      0   0   0     0.000000000000     0.00000000     0.00000000
 C      1   0   0     1.391141276224     0.00000000     0.00000000
 C      2   1   0     1.377513972810   120.59321057     0.00000000
 C      3   2   1     1.383623613329   120.35289353   354.35606175
 C      1   2   3     1.410637293331   118.61310500   358.35545087
 C      4   3   2     1.392454462652   120.74779872     5.70676171
 H      1   2   3     1.076555148896   116.19008190   183.64528228
 H      2   1   3     1.084559497191   119.28990395   173.91401123
 H      3   2   1     1.077389067587   119.67556303   173.11829453
 H      6   4   3     1.079695023131   117.99278786   179.98898732
 H      4   3   2     1.079237320821   119.85041312   180.72927542
 Pd     5   1   2     2.810901407484    94.13584519   106.11966354
 O     12   5   1     2.135360661588   143.95875702   297.18658083
 O     12   5   1     2.044719886432    98.61923514   243.67041789
 O     12   5   1     2.015951636215    87.07109398    64.31652583
 C     15  12   5     1.358601415995    99.44570622    64.62494595
 O     16  15  12     1.143468613597   121.50153025     5.54993407
 H      5   1   2     2.207229941369   119.59650660   210.83813013
 C     13  12   5     1.252200783938    87.81853312   298.41807053
 H     19  13  12     1.095153554981   121.75840135   179.34141714
 H     16  15  12     1.122744614208   113.51198256   188.41546869

---------------------------
INTERNAL COORDINATES (A.U.)
---------------------------
 C      0   0   0     0.000000000000     0.00000000     0.00000000
 C      1   0   0     2.628876025657     0.00000000     0.00000000
 C      2   1   0     2.603124154261   120.59321057     0.00000000
 C      3   2   1     2.614669701618   120.35289353   354.35606175
 C      1   2   3     2.665718158691   118.61310500   358.35545087
 C      4   3   2     2.631357588369   120.74779872     5.70676171
 H      1   2   3     2.034394399476   116.19008190   183.64528228
 H      2   1   3     2.049520425634   119.28990395   173.91401123
 H      3   2   1     2.035970277421   119.67556303   173.11829453
 H      6   4   3     2.040327901876   117.99278786   179.98898732
 H      4   3   2     2.039462969858   119.85041312   180.72927542
 Pd     5   1   2     5.311833849599    94.13584519   106.11966354
 O     12   5   1     4.035246847549   143.95875702   297.18658083
 O     12   5   1     3.863960605939    98.61923514   243.67041789
 O     12   5   1     3.809596491678    87.07109398    64.31652583
 C     15  12   5     2.567384601389    99.44570622    64.62494595
 O     16  15  12     2.160842522434   121.50153025     5.54993407
 H      5   1   2     4.171060103778   119.59650660   210.83813013
 C     13  12   5     2.366316546324    87.81853312   298.41807053
 H     19  13  12     2.069540293504   121.75840135   179.34141714
 H     16  15  12     2.121679839188   113.51198256   188.41546869

---------------------
BASIS SET INFORMATION
---------------------
There are 4 groups of distinct atoms

 Group   1 Type C   : 8s4p1d contracted to 4s2p1d pattern {5111/31/1}
 Group   2 Type H   : 4s contracted to 2s pattern {31}
 Group   3 Type Pd  : 7s6p5d1f contracted to 5s3p2d1f pattern {31111/411/41/1}
 Group   4 Type O   : 8s4p1d contracted to 4s2p1d pattern {5111/31/1}

Atom   0C    basis set group =>   1
Atom   1C    basis set group =>   1
Atom   2C    basis set group =>   1
Atom   3C    basis set group =>   1
Atom   4C    basis set group =>   1
Atom   5C    basis set group =>   1
Atom   6H    basis set group =>   2
Atom   7H    basis set group =>   2
Atom   8H    basis set group =>   2
Atom   9H    basis set group =>   2
Atom  10H    basis set group =>   2
Atom  11Pd   basis set group =>   3
Atom  12O    basis set group =>   4
Atom  13O    basis set group =>   4
Atom  14O    basis set group =>   4
Atom  15C    basis set group =>   1
Atom  16O    basis set group =>   4
Atom  17H    basis set group =>   2
Atom  18C    basis set group =>   1
Atom  19H    basis set group =>   2
Atom  20H    basis set group =>   2
---------------------------------
AUXILIARY/J BASIS SET INFORMATION
---------------------------------
There are 4 groups of distinct atoms

 Group   1 Type C   : 12s5p4d2f1g contracted to 6s4p3d1f1g pattern {711111/2111/211/2/1}
 Group   2 Type H   : 5s2p1d contracted to 3s1p1d pattern {311/2/1}
 Group   3 Type Pd  : 11s5p5d3f3g contracted to 8s5p5d2f3g pattern {41111111/11111/11111/21/111}
 Group   4 Type O   : 12s5p4d2f1g contracted to 6s4p3d1f1g pattern {711111/2111/211/2/1}

Atom   0C    basis set group =>   1
Atom   1C    basis set group =>   1
Atom   2C    basis set group =>   1
Atom   3C    basis set group =>   1
Atom   4C    basis set group =>   1
Atom   5C    basis set group =>   1
Atom   6H    basis set group =>   2
Atom   7H    basis set group =>   2
Atom   8H    basis set group =>   2
Atom   9H    basis set group =>   2
Atom  10H    basis set group =>   2
Atom  11Pd   basis set group =>   3
Atom  12O    basis set group =>   4
Atom  13O    basis set group =>   4
Atom  14O    basis set group =>   4
Atom  15C    basis set group =>   1
Atom  16O    basis set group =>   4
Atom  17H    basis set group =>   2
Atom  18C    basis set group =>   1
Atom  19H    basis set group =>   2
Atom  20H    basis set group =>   2
-------------------------
ECP PARAMETER INFORMATION
-------------------------

 Group 1, Type Pd ECP Def2-ECP (replacing 28 core electrons, lmax=3)

Atom  11Pd   ECP group =>   1

------------------------------------------------------------------------------
                           ORCA GTO INTEGRAL CALCULATION
                           -- RI-GTO INTEGRALS CHOSEN --
------------------------------------------------------------------------------
------------------------------------------------------------------------------
                   ___                                                        
                  /   \      - P O W E R E D   B Y -                         
                 /     \                                                     
                 |  |  |   _    _      __       _____    __    __             
                 |  |  |  | |  | |    /  \     |  _  \  |  |  /  |          
                  \  \/   | |  | |   /    \    | | | |  |  | /  /          
                 / \  \   | |__| |  /  /\  \   | |_| |  |  |/  /          
                |  |  |   |  __  | /  /__\  \  |    /   |      \           
                |  |  |   | |  | | |   __   |  |    \   |  |\   \          
                \     /   | |  | | |  |  |  |  | |\  \  |  | \   \       
                 \___/    |_|  |_| |__|  |__|  |_| \__\ |__|  \__/        
                                                                              
                      - O R C A' S   B I G   F R I E N D -                    
                                      &                                       
                       - I N T E G R A L  F E E D E R -                       
                                                                              
 v1 FN, 2020, v2 2021                                                         
------------------------------------------------------------------------------


Reading SHARK input file 5_2_orca.SHARKINP.tmp ... ok
----------------------
SHARK INTEGRAL PACKAGE
----------------------

Number of atoms                             ...     21
Number of basis functions                   ...    227
Number of shells                            ...    111
Maximum angular momentum                    ...      3
Integral batch strategy                     ... SHARK/LIBINT Hybrid
RI-J (if used) integral strategy            ... SPLIT-RIJ (Revised 2003 algorithm where possible)
Printlevel                                  ...      1
Contraction scheme used                     ... SEGMENTED contraction
Coulomb Range Separation                    ... NOT USED
Exchange Range Separation                   ... NOT USED
Finite Nucleus Model                        ... NOT USED
Auxiliary Coulomb fitting basis             ... AVAILABLE
   # of basis functions in Aux-J            ...    765
   # of shells in Aux-J                     ...    243
   Maximum angular momentum in Aux-J        ...      4
Auxiliary J/K fitting basis                 ... NOT available
Auxiliary Correlation fitting basis         ... NOT available
Auxiliary 'external' fitting basis          ... NOT available
Integral threshold                          ...     2.500000e-11
Primitive cut-off                           ...     2.500000e-12
Primitive pair pre-selection threshold      ...     2.500000e-12

Calculating pre-screening integrals         ... done (  0.1 sec) Dimension = 111
Organizing shell pair data                  ... done (  0.0 sec)
Shell pair information
Total number of shell pairs                 ...      6216
Shell pairs after pre-screening             ...      4949
Total number of primitive shell pairs       ...     21723
Primitive shell pairs kept                  ...     11653
          la=0 lb=0:   1718 shell pairs
          la=1 lb=0:   1618 shell pairs
          la=1 lb=1:    364 shell pairs
          la=2 lb=0:    715 shell pairs
          la=2 lb=1:    349 shell pairs
          la=2 lb=2:     88 shell pairs
          la=3 lb=0:     55 shell pairs
          la=3 lb=1:     27 shell pairs
          la=3 lb=2:     14 shell pairs
          la=3 lb=3:      1 shell pairs

Calculating one electron integrals          ... done (  0.0 sec)
Calculating ECP integrals                   ... done (  0.2 sec)
Calculating RI/J V-Matrix + Cholesky decomp.... done (  0.0 sec)
Calculating Nuclear repulsion               ... done (  0.0 sec) ENN=    922.133815674293 Eh

SHARK setup successfully completed in   0.5 seconds

Maximum memory used throughout the entire GTOINT-calculation: 45.3 MB
-------------------------------------------------------------------------------
                                 ORCA SCF
-------------------------------------------------------------------------------

------------
SCF SETTINGS
------------
Hamiltonian:
 Density Functional     Method          .... DFT(GTOs)
 Exchange Functional    Exchange        .... PBE
   PBE kappa parameter   XKappa         ....  1.024500
   PBE mue parameter    XMuePBE         ....  0.123457
 Correlation Functional Correlation     .... PBE
   PBE beta parameter  CBetaPBE         ....  0.030000
 LDA part of GGA corr.  LDAOpt          .... PW91-LDA
 Gradients option       PostSCFGGA      .... off
 Hybrid DFT is turned on
   Fraction HF Exchange ScalHFX         ....  0.420000
   Scaling of DF-GGA-X  ScalDFX         ....  0.580000
   Scaling of DF-GGA-C  ScalDFC         ....  1.000000
   Scaling of DF-LDA-C  ScalLDAC        ....  1.000000
   Perturbative correction              ....  0.000000
   Density functional embedding theory  .... OFF
 RI-approximation to the Coulomb term is turned on
   Number of AuxJ basis functions       .... 765
   RIJ-ON(X) (HFX calculated with O(N)) .... on
   Number of AuxJ basis functions       .... 765
   RIJ-COSX (HFX calculated with COS-X)).... on


General Settings:
 Integral files         IntName         .... 5_2_orca
 Hartree-Fock type      HFTyp           .... RHF
 Total Charge           Charge          ....    0
 Multiplicity           Mult            ....    1
 Number of Electrons    NEL             ....  106
 Basis Dimension        Dim             ....  227
 Nuclear Repulsion      ENuc            ....    922.1338156743 Eh

Convergence Acceleration:
 DIIS                   CNVDIIS         .... on
   Start iteration      DIISMaxIt       ....    12
   Startup error        DIISStart       ....  0.200000
   # of expansion vecs  DIISMaxEq       ....     5
   Bias factor          DIISBfac        ....   1.050
   Max. coefficient     DIISMaxC        ....  10.000
 Trust-Rad. Augm. Hess. CNVTRAH         .... auto
   Auto Start mean grad. ratio tolernc. ....  1.125000
   Auto Start start iteration           ....    20
   Auto Start num. interpolation iter.  ....    10
   Max. Number of Micro iterations      ....    16
   Max. Number of Macro iterations      .... Maxiter - #DIIS iter
   Number of Davidson start vectors     ....     2
   Converg. threshold I  (grad. norm)   ....   1.000e-05
   Converg. threshold II (energy diff.) ....   1.000e-08
   Grad. Scal. Fac. for Micro threshold ....   0.100
   Minimum threshold for Micro iter.    ....   0.010
   NR start threshold (gradient norm)   ....   0.001
   Initial trust radius                 ....   0.400
   Minimum AH scaling param. (alpha)    ....   1.000
   Maximum AH scaling param. (alpha)    .... 1000.000
   Orbital update algorithm             .... Taylor
   White noise on init. David. guess    .... on
   Maximum white noise                  ....   0.010
   Quad. conv. algorithm                .... NR
   COSX micro iterations for RIJONX calc.... off
 SOSCF                  CNVSOSCF        .... off
 Level Shifting         CNVShift        .... on
   Level shift para.    LevelShift      ....    0.2500
   Turn off err/grad.   ShiftErr        ....    0.0010
 Zerner damping         CNVZerner       .... off
 Static damping         CNVDamp         .... on
   Fraction old density DampFac         ....    0.7000
   Max. Damping (<1)    DampMax         ....    0.9800
   Min. Damping (>=0)   DampMin         ....    0.0000
   Turn off err/grad.   DampErr         ....    0.1000
 Fernandez-Rico         CNVRico         .... off

SCF Procedure:
 Maximum # iterations   MaxIter         ....   250
 SCF integral mode      SCFMode         .... Direct
   Integral package                     .... SHARK and LIBINT hybrid scheme
 Reset frequency        DirectResetFreq ....    20
 Integral Threshold     Thresh          ....  2.500e-11 Eh
 Primitive CutOff       TCut            ....  2.500e-12 Eh

Convergence Tolerance:
 Convergence Check Mode ConvCheckMode   .... Total+1el-Energy
 Convergence forced     ConvForced      .... 0
 Energy Change          TolE            ....  1.000e-08 Eh
 1-El. energy change                    ....  1.000e-05 Eh
 DIIS Error             TolErr          ....  5.000e-07


Diagonalization of the overlap matrix:
Smallest eigenvalue                        ... 6.511e-04
Time for diagonalization                   ...    0.008 sec
Threshold for overlap eigenvalues          ... 1.000e-08
Number of eigenvalues below threshold      ... 0
Time for construction of square roots      ...    0.003 sec
Total time needed                          ...    0.011 sec

--------------------------------
INITIAL GUESS: MINIMAL BASIS EHT
--------------------------------
The minimal basis has 81 functions
EHT matrix was diagonalized
Basis set overlap was calculated now projecting the orbitals
Using GuessMode=FMatrix for the initial guess
C*T matrix was formed
Effective Fockian was calculated
Effective Fockian was diagonalized
Initial density was built
                      ------------------
                      INITIAL GUESS DONE
                      ------------------
-------------------
DFT GRID GENERATION
-------------------

General Integration Accuracy     IntAcc      ... 4.159
Radial Grid Type                 RadialGrid  ... OptM3 with GC (2021)
Angular Grid (max. ang.)         AngularGrid ... 3 (Lebedev-194)
Angular grid pruning method      GridPruning ... 4 (adaptive)
Weight generation scheme         WeightScheme... Becke
Basis function cutoff            BFCut       ... 1.0000e-11
Integration weight cutoff        WCut        ... 1.0000e-14
Angular grids for H and He will be reduced by one unit
Partially contracted basis set               ... off
Rotationally invariant grid construction     ... off

Total number of grid points                  ...    56391
Total number of batches                      ...      891
Average number of points per batch           ...       63
Average number of grid points per atom       ...     2685
Time for grid setup =    0.672 sec

--------------------
COSX GRID GENERATION
--------------------

GRIDX 1
-------
General Integration Accuracy     IntAcc      ... 3.816
Radial Grid Type                 RadialGrid  ... OptM3 with GC (2021)
Angular Grid (max. ang.)         AngularGrid ... 1 (Lebedev-50)
Angular grid pruning method      GridPruning ... 4 (adaptive)
Weight generation scheme         WeightScheme... Becke
Basis function cutoff            BFCut       ... 1.0000e-11
Integration weight cutoff        WCut        ... 1.0000e-14
Angular grids for H and He will be reduced by one unit
Partially contracted basis set               ... on
Rotationally invariant grid construction     ... off

Total number of grid points                  ...    13583
Total number of batches                      ...      221
Average number of points per batch           ...       61
Average number of grid points per atom       ...      647
UseSFitting                                  ... on

GRIDX 2
-------
General Integration Accuracy     IntAcc      ... 4.020
Radial Grid Type                 RadialGrid  ... OptM3 with GC (2021)
Angular Grid (max. ang.)         AngularGrid ... 2 (Lebedev-110)
Angular grid pruning method      GridPruning ... 4 (adaptive)
Weight generation scheme         WeightScheme... Becke
Basis function cutoff            BFCut       ... 1.0000e-11
Integration weight cutoff        WCut        ... 1.0000e-14
Angular grids for H and He will be reduced by one unit
Partially contracted basis set               ... on
Rotationally invariant grid construction     ... off

Total number of grid points                  ...    30339
Total number of batches                      ...      487
Average number of points per batch           ...       62
Average number of grid points per atom       ...     1445
UseSFitting                                  ... on

GRIDX 3
-------
General Integration Accuracy     IntAcc      ... 4.338
Radial Grid Type                 RadialGrid  ... OptM3 with GC (2021)
Angular Grid (max. ang.)         AngularGrid ... 3 (Lebedev-194)
Angular grid pruning method      GridPruning ... 4 (adaptive)
Weight generation scheme         WeightScheme... Becke
Basis function cutoff            BFCut       ... 1.0000e-11
Integration weight cutoff        WCut        ... 1.0000e-14
Angular grids for H and He will be reduced by one unit
Partially contracted basis set               ... on
Rotationally invariant grid construction     ... off

Total number of grid points                  ...    65992
Total number of batches                      ...     1042
Average number of points per batch           ...       63
Average number of grid points per atom       ...     3142
UseSFitting                                  ... on

Time for X-Grid setup             =    1.779 sec

--------------
SCF ITERATIONS
--------------
ITER       Energy         Delta-E        Max-DP      RMS-DP      [F,P]     Damp
               ***  Starting incremental Fock matrix formation  ***
  0   -715.1715183956   0.000000000000 5.32777552  0.04234044  4.9874641 0.7000
  1   -711.2141505812   3.957367814404 4.00785527  0.05607579  3.8732771 0.7000
  2   -710.2369164217   0.977234159427 2.48204081  0.02914281  2.5863969 0.7000
  3   -714.1784260189  -3.941509597205 2.55564298  0.03422324  1.9164521 0.7000
  4   -715.6920457833  -1.513619764320 1.67621221  0.02527631  1.2366218 0.7000
  5   -719.1229301335  -3.430884350226 1.69824921  0.02109763  0.9662642 0.7000
  6   -722.2238124793  -3.100882345813 1.49056053  0.01798363  0.6698154 0.7000
  7   -726.3447672675  -4.120954788184 1.01530525  0.01288140  0.5131717 0.7000
  8   -729.3589797656  -3.014212498093 0.70497111  0.00911814  0.3644217 0.7000
  9   -731.5671292210  -2.208149455380 0.50037167  0.00643888  0.2481334 0.7000
                               ***Turning on DIIS***
 10   -733.1449817953  -1.577852574349 0.35692763  0.00454769  0.1695530 0.7000
 11   -734.2681511814  -1.123169386064 0.25623295  0.00323378  0.1183290 0.7000
 12   -735.0649625732  -0.796811391831 0.60676613  0.00766056  0.0848923 0.0000
 13   -736.9591215676  -1.894158994398 0.01144284  0.00024198  0.0055338 0.0000
 14   -736.9602966485  -0.001175080913 0.00795274  0.00015513  0.0037204 0.0000
 15   -736.9608153060  -0.000518657527 0.00754320  0.00013028  0.0026120 0.0000
 16   -736.9611031929  -0.000287886874 0.00785708  0.00009416  0.0022195 0.0000
 17   -736.9612537230  -0.000150530065 0.00619327  0.00007845  0.0018539 0.0000
 18   -736.9613356575  -0.000081934471 0.00516037  0.00005541  0.0014721 0.0000
 19   -736.9613760764  -0.000040418954 0.00464957  0.00004795  0.0011740 0.0000
               *** Restarting incremental Fock matrix formation ***
                                   *** Resetting DIIS ***
 20   -736.9615200963  -0.000144019864 0.00268667  0.00006988  0.0010474 0.0000
 21   -736.9615308099  -0.000010713668 0.00337209  0.00004137  0.0008483 0.0000
               *** Restarting incremental Fock matrix formation ***
                                   *** Resetting DIIS ***
 22   -736.9614380390   0.000092770905 0.00515931  0.00011785  0.0009942 0.0000
 23   -736.9614516770  -0.000013637926 0.00111565  0.00001868  0.0006551 0.0000
 24   -736.9614527609  -0.000001083956 0.00114137  0.00001325  0.0006190 0.0000
 25   -736.9614557936  -0.000003032721 0.00111184  0.00001010  0.0002610 0.0000
 26   -736.9614565678  -0.000000774128 0.00075201  0.00000640  0.0001843 0.0000
 27   -736.9614569362  -0.000000368446 0.00111989  0.00001040  0.0001347 0.0000
 28   -736.9614572764  -0.000000340218 0.00045398  0.00000429  0.0000523 0.0000
 29   -736.9614573279  -0.000000051450 0.00019441  0.00000162  0.0000179 0.0000
 30   -736.9614573375  -0.000000009611 0.00004597  0.00000045  0.0000139 0.0000
 31   -736.9614573394  -0.000000001910 0.00001391  0.00000015  0.0000074 0.0000
 32   -736.9614573367   0.000000002707 0.00001372  0.00000014  0.0000029 0.0000
 33   -736.9614573414  -0.000000004716 0.00000252  0.00000005  0.0000013 0.0000
 34   -736.9614573459  -0.000000004530 0.00000317  0.00000004  0.0000012 0.0000
                            ***DIIS convergence achieved***

               *****************************************************
               *                     SUCCESS                       *
               *           SCF CONVERGED AFTER  35 CYCLES          *
               *****************************************************

Old exchange energy                            =    -37.287313101 Eh
New exchange energy                            =    -37.287282680 Eh
Exchange energy change after final integration =      0.000030421 Eh
Total energy after final integration           =   -736.961426935 Eh
Final COS-X integration done in                =    18.842 sec

----------------
TOTAL SCF ENERGY
----------------

Total Energy       :         -736.96142694 Eh          -20053.73994 eV

Components:
Nuclear Repulsion  :          922.13381567 Eh           25092.53680 eV
Electronic Energy  :        -1659.09524261 Eh          -45146.27674 eV
One Electron Energy:        -2890.97820375 Eh          -78667.51630 eV
Two Electron Energy:         1231.88296114 Eh           33521.23956 eV
Max COSX asymmetry :            0.00004660 Eh               0.00127 eV

Virial components:
Potential Energy   :        -1389.53601144 Eh          -37811.19716 eV
Kinetic Energy     :          652.57458451 Eh           17757.45722 eV
Virial Ratio       :            2.12931371


DFT components:
N(Alpha)           :       52.999893843941 electrons
N(Beta)            :       52.999893843941 electrons
N(Total)           :      105.999787687881 electrons
E(X)               :      -49.859709406736 Eh       
E(C)               :       -4.830385921918 Eh       
E(XC)              :      -54.690095328654 Eh       
DFET-embed. en.    :        0.000000000000 Eh       

---------------
SCF CONVERGENCE
---------------

  Last Energy change         ...   -1.0357e-08  Tolerance :   1.0000e-08
  Last MAX-Density change    ...    0.0000e+00  Tolerance :   1.0000e-07
  Last RMS-Density change    ...    0.0000e+00  Tolerance :   5.0000e-09
  Last DIIS Error            ...    7.5166e-07  Tolerance :   5.0000e-07

             **** THE GBW FILE WAS UPDATED (5_2_orca.gbw) ****
             **** DENSITY 5_2_orca.scfp WAS UPDATED ****
             **** ENERGY FILE WAS UPDATED (5_2_orca.en.tmp) ****
             **** THE GBW FILE WAS UPDATED (5_2_orca.gbw) ****
             **** DENSITY 5_2_orca.scfp WAS UPDATED ****
----------------
ORBITAL ENERGIES
----------------

  NO   OCC          E(Eh)            E(eV) 
   0   2.0000     -19.531235      -531.4719 
   1   2.0000     -19.526499      -531.3431 
   2   2.0000     -19.502592      -530.6925 
   3   2.0000     -19.502484      -530.6896 
   4   2.0000     -10.590113      -288.1716 
   5   2.0000     -10.563996      -287.4609 
   6   2.0000     -10.523182      -286.3503 
   7   2.0000     -10.479189      -285.1532 
   8   2.0000     -10.477950      -285.1195 
   9   2.0000     -10.469221      -284.8820 
  10   2.0000     -10.468939      -284.8743 
  11   2.0000     -10.466560      -284.8096 
  12   2.0000      -3.688412      -100.3668 
  13   2.0000      -2.343694       -63.7751 
  14   2.0000      -2.323614       -63.2288 
  15   2.0000      -2.300573       -62.6018 
  16   2.0000      -1.231289       -33.5051 
  17   2.0000      -1.227294       -33.3964 
  18   2.0000      -1.114198       -30.3189 
  19   2.0000      -1.080408       -29.3994 
  20   2.0000      -0.977823       -26.6079 
  21   2.0000      -0.861483       -23.4421 
  22   2.0000      -0.850123       -23.1330 
  23   2.0000      -0.699558       -19.0360 
  24   2.0000      -0.697497       -18.9799 
  25   2.0000      -0.689106       -18.7515 
  26   2.0000      -0.664328       -18.0773 
  27   2.0000      -0.600565       -16.3422 
  28   2.0000      -0.589063       -16.0292 
  29   2.0000      -0.566158       -15.4059 
  30   2.0000      -0.561003       -15.2657 
  31   2.0000      -0.536136       -14.5890 
  32   2.0000      -0.534018       -14.5314 
  33   2.0000      -0.531213       -14.4550 
  34   2.0000      -0.529661       -14.4128 
  35   2.0000      -0.516367       -14.0511 
  36   2.0000      -0.502911       -13.6849 
  37   2.0000      -0.459699       -12.5090 
  38   2.0000      -0.448921       -12.2158 
  39   2.0000      -0.439652       -11.9635 
  40   2.0000      -0.423539       -11.5251 
  41   2.0000      -0.412009       -11.2113 
  42   2.0000      -0.405871       -11.0443 
  43   2.0000      -0.390777       -10.6336 
  44   2.0000      -0.378058       -10.2875 
  45   2.0000      -0.363284        -9.8855 
  46   2.0000      -0.361352        -9.8329 
  47   2.0000      -0.344287        -9.3685 
  48   2.0000      -0.334025        -9.0893 
  49   2.0000      -0.326751        -8.8914 
  50   2.0000      -0.314481        -8.5575 
  51   2.0000      -0.311298        -8.4709 
  52   2.0000      -0.295385        -8.0378 
  53   0.0000      -0.112045        -3.0489 
  54   0.0000      -0.087503        -2.3811 
  55   0.0000      -0.003176        -0.0864 
  56   0.0000       0.001631         0.0444 
  57   0.0000       0.023271         0.6332 
  58   0.0000       0.054262         1.4766 
  59   0.0000       0.060190         1.6379 
  60   0.0000       0.071509         1.9459 
  61   0.0000       0.092531         2.5179 
  62   0.0000       0.113555         3.0900 
  63   0.0000       0.144602         3.9348 
  64   0.0000       0.173377         4.7178 
  65   0.0000       0.175240         4.7685 
  66   0.0000       0.189488         5.1562 
  67   0.0000       0.191722         5.2170 
  68   0.0000       0.198591         5.4039 
  69   0.0000       0.216880         5.9016 
  70   0.0000       0.227228         6.1832 
  71   0.0000       0.248798         6.7701 
  72   0.0000       0.291437         7.9304 
  73   0.0000       0.303692         8.2639 
  74   0.0000       0.309009         8.4086 
  75   0.0000       0.320164         8.7121 
  76   0.0000       0.328156         8.9296 
  77   0.0000       0.333584         9.0773 
  78   0.0000       0.352747         9.5987 
  79   0.0000       0.394249        10.7280 
  80   0.0000       0.403429        10.9778 
  81   0.0000       0.426696        11.6110 
  82   0.0000       0.436444        11.8762 
  83   0.0000       0.449078        12.2200 
  84   0.0000       0.480334        13.0706 
  85   0.0000       0.494790        13.4639 
  86   0.0000       0.511189        13.9102 
  87   0.0000       0.525288        14.2938 
  88   0.0000       0.550153        14.9704 
  89   0.0000       0.562428        15.3044 
  90   0.0000       0.569779        15.5045 
  91   0.0000       0.574313        15.6278 
  92   0.0000       0.584454        15.9038 
  93   0.0000       0.587733        15.9930 
  94   0.0000       0.593047        16.1376 
  95   0.0000       0.614047        16.7091 
  96   0.0000       0.618391        16.8273 
  97   0.0000       0.627197        17.0669 
  98   0.0000       0.633400        17.2357 
  99   0.0000       0.640219        17.4212 
 100   0.0000       0.656887        17.8748 
 101   0.0000       0.685482        18.6529 
 102   0.0000       0.691681        18.8216 
 103   0.0000       0.732268        19.9260 
 104   0.0000       0.747416        20.3382 
 105   0.0000       0.763289        20.7701 
 106   0.0000       0.769160        20.9299 
 107   0.0000       0.785391        21.3716 
 108   0.0000       0.799118        21.7451 
 109   0.0000       0.824496        22.4357 
 110   0.0000       0.831221        22.6187 
 111   0.0000       0.894441        24.3390 
 112   0.0000       0.907996        24.7078 
 113   0.0000       0.929135        25.2830 
 114   0.0000       0.935658        25.4606 
 115   0.0000       0.944455        25.6999 
 116   0.0000       0.950719        25.8704 
 117   0.0000       0.951460        25.8905 
 118   0.0000       0.960644        26.1404 
 119   0.0000       0.987983        26.8844 
 120   0.0000       1.009724        27.4760 
 121   0.0000       1.021505        27.7966 
 122   0.0000       1.036060        28.1926 
 123   0.0000       1.053481        28.6667 
 124   0.0000       1.055999        28.7352 
 125   0.0000       1.068755        29.0823 
 126   0.0000       1.084105        29.5000 
 127   0.0000       1.112797        30.2808 
 128   0.0000       1.126031        30.6409 
 129   0.0000       1.142699        31.0944 
 130   0.0000       1.158140        31.5146 
 131   0.0000       1.166893        31.7528 
 132   0.0000       1.179538        32.0968 
 133   0.0000       1.194155        32.4946 
 134   0.0000       1.221864        33.2486 
 135   0.0000       1.235448        33.6182 
 136   0.0000       1.258434        34.2437 
 137   0.0000       1.299174        35.3523 
 138   0.0000       1.302085        35.4315 
 139   0.0000       1.330626        36.2082 
 140   0.0000       1.396322        37.9958 
 141   0.0000       1.445999        39.3476 
 142   0.0000       1.454409        39.5765 
 143   0.0000       1.472239        40.0616 
 144   0.0000       1.486607        40.4526 
 145   0.0000       1.515887        41.2494 
 146   0.0000       1.533498        41.7286 
 147   0.0000       1.544424        42.0259 
 148   0.0000       1.552230        42.2383 
 149   0.0000       1.559786        42.4439 
 150   0.0000       1.609946        43.8089 
 151   0.0000       1.633508        44.4500 
 152   0.0000       1.760326        47.9009 
 153   0.0000       1.789274        48.6886 
 154   0.0000       1.804544        49.1041 
 155   0.0000       1.811032        49.2807 
 156   0.0000       1.812863        49.3305 
 157   0.0000       1.823998        49.6335 
 158   0.0000       1.837578        50.0030 
 159   0.0000       1.863660        50.7128 
 160   0.0000       1.876747        51.0689 
 161   0.0000       1.903476        51.7962 
 162   0.0000       1.919931        52.2440 
 163   0.0000       1.960147        53.3383 
 164   0.0000       1.967343        53.5341 
 165   0.0000       2.002338        54.4864 
 166   0.0000       2.007532        54.6277 
 167   0.0000       2.026871        55.1540 
 168   0.0000       2.038755        55.4774 
 169   0.0000       2.052662        55.8558 
 170   0.0000       2.075827        56.4861 
 171   0.0000       2.082289        56.6620 
 172   0.0000       2.117589        57.6225 
 173   0.0000       2.129589        57.9491 
 174   0.0000       2.169387        59.0320 
 175   0.0000       2.182611        59.3919 
 176   0.0000       2.195109        59.7320 
 177   0.0000       2.199768        59.8587 
 178   0.0000       2.205992        60.0281 
 179   0.0000       2.272898        61.8487 
 180   0.0000       2.308774        62.8249 
 181   0.0000       2.355480        64.0959 
 182   0.0000       2.360524        64.2331 
 183   0.0000       2.365509        64.3688 
 184   0.0000       2.391294        65.0704 
 185   0.0000       2.419129        65.8279 
 186   0.0000       2.428869        66.0929 
 187   0.0000       2.429811        66.1185 
 188   0.0000       2.445518        66.5459 
 189   0.0000       2.484304        67.6013 
 190   0.0000       2.505968        68.1908 
 191   0.0000       2.523858        68.6777 
 192   0.0000       2.527416        68.7745 
 193   0.0000       2.568555        69.8939 
 194   0.0000       2.610495        71.0352 
 195   0.0000       2.655907        72.2709 
 196   0.0000       2.674263        72.7704 
 197   0.0000       2.690056        73.2001 
 198   0.0000       2.703201        73.5578 
 199   0.0000       2.720852        74.0381 
 200   0.0000       2.734464        74.4086 
 201   0.0000       2.751764        74.8793 
 202   0.0000       2.771665        75.4208 
 203   0.0000       2.784495        75.7700 
 204   0.0000       2.798573        76.1530 
 205   0.0000       2.826699        76.9184 
 206   0.0000       2.917633        79.3928 
 207   0.0000       2.945368        80.1475 
 208   0.0000       2.973321        80.9082 
 209   0.0000       3.037452        82.6533 
 210   0.0000       3.066596        83.4463 
 211   0.0000       3.118368        84.8551 
 212   0.0000       3.164799        86.1186 
 213   0.0000       3.411411        92.8292 
 214   0.0000      13.263645       360.9221 
 215   0.0000      13.628448       370.8489 
 216   0.0000      13.683791       372.3549 
 217   0.0000      13.846432       376.7806 
 218   0.0000      13.891079       377.9955 
 219   0.0000      14.096734       383.5916 
 220   0.0000      14.113361       384.0441 
 221   0.0000      14.489121       394.2690 
 222   0.0000      25.525193       694.5758 
 223   0.0000      25.629892       697.4248 
 224   0.0000      25.680187       698.7934 
 225   0.0000      25.767600       701.1721 
 226   0.0000      51.556099      1402.9128 

                    ********************************
                    * MULLIKEN POPULATION ANALYSIS *
                    ********************************

-----------------------
MULLIKEN ATOMIC CHARGES
-----------------------
   0 C :   -0.230315
   1 C :   -0.216245
   2 C :   -0.213168
   3 C :   -0.212880
   4 C :   -0.134051
   5 C :   -0.235969
   6 H :    0.264773
   7 H :    0.239239
   8 H :    0.235271
   9 H :    0.267391
  10 H :    0.237647
  11 Pd:    0.544309
  12 O :   -0.446090
  13 O :   -0.471801
  14 O :   -0.531581
  15 C :    0.348645
  16 O :   -0.334620
  17 H :    0.091425
  18 C :    0.411912
  19 H :    0.208839
  20 H :    0.177270
Sum of atomic charges:    0.0000000

--------------------------------
MULLIKEN REDUCED ORBITAL CHARGES
--------------------------------
  0 C s       :     3.257278  s :     3.257278
      pz      :     0.917888  p :     2.933227
      px      :     0.959938
      py      :     1.055401
      dz2     :     0.010191  d :     0.039811
      dxz     :     0.006181
      dyz     :     0.009997
      dx2y2   :     0.006189
      dxy     :     0.007252
  1 C s       :     3.240920  s :     3.240920
      pz      :     1.023650  p :     2.934872
      px      :     1.009048
      py      :     0.902173
      dz2     :     0.007254  d :     0.040453
      dxz     :     0.007311
      dyz     :     0.010444
      dx2y2   :     0.007812
      dxy     :     0.007632
  2 C s       :     3.244397  s :     3.244397
      pz      :     0.983393  p :     2.928285
      px      :     0.954855
      py      :     0.990036
      dz2     :     0.006943  d :     0.040487
      dxz     :     0.005485
      dyz     :     0.012567
      dx2y2   :     0.008075
      dxy     :     0.007417
  3 C s       :     3.243499  s :     3.243499
      pz      :     0.920573  p :     2.929255
      px      :     0.976641
      py      :     1.032042
      dz2     :     0.009667  d :     0.040126
      dxz     :     0.006569
      dyz     :     0.009280
      dx2y2   :     0.007891
      dxy     :     0.006718
  4 C s       :     3.316319  s :     3.316319
      pz      :     0.931297  p :     2.782638
      px      :     0.937452
      py      :     0.913889
      dz2     :     0.008859  d :     0.035093
      dxz     :     0.006895
      dyz     :     0.006522
      dx2y2   :     0.006860
      dxy     :     0.005957
  5 C s       :     3.256674  s :     3.256674
      pz      :     1.027598  p :     2.939330
      px      :     1.007358
      py      :     0.904374
      dz2     :     0.007163  d :     0.039966
      dxz     :     0.007639
      dyz     :     0.009439
      dx2y2   :     0.007551
      dxy     :     0.008174
  6 H s       :     0.735227  s :     0.735227
  7 H s       :     0.760761  s :     0.760761
  8 H s       :     0.764729  s :     0.764729
  9 H s       :     0.732609  s :     0.732609
 10 H s       :     0.762353  s :     0.762353
 11 Pds       :     2.437343  s :     2.437343
      pz      :     2.094998  p :     6.333072
      px      :     2.113956
      py      :     2.124117
      dz2     :     1.663500  d :     8.681258
      dxz     :     1.869472
      dyz     :     2.000627
      dx2y2   :     1.742486
      dxy     :     1.405172
      f0      :     0.000253  f :     0.004018
      f+1     :     0.000599
      f-1     :     0.000651
      f+2     :     0.000335
      f-2     :     0.000300
      f+3     :     0.001333
      f-3     :     0.000547
 12 O s       :     3.817169  s :     3.817169
      pz      :     1.636381  p :     4.598732
      px      :     1.578666
      py      :     1.383684
      dz2     :     0.004605  d :     0.030190
      dxz     :     0.003423
      dyz     :     0.007715
      dx2y2   :     0.008282
      dxy     :     0.006164
 13 O s       :     3.817542  s :     3.817542
      pz      :     1.455024  p :     4.623858
      px      :     1.514234
      py      :     1.654599
      dz2     :     0.008981  d :     0.030401
      dxz     :     0.005931
      dyz     :     0.006422
      dx2y2   :     0.003697
      dxy     :     0.005371
 14 O s       :     3.846337  s :     3.846337
      pz      :     1.401948  p :     4.659785
      px      :     1.661043
      py      :     1.596794
      dz2     :     0.010836  d :     0.025459
      dxz     :     0.005597
      dyz     :     0.004830
      dx2y2   :     0.001901
      dxy     :     0.002296
 15 C s       :     3.065761  s :     3.065761
      pz      :     0.777778  p :     2.444899
      px      :     0.814304
      py      :     0.852817
      dz2     :     0.049180  d :     0.140695
      dxz     :     0.029339
      dyz     :     0.032440
      dx2y2   :     0.011218
      dxy     :     0.018518
 16 O s       :     3.749770  s :     3.749770
      pz      :     1.596548  p :     4.551457
      px      :     1.495864
      py      :     1.459045
      dz2     :     0.007172  d :     0.033393
      dxz     :     0.006842
      dyz     :     0.007686
      dx2y2   :     0.006855
      dxy     :     0.004837
 17 H s       :     0.908575  s :     0.908575
 18 C s       :     3.057589  s :     3.057589
      pz      :     0.771185  p :     2.394648
      px      :     0.818518
      py      :     0.804945
      dz2     :     0.028301  d :     0.135850
      dxz     :     0.019029
      dyz     :     0.033800
      dx2y2   :     0.024214
      dxy     :     0.030507
 19 H s       :     0.791161  s :     0.791161
 20 H s       :     0.822730  s :     0.822730


                     *******************************
                     * LOEWDIN POPULATION ANALYSIS *
                     *******************************

----------------------
LOEWDIN ATOMIC CHARGES
----------------------
   0 C :   -0.110348
   1 C :   -0.125674
   2 C :   -0.121032
   3 C :   -0.121643
   4 C :   -0.030804
   5 C :   -0.109780
   6 H :    0.162776
   7 H :    0.145939
   8 H :    0.142822
   9 H :    0.163587
  10 H :    0.145753
  11 Pd:   -0.117236
  12 O :   -0.147816
  13 O :   -0.152131
  14 O :   -0.222638
  15 C :    0.106706
  16 O :   -0.107486
  17 H :    0.107530
  18 C :    0.164471
  19 H :    0.123414
  20 H :    0.103591

-------------------------------
LOEWDIN REDUCED ORBITAL CHARGES
-------------------------------
  0 C s       :     2.893842  s :     2.893842
      pz      :     1.060593  p :     3.127012
      px      :     0.982817
      py      :     1.083602
      dz2     :     0.024086  d :     0.089494
      dxz     :     0.014965
      dyz     :     0.024611
      dx2y2   :     0.012040
      dxy     :     0.013793
  1 C s       :     2.889919  s :     2.889919
      pz      :     1.053165  p :     3.143417
      px      :     1.008852
      py      :     1.081400
      dz2     :     0.016256  d :     0.092338
      dxz     :     0.012506
      dyz     :     0.026541
      dx2y2   :     0.019675
      dxy     :     0.017360
  2 C s       :     2.887760  s :     2.887760
      pz      :     1.049669  p :     3.140801
      px      :     1.006244
      py      :     1.084887
      dz2     :     0.016236  d :     0.092471
      dxz     :     0.012479
      dyz     :     0.028195
      dx2y2   :     0.018151
      dxy     :     0.017410
  3 C s       :     2.890673  s :     2.890673
      pz      :     1.058275  p :     3.139703
      px      :     1.013037
      py      :     1.068391
      dz2     :     0.022457  d :     0.091268
      dxz     :     0.015810
      dyz     :     0.023568
      dx2y2   :     0.015818
      dxy     :     0.013615
  4 C s       :     2.954516  s :     2.954516
      pz      :     1.002170  p :     3.000579
      px      :     0.994182
      py      :     1.004227
      dz2     :     0.019222  d :     0.075710
      dxz     :     0.013912
      dyz     :     0.015426
      dx2y2   :     0.014395
      dxy     :     0.012754
  5 C s       :     2.893499  s :     2.893499
      pz      :     1.059642  p :     3.126180
      px      :     1.005699
      py      :     1.060839
      dz2     :     0.016032  d :     0.090101
      dxz     :     0.013289
      dyz     :     0.023750
      dx2y2   :     0.018366
      dxy     :     0.018665
  6 H s       :     0.837224  s :     0.837224
  7 H s       :     0.854061  s :     0.854061
  8 H s       :     0.857178  s :     0.857178
  9 H s       :     0.836413  s :     0.836413
 10 H s       :     0.854247  s :     0.854247
 11 Pds       :     2.446339  s :     2.446339
      pz      :     2.163493  p :     6.646338
      px      :     2.237086
      py      :     2.245758
      dz2     :     1.735133  d :     9.019210
      dxz     :     1.928489
      dyz     :     2.030949
      dx2y2   :     1.810828
      dxy     :     1.513812
      f0      :     0.000300  f :     0.005348
      f+1     :     0.000843
      f-1     :     0.000918
      f+2     :     0.000455
      f-2     :     0.000311
      f+3     :     0.001871
      f-3     :     0.000651
 12 O s       :     3.481932  s :     3.481932
      pz      :     1.607691  p :     4.608295
      px      :     1.548179
      py      :     1.452426
      dz2     :     0.008082  d :     0.057590
      dxz     :     0.005712
      dyz     :     0.014632
      dx2y2   :     0.016973
      dxy     :     0.012192
 13 O s       :     3.469309  s :     3.469309
      pz      :     1.489408  p :     4.624354
      px      :     1.509547
      py      :     1.625399
      dz2     :     0.014224  d :     0.058469
      dxz     :     0.014715
      dyz     :     0.012592
      dx2y2   :     0.007563
      dxy     :     0.009375
 14 O s       :     3.513203  s :     3.513203
      pz      :     1.452674  p :     4.660335
      px      :     1.632237
      py      :     1.575424
      dz2     :     0.022047  d :     0.049100
      dxz     :     0.010150
      dyz     :     0.009228
      dx2y2   :     0.003769
      dxy     :     0.003906
 15 C s       :     2.859556  s :     2.859556
      pz      :     0.928790  p :     2.718697
      px      :     0.851621
      py      :     0.938285
      dz2     :     0.122783  d :     0.315042
      dxz     :     0.061872
      dyz     :     0.070405
      dx2y2   :     0.021364
      dxy     :     0.038618
 16 O s       :     3.451531  s :     3.451531
      pz      :     1.606289  p :     4.589530
      px      :     1.486478
      py      :     1.496763
      dz2     :     0.014611  d :     0.066425
      dxz     :     0.011617
      dyz     :     0.018429
      dx2y2   :     0.010171
      dxy     :     0.011598
 17 H s       :     0.892470  s :     0.892470
 18 C s       :     2.855954  s :     2.855954
      pz      :     0.863458  p :     2.682488
      px      :     0.887834
      py      :     0.931196
      dz2     :     0.060483  d :     0.297086
      dxz     :     0.041226
      dyz     :     0.077851
      dx2y2   :     0.053309
      dxy     :     0.064217
 19 H s       :     0.876586  s :     0.876586
 20 H s       :     0.896409  s :     0.896409


                      *****************************
                      * MAYER POPULATION ANALYSIS *
                      *****************************

  NA   - Mulliken gross atomic population
  ZA   - Total nuclear charge
  QA   - Mulliken gross atomic charge
  VA   - Mayer's total valence
  BVA  - Mayer's bonded valence
  FA   - Mayer's free valence

  ATOM       NA         ZA         QA         VA         BVA        FA
  0 C      6.2303     6.0000    -0.2303     3.8010     3.8010     0.0000
  1 C      6.2162     6.0000    -0.2162     3.8061     3.8061     0.0000
  2 C      6.2132     6.0000    -0.2132     3.8093     3.8093     0.0000
  3 C      6.2129     6.0000    -0.2129     3.8086     3.8086     0.0000
  4 C      6.1341     6.0000    -0.1341     3.7849     3.7849     0.0000
  5 C      6.2360     6.0000    -0.2360     3.8226     3.8226     0.0000
  6 H      0.7352     1.0000     0.2648     0.8967     0.8967     0.0000
  7 H      0.7608     1.0000     0.2392     0.9045     0.9045     0.0000
  8 H      0.7647     1.0000     0.2353     0.9057     0.9057    -0.0000
  9 H      0.7326     1.0000     0.2674     0.8935     0.8935    -0.0000
 10 H      0.7624     1.0000     0.2376     0.9052     0.9052    -0.0000
 11 Pd    17.4557    18.0000     0.5443     2.3438     2.3438     0.0000
 12 O      8.4461     8.0000    -0.4461     2.2009     2.2009     0.0000
 13 O      8.4718     8.0000    -0.4718     2.1801     2.1801    -0.0000
 14 O      8.5316     8.0000    -0.5316     2.1114     2.1114    -0.0000
 15 C      5.6514     6.0000     0.3486     3.9807     3.9807     0.0000
 16 O      8.3346     8.0000    -0.3346     2.2627     2.2627    -0.0000
 17 H      0.9086     1.0000     0.0914     0.9889     0.9889     0.0000
 18 C      5.5881     6.0000     0.4119     3.8724     3.8724     0.0000
 19 H      0.7912     1.0000     0.2088     0.9093     0.9093     0.0000
 20 H      0.8227     1.0000     0.1773     0.9194     0.9194     0.0000

  Mayer bond orders larger than 0.100000
B(  0-C ,  1-C ) :   1.4134 B(  0-C ,  4-C ) :   1.3744 B(  0-C ,  6-H ) :   0.8999 
B(  1-C ,  2-C ) :   1.4237 B(  1-C ,  7-H ) :   0.9096 B(  2-C ,  3-C ) :   1.4229 
B(  2-C ,  8-H ) :   0.9144 B(  3-C ,  5-C ) :   1.4150 B(  3-C , 10-H ) :   0.9105 
B(  4-C ,  5-C ) :   1.3994 B(  4-C , 11-Pd) :   0.1425 B(  4-C , 17-H ) :   0.8049 
B(  5-C ,  9-H ) :   0.8981 B( 11-Pd, 12-O ) :   0.5186 B( 11-Pd, 13-O ) :   0.5685 
B( 11-Pd, 14-O ) :   0.7194 B( 11-Pd, 16-O ) :   0.2130 B( 12-O , 13-O ) :   0.1129 
B( 12-O , 18-C ) :   1.5292 B( 13-O , 18-C ) :   1.4263 B( 14-O , 15-C ) :   1.2003 
B( 15-C , 16-O ) :   1.8780 B( 15-C , 20-H ) :   0.8761 B( 18-C , 19-H ) :   0.8843 



------------------
HIRSHFELD ANALYSIS
------------------

Total integrated alpha density =     52.999893844
Total integrated beta density  =     52.999893844

  ATOM     CHARGE      SPIN    
   0 C   -0.040012    0.000000
   1 C   -0.035930    0.000000
   2 C   -0.033382    0.000000
   3 C   -0.032133    0.000000
   4 C   -0.047547    0.000000
   5 C   -0.037935    0.000000
   6 H    0.054461    0.000000
   7 H    0.052488    0.000000
   8 H    0.050477    0.000000
   9 H    0.056997    0.000000
  10 H    0.052227    0.000000
  11 Pd   0.657773    0.000000
  12 O   -0.300060    0.000000
  13 O   -0.307903    0.000000
  14 O   -0.352962    0.000000
  15 C    0.175953    0.000000
  16 O   -0.295094    0.000000
  17 H    0.055522    0.000000
  18 C    0.197428    0.000000
  19 H    0.074916    0.000000
  20 H    0.054930    0.000000

  TOTAL   0.000212    0.000000

-------
TIMINGS
-------

Total SCF time: 0 days 0 hours 4 min 9 sec 

Total time                  ....     249.804 sec
Sum of individual times     ....     249.524 sec  ( 99.9%)

Fock matrix formation       ....     246.028 sec  ( 98.5%)
  Split-RI-J                ....      23.934 sec  (  9.7% of F)
  Chain of spheres X        ....     196.504 sec  ( 79.9% of F)
  XC integration            ....      25.517 sec  ( 10.4% of F)
    Basis function eval.    ....      10.319 sec  ( 40.4% of XC)
    Density eval.           ....       6.145 sec  ( 24.1% of XC)
    XC-Functional eval.     ....       2.356 sec  (  9.2% of XC)
    XC-Potential eval.      ....       5.880 sec  ( 23.0% of XC)
Diagonalization             ....       0.326 sec  (  0.1%)
Density matrix formation    ....       0.033 sec  (  0.0%)
Population analysis         ....       0.538 sec  (  0.2%)
Initial guess               ....       0.025 sec  (  0.0%)
Orbital Transformation      ....       0.000 sec  (  0.0%)
Orbital Orthonormalization  ....       0.000 sec  (  0.0%)
DIIS solution               ....       0.124 sec  (  0.0%)
Grid generation             ....       2.451 sec  (  1.0%)

Maximum memory used throughout the entire SCF-calculation: 111.5 MB


-------------------------------------------------------------------------------
                          DFT DISPERSION CORRECTION                            
                                                                               
                              DFTD3 V3.1  Rev 1                                
                          USING Becke-Johnson damping                          
-------------------------------------------------------------------------------
The PBEh-3c composite method is recognized
Using three-body term ABC
Active option DFTDOPT                   ...         4   

molecular C6(AA) [au] = 7173.191547 


            DFT-D V3
 parameters
 s6 scaling factor         :     1.0000 
 a1 scaling factor         :     0.4860 
 s8 scaling factor         :     0.0000 
 a2 scaling factor         :     4.5000 
 Damping factor alpha9(ATM):    16.0000 
 ad hoc parameters k1-k3   :    16.0000     1.3333    -4.0000 

 Edisp/kcal,au: -8.566811332165  -0.013652081399 
 E6   /kcal   :  -8.650965201 
 E8   /kcal   :  -0.000000000 
 E6(ABC)      :   0.084153869 
 % E8         :   0.000000000 
 % E6(ABC)    :  -0.982324293 

-------------------------   ----------------
Dispersion correction           -0.013652081
-------------------------   ----------------

 ** NOTE ** -> element pd will be treated as ni
------------------   -----------------
gCP correction             0.047027048
------------------   -----------------

-------------------------   --------------------
FINAL SINGLE POINT ENERGY      -736.928051968936
-------------------------   --------------------

------------------------------------------------------------------------------
                         ORCA SCF GRADIENT CALCULATION
------------------------------------------------------------------------------

 ... reading COSX grid (gridx3)
Gradient of the Kohn-Sham DFT energy:
Kohn-Sham wavefunction type      ... RKS
Hartree-Fock exchange scaling    ...    0.420
Number of operators              ...    1
Number of atoms                  ...   21
Basis set dimensions             ...  227
Integral neglect threshold       ... 2.5e-11
Integral primitive cutoff        ... 2.5e-12
SHARK Integral package           ... ON

Nuc. rep. gradient       (SHARK) ... done (  0.0 sec)
HCore & Overlap gradient (SHARK) ... done (  0.4 sec)
ECP gradient             (SHARK) ... done (  1.1 sec)
RI-J gradient            (SHARK) ... done (  2.8 sec)
COSX-gradient                    ... done ( 23.3 sec)
Exchange-correlation gradient    ... done
Dispersion correction            ... done
gCP correction                   ... done

------------------
CARTESIAN GRADIENT
------------------

   1   C   :   -0.000210448    0.003881276   -0.018754996
   2   C   :    0.002919905   -0.003167610   -0.001104056
   3   C   :   -0.002648178    0.005043362   -0.000080541
   4   C   :    0.001294384   -0.002980963   -0.001897622
   5   C   :    0.010043017   -0.011857851   -0.020107906
   6   C   :    0.009416118   -0.011704702   -0.002507720
   7   H   :   -0.001370679   -0.005821211   -0.007850113
   8   H   :   -0.003667312   -0.002057934    0.000165111
   9   H   :   -0.001425191    0.002462545    0.003220691
  10   H   :    0.003456744   -0.003894125   -0.004811457
  11   H   :   -0.003783580    0.000907132    0.000262914
  12   Pd  :    0.010290992   -0.006028057   -0.012646841
  13   O   :    0.000809325    0.002501705    0.006654274
  14   O   :    0.008286825   -0.002766117    0.003087351
  15   O   :    0.000277014    0.011705727   -0.040379126
  16   C   :    0.047332185   -0.095203060    0.141507817
  17   O   :   -0.056993196    0.089632797   -0.098534412
  18   H   :   -0.015231497    0.034090600    0.056888738
  19   C   :    0.000027733   -0.010808156   -0.008102349
  20   H   :    0.000480974    0.000678079    0.002547718
  21   H   :   -0.009707964    0.006445671    0.003818653

Difference to translation invariance:
           :   -0.0004028290    0.0010591079    0.0013761300

Difference to rotation invariance:
           :    0.0043095631   -0.0050047650    0.0030085345

Norm of the cartesian gradient     ...    0.2469961175
RMS gradient                       ...    0.0311185858
MAX gradient                       ...    0.1415078173

-------
TIMINGS
-------

Total SCF gradient time            ...       32.673 sec

One electron gradient       ....       1.514 sec  (  4.6%)
RI-J Coulomb gradient       ....       2.766 sec  (  8.5%)
COSX gradient               ....      23.350 sec  ( 71.5%)
XC gradient                 ....       4.189 sec  ( 12.8%)

Maximum memory used throughout the entire SCFGRAD-calculation: 83.3 MB

                            ***************************************
                            *     ORCA property calculations      *
                            ***************************************

                                    ---------------------
                                    Active property flags
                                    ---------------------
   (+) Dipole Moment


------------------------------------------------------------------------------
                       ORCA ELECTRIC PROPERTIES CALCULATION
------------------------------------------------------------------------------

Dipole Moment Calculation                       ... on
Quadrupole Moment Calculation                   ... off
Polarizability Calculation                      ... off
GBWName                                         ... 5_2_orca.gbw
Electron density                                ... 5_2_orca.scfp
The origin for moment calculation is the CENTER OF MASS  = ( 1.417217,  1.141779 -0.004140)

-------------
DIPOLE MOMENT
-------------
                                X             Y             Z
Electronic contribution:     52.64398      42.26824      -0.91300
Nuclear contribution   :    -53.21303     -43.43724       0.64178
                        -----------------------------------------
Total Dipole Moment    :     -0.56905      -1.16900      -0.27122
                        -----------------------------------------
Magnitude (a.u.)       :      1.32813
Magnitude (Debye)      :      3.37585



--------------------
Rotational spectrum 
--------------------
 
Rotational constants in cm-1:     0.027961     0.018330     0.013649 
Rotational constants in MHz :   838.258562   549.532306   409.186216 

 Dipole components along the rotational axes: 
x,y,z [a.u.] :    -1.249213    -0.446728     0.061976 
x,y,z [Debye]:    -3.175246    -1.135492     0.157530 

 

Timings for individual modules:

Sum of individual times         ...      283.071 sec (=   4.718 min)
GTO integral calculation        ...        0.544 sec (=   0.009 min)   0.2 %
SCF iterations                  ...      249.826 sec (=   4.164 min)  88.3 %
SCF Gradient evaluation         ...       32.700 sec (=   0.545 min)  11.6 %
                             ****ORCA TERMINATED NORMALLY****
TOTAL RUN TIME: 0 days 0 hours 4 minutes 43 seconds 341 msec
