
                                 *****************
                                 * O   R   C   A *
                                 *****************

                                            #,                                       
                                            ###                                      
                                            ####                                     
                                            #####                                    
                                            ######                                   
                                           ########,                                 
                                     ,,################,,,,,                         
                               ,,#################################,,                 
                          ,,##########################################,,             
                       ,#########################################, ''#####,          
                    ,#############################################,,   '####,        
                  ,##################################################,,,,####,       
                ,###########''''           ''''###############################       
              ,#####''   ,,,,##########,,,,          '''####'''          '####       
            ,##' ,,,,###########################,,,                        '##       
           ' ,,###''''                  '''############,,,                           
         ,,##''                                '''############,,,,        ,,,,,,###''
      ,#''                                            '''#######################'''  
     '                                                          ''''####''''         
             ,#######,   #######,   ,#######,      ##                                
            ,#'     '#,  ##    ##  ,#'     '#,    #''#        ######   ,####,        
            ##       ##  ##   ,#'  ##            #'  '#       #        #'  '#        
            ##       ##  #######   ##           ,######,      #####,   #    #        
            '#,     ,#'  ##    ##  '#,     ,#' ,#      #,         ##   #,  ,#        
             '#######'   ##     ##  '#######'  #'      '#     #####' # '####'        



                  #######################################################
                  #                        -***-                        #
                  #          Department of theory and spectroscopy      #
                  #    Directorship and core code : Frank Neese         #
                  #        Max Planck Institute fuer Kohlenforschung    #
                  #                Kaiser Wilhelm Platz 1               #
                  #                 D-45470 Muelheim/Ruhr               #
                  #                      Germany                        #
                  #                                                     #
                  #                  All rights reserved                #
                  #                        -***-                        #
                  #######################################################


                         Program Version 5.0.3 -  RELEASE  -


 With contributions from (in alphabetic order):
   Daniel Aravena         : Magnetic Suceptibility
   Michael Atanasov       : Ab Initio Ligand Field Theory (pilot matlab implementation)
   Alexander A. Auer      : GIAO ZORA, VPT2 properties, NMR spectrum
   Ute Becker             : Parallelization
   Giovanni Bistoni       : ED, misc. LED, open-shell LED, HFLD
   Martin Brehm           : Molecular dynamics
   Dmytro Bykov           : SCF Hessian
   Vijay G. Chilkuri      : MRCI spin determinant printing, contributions to CSF-ICE
   Dipayan Datta          : RHF DLPNO-CCSD density
   Achintya Kumar Dutta   : EOM-CC, STEOM-CC
   Dmitry Ganyushin       : Spin-Orbit,Spin-Spin,Magnetic field MRCI
   Miquel Garcia          : C-PCM and meta-GGA Hessian, CC/C-PCM, Gaussian charge scheme
   Yang Guo               : DLPNO-NEVPT2, F12-NEVPT2, CIM, IAO-localization
   Andreas Hansen         : Spin unrestricted coupled pair/coupled cluster methods
   Benjamin Helmich-Paris : MC-RPA, TRAH-SCF, COSX integrals
   Lee Huntington         : MR-EOM, pCC
   Robert Izsak           : Overlap fitted RIJCOSX, COSX-SCS-MP3, EOM
   Marcus Kettner         : VPT2
   Christian Kollmar      : KDIIS, OOCD, Brueckner-CCSD(T), CCSD density, CASPT2, CASPT2-K
   Simone Kossmann        : Meta GGA functionals, TD-DFT gradient, OOMP2, MP2 Hessian
   Martin Krupicka        : Initial AUTO-CI
   Lucas Lang             : DCDCAS
   Marvin Lechner         : AUTO-CI (C++ implementation), FIC-MRCC
   Dagmar Lenk            : GEPOL surface, SMD
   Dimitrios Liakos       : Extrapolation schemes; Compound Job, initial MDCI parallelization
   Dimitrios Manganas     : Further ROCIS development; embedding schemes
   Dimitrios Pantazis     : SARC Basis sets
   Anastasios Papadopoulos: AUTO-CI, single reference methods and gradients
   Taras Petrenko         : DFT Hessian,TD-DFT gradient, ASA, ECA, R-Raman, ABS, FL, XAS/XES, NRVS
   Peter Pinski           : DLPNO-MP2, DLPNO-MP2 Gradient
   Christoph Reimann      : Effective Core Potentials
   Marius Retegan         : Local ZFS, SOC
   Christoph Riplinger    : Optimizer, TS searches, QM/MM, DLPNO-CCSD(T), (RO)-DLPNO pert. Triples
   Tobias Risthaus        : Range-separated hybrids, TD-DFT gradient, RPA, STAB
   Michael Roemelt        : Original ROCIS implementation
   Masaaki Saitow         : Open-shell DLPNO-CCSD energy and density
   Barbara Sandhoefer     : DKH picture change effects
   Avijit Sen             : IP-ROCIS
   Kantharuban Sivalingam : CASSCF convergence, NEVPT2, FIC-MRCI
   Bernardo de Souza      : ESD, SOC TD-DFT
   Georgi Stoychev        : AutoAux, RI-MP2 NMR, DLPNO-MP2 response
   Willem Van den Heuvel  : Paramagnetic NMR
   Boris Wezisla          : Elementary symmetry handling
   Frank Wennmohs         : Technical directorship


 We gratefully acknowledge several colleagues who have allowed us to
 interface, adapt or use parts of their codes:
   Stefan Grimme, W. Hujo, H. Kruse, P. Pracht,  : VdW corrections, initial TS optimization,
                  C. Bannwarth, S. Ehlert          DFT functionals, gCP, sTDA/sTD-DF
   Ed Valeev, F. Pavosevic, A. Kumar             : LibInt (2-el integral package), F12 methods
   Garnet Chan, S. Sharma, J. Yang, R. Olivares  : DMRG
   Ulf Ekstrom                                   : XCFun DFT Library
   Mihaly Kallay                                 : mrcc  (arbitrary order and MRCC methods)
   Jiri Pittner, Ondrej Demel                    : Mk-CCSD
   Frank Weinhold                                : gennbo (NPA and NBO analysis)
   Christopher J. Cramer and Donald G. Truhlar   : smd solvation model
   Lars Goerigk                                  : TD-DFT with DH, B97 family of functionals
   V. Asgeirsson, H. Jonsson                     : NEB implementation
   FAccTs GmbH                                   : IRC, NEB, NEB-TS, DLPNO-Multilevel, CI-OPT
                                                   MM, QMMM, 2- and 3-layer-ONIOM, Crystal-QMMM,
                                                   LR-CPCM, SF, NACMEs, symmetry and pop. for TD-DFT,
                                                   nearIR, NL-DFT gradient (VV10), updates on ESD,
                                                   ML-optimized integration grids
   S Lehtola, MJT Oliveira, MAL Marques          : LibXC Library
   Liviu Ungur et al                             : ANISO software


 Your calculation uses the libint2 library for the computation of 2-el integrals
 For citations please refer to: http://libint.valeyev.net

 Your ORCA version has been built with support for libXC version: 5.1.0
 For citations please refer to: https://tddft.org/programs/libxc/

 This ORCA versions uses:
   CBLAS   interface :  Fast vector & matrix operations
   LAPACKE interface :  Fast linear algebra routines
   SCALAPACK package :  Parallel linear algebra routines
   Shared memory     :  Shared parallel matrices
   BLAS/LAPACK       :  OpenBLAS 0.3.15  USE64BITINT DYNAMIC_ARCH NO_AFFINITY SkylakeX SINGLE_THREADED
        Core in use  :  SkylakeX
   Copyright (c) 2011-2014, The OpenBLAS Project


Your calculation utilizes the geometrical counterpoise correction gCP
Please cite in your paper:
H.Kruse, S. Grimme J.Chem.Phys., 136, (2012), 154101 
   

Your calculation utilizes the atom-pairwise dispersion correction
with the Becke-Johnson damping scheme (D3BJ)
Cite in your paper:
S.Grimme, S.Ehrlich, L.Goerigk, J Comput Chem, (2011), 32, 1456–1465 
S.Grimme, J.Antony, S.Ehrlich and H.Krieg, J.Chem.Phys., 132, (2010), 154104 
   

Your calculation employs the composite approach PBEh-3c.
Please cite in your paper:
S. Grimme, J. G. Brandenburg, C. Bannwarth, A. Hansen J.Chem.Phys., 143, (2015), 054107 
   

================================================================================

cite the ECPs for Pd [Def2-ECP] as follows:
Ce-Yb(ecp-28): M. Dolg, H. Stoll, H.Preuss, J. Chem. Phys., 1989, 90, 1730-1734.
Y-Cd(ecp-28), Hf-Hg(ecp-46): D. Andrae,U. Haeussermann, M. Dolg, H. Stoll, H. Preuss, Theor. Chim. Acta, 1990, 77, 123-141.
In-Sb(ecp-28), Tl-Bi(ecp-46): B. Metz, H. Stoll, M. Dolg, J. Chem. Phys., 2000, 113, 2563-2569.
Te-Xe(ecp-28), Po-Rn(ecp-46): K. A. Peterson, D. Figgen, E. Goll, H. Stoll, M. Dolg, J. Chem. Phys., 2003, 119, 11113-11123.
Rb(ecp-28), Cs(ecp-46): T. Leininger, A. Nicklass, W. Kuechle, H. Stoll, M. Dolg, A. Bergner, Chem. Phys. Lett., 1996, 255, 274-280.
Sr(ecp-28), Ba(ecp-46): M. Kaupp, P. V. Schleyer, H. Stoll and H. Preuss, J. Chem. Phys., 1991, 94, 1360-1366.
La(ecp-46): M. Dolg, H. Stoll, A. Savin, H. Preuss, Theor. Chim. Acta, 1989, 75, 173-194.
Lu(ecp-28): X. Cao, M. Dolg, J. Chem. Phys., 2001, 115, 7348-7355.

ECP parameters for Pd [Def2-ECP] have been obtained from:
TURBOMOLE (7.0.2)

----- Orbital basis set information -----
Your calculation utilizes the basis: def2-mSVP

----- AuxJ basis set information -----
Your calculation utilizes the auxiliary basis: def2/J
   F. Weigend, Phys. Chem. Chem. Phys. 8, 1057 (2006).

================================================================================
                                        WARNINGS
                       Please study these warnings very carefully!
================================================================================


INFO   : the flag for use of the SHARK integral package has been found!

================================================================================
                                       INPUT FILE
================================================================================
NAME = 4_11_orca.inp
|  1> ! EnGrad PBEh-3c
|  2> %output 
|  3> xyzfile=True 
|  4> end 
|  5> %scf 
|  6> maxiter 250 
|  7> end
|  8> %output
|  9> Print[P_Hirshfeld] = 1
| 10> end
| 11> % maxcore
| 12> 4000
| 13> *xyz 0 1
| 14> C   -1.74242788   0.19586715  -0.33215630 
| 15> C   -2.02898576  -0.82192778  -1.18380200 
| 16> C   -1.61632074  -2.10764343  -0.94044310 
| 17> C   -0.75568404  -2.35844076   0.09284806 
| 18> C   -1.00706543  -0.20060130   0.73235787 
| 19> C   -0.43596588  -1.39732393   0.99499605 
| 20> H   -1.97355590   1.23493523  -0.53588850 
| 21> H   -2.58783644  -0.58111447  -2.02156602 
| 22> H   -1.93776700  -2.91867462  -1.58096025 
| 23> H    0.27595140  -1.53798812   1.79828199 
| 24> H   -0.34263584  -3.29374746   0.26013915 
| 25> Pd   1.44262816   1.14579355   0.04356210 
| 26> O    3.08099333   1.26337269  -1.36035183 
| 27> O    2.59261011  -0.45543616  -0.12283779 
| 28> O    0.42103933   2.79987866   0.06306735 
| 29> C    0.09669118   2.93274063   1.29517902 
| 30> O    0.49313216   2.15848529   2.18316142 
| 31> H   -0.86780816   0.51531927   1.48759602 
| 32> C    3.31698416   0.09321061  -1.00642829 
| 33> H    4.18763202  -0.45008731  -1.37607172 
| 34> H   -0.60650470   3.77115395   1.50594268 
| 35> *
| 36> 
| 37>                          ****END OF INPUT****
================================================================================

                     *******************************
                     * Energy+Gradient Calculation *
                     *******************************

---------------------------------
CARTESIAN COORDINATES (ANGSTROEM)
---------------------------------
  C     -1.742428    0.195867   -0.332156
  C     -2.028986   -0.821928   -1.183802
  C     -1.616321   -2.107643   -0.940443
  C     -0.755684   -2.358441    0.092848
  C     -1.007065   -0.200601    0.732358
  C     -0.435966   -1.397324    0.994996
  H     -1.973556    1.234935   -0.535888
  H     -2.587836   -0.581114   -2.021566
  H     -1.937767   -2.918675   -1.580960
  H      0.275951   -1.537988    1.798282
  H     -0.342636   -3.293747    0.260139
  Pd     1.442628    1.145794    0.043562
  O      3.080993    1.263373   -1.360352
  O      2.592610   -0.455436   -0.122838
  O      0.421039    2.799879    0.063067
  C      0.096691    2.932741    1.295179
  O      0.493132    2.158485    2.183161
  H     -0.867808    0.515319    1.487596
  C      3.316984    0.093211   -1.006428
  H      4.187632   -0.450087   -1.376072
  H     -0.606505    3.771154    1.505943

----------------------------
CARTESIAN COORDINATES (A.U.)
----------------------------
  NO LB      ZA    FRAG     MASS         X           Y           Z
   0 C     6.0000    0    12.011   -3.292712    0.370135   -0.627684
   1 C     6.0000    0    12.011   -3.834227   -1.553218   -2.237062
   2 C     6.0000    0    12.011   -3.054404   -3.982869   -1.777180
   3 C     6.0000    0    12.011   -1.428036   -4.456807    0.175457
   4 C     6.0000    0    12.011   -1.903078   -0.379082    1.383956
   5 C     6.0000    0    12.011   -0.823856   -2.640560    1.880270
   6 H     1.0000    0     1.008   -3.729480    2.333689   -1.012683
   7 H     1.0000    0     1.008   -4.890302   -1.098147   -3.820206
   8 H     1.0000    0     1.008   -3.661849   -5.515496   -2.987582
   9 H     1.0000    0     1.008    0.521473   -2.906376    3.398260
  10 H     1.0000    0     1.008   -0.647488   -6.224281    0.491592
  11 Pd   18.0000*   0   106.400    2.726172    2.165236    0.082320
  12 O     8.0000    0    15.999    5.822234    2.387428   -2.570692
  13 O     8.0000    0    15.999    4.899323   -0.860650   -0.232130
  14 O     8.0000    0    15.999    0.795649    5.291004    0.119180
  15 C     6.0000    0    12.011    0.182720    5.542077    2.447534
  16 O     8.0000    0    15.999    0.931885    4.078946    4.125577
  17 H     1.0000    0     1.008   -1.639920    0.973812    2.811149
  18 C     6.0000    0    12.011    6.268192    0.176143   -1.901874
  19 H     1.0000    0     1.008    7.913478   -0.850542   -2.600399
  20 H     1.0000    0     1.008   -1.146128    7.126448    2.845819
* core charge reduced due to ECP

--------------------------------
INTERNAL COORDINATES (ANGSTROEM)
--------------------------------
 C      0   0   0     0.000000000000     0.00000000     0.00000000
 C      1   0   0     1.357690073784     0.00000000     0.00000000
 C      2   1   0     1.372071683840   121.85242761     0.00000000
 C      3   2   1     1.367949359975   119.66945682   351.73981117
 C      1   2   3     1.353194584251   112.86220293     1.05567731
 C      5   1   2     1.351768679456   129.92721579     6.56937253
 H      1   2   3     1.083784778367   123.76539103   174.24247443
 H      2   1   3     1.035448543394   116.55692278   179.14055603
 H      3   2   1     1.082294557256   120.52432275   173.96649879
 H      6   5   1     1.082534493359   122.48306751   168.77177683
 H      4   3   2     1.036047174303   122.56828338   186.16050496
 Pd     5   1   2     2.878926430071    97.88407527   110.98125812
 O     12   5   1     2.160796058697   145.69739663   294.14328577
 O     12   5   1     1.978404405804    97.82882610   241.50571363
 O     12   5   1     1.944227801335    87.04075884    58.29852611
 C     15  12   5     1.280996952702   103.35195891    66.64834164
 O     16  15  12     1.243040435727   122.80259877     4.37491534
 H      5   1   2     1.049914050298   115.98724938   188.03027510
 C     13  12   5     1.245083466070    84.71466151   298.77935308
 H     19  13  12     1.090796310656   121.53779756   184.14733690
 H     16  15  12     1.114379944713   114.81692562   186.95559198

---------------------------
INTERNAL COORDINATES (A.U.)
---------------------------
 C      0   0   0     0.000000000000     0.00000000     0.00000000
 C      1   0   0     2.565662414196     0.00000000     0.00000000
 C      2   1   0     2.592839718566   121.85242761     0.00000000
 C      3   2   1     2.585049655426   119.66945682   351.73981117
 C      1   2   3     2.557167170140   112.86220293     1.05567731
 C      5   1   2     2.554472600584   129.92721579     6.56937253
 H      1   2   3     2.048056419227   123.76539103   174.24247443
 H      2   1   3     1.956714172782   116.55692278   179.14055603
 H      3   2   1     2.045240309446   120.52432275   173.96649879
 H      6   5   1     2.045693722972   122.48306751   168.77177683
 H      4   3   2     1.957845421256   122.56828338   186.16050496
 Pd     5   1   2     5.440382512542    97.88407527   110.98125812
 O     12   5   1     4.083312782194   145.69739663   294.14328577
 O     12   5   1     3.738642509113    97.82882610   241.50571363
 O     12   5   1     3.674058086478    87.04075884    58.29852611
 C     15  12   5     2.420733418994   103.35195891    66.64834164
 O     16  15  12     2.349005996914   122.80259877     4.37491534
 H      5   1   2     1.984050019219   115.98724938   188.03027510
 C     13  12   5     2.352866764745    84.71466151   298.77935308
 H     19  13  12     2.061306295032   121.53779756   184.14733690
 H     16  15  12     2.105872904642   114.81692562   186.95559198

---------------------
BASIS SET INFORMATION
---------------------
There are 4 groups of distinct atoms

 Group   1 Type C   : 8s4p1d contracted to 4s2p1d pattern {5111/31/1}
 Group   2 Type H   : 4s contracted to 2s pattern {31}
 Group   3 Type Pd  : 7s6p5d1f contracted to 5s3p2d1f pattern {31111/411/41/1}
 Group   4 Type O   : 8s4p1d contracted to 4s2p1d pattern {5111/31/1}

Atom   0C    basis set group =>   1
Atom   1C    basis set group =>   1
Atom   2C    basis set group =>   1
Atom   3C    basis set group =>   1
Atom   4C    basis set group =>   1
Atom   5C    basis set group =>   1
Atom   6H    basis set group =>   2
Atom   7H    basis set group =>   2
Atom   8H    basis set group =>   2
Atom   9H    basis set group =>   2
Atom  10H    basis set group =>   2
Atom  11Pd   basis set group =>   3
Atom  12O    basis set group =>   4
Atom  13O    basis set group =>   4
Atom  14O    basis set group =>   4
Atom  15C    basis set group =>   1
Atom  16O    basis set group =>   4
Atom  17H    basis set group =>   2
Atom  18C    basis set group =>   1
Atom  19H    basis set group =>   2
Atom  20H    basis set group =>   2
---------------------------------
AUXILIARY/J BASIS SET INFORMATION
---------------------------------
There are 4 groups of distinct atoms

 Group   1 Type C   : 12s5p4d2f1g contracted to 6s4p3d1f1g pattern {711111/2111/211/2/1}
 Group   2 Type H   : 5s2p1d contracted to 3s1p1d pattern {311/2/1}
 Group   3 Type Pd  : 11s5p5d3f3g contracted to 8s5p5d2f3g pattern {41111111/11111/11111/21/111}
 Group   4 Type O   : 12s5p4d2f1g contracted to 6s4p3d1f1g pattern {711111/2111/211/2/1}

Atom   0C    basis set group =>   1
Atom   1C    basis set group =>   1
Atom   2C    basis set group =>   1
Atom   3C    basis set group =>   1
Atom   4C    basis set group =>   1
Atom   5C    basis set group =>   1
Atom   6H    basis set group =>   2
Atom   7H    basis set group =>   2
Atom   8H    basis set group =>   2
Atom   9H    basis set group =>   2
Atom  10H    basis set group =>   2
Atom  11Pd   basis set group =>   3
Atom  12O    basis set group =>   4
Atom  13O    basis set group =>   4
Atom  14O    basis set group =>   4
Atom  15C    basis set group =>   1
Atom  16O    basis set group =>   4
Atom  17H    basis set group =>   2
Atom  18C    basis set group =>   1
Atom  19H    basis set group =>   2
Atom  20H    basis set group =>   2
-------------------------
ECP PARAMETER INFORMATION
-------------------------

 Group 1, Type Pd ECP Def2-ECP (replacing 28 core electrons, lmax=3)

Atom  11Pd   ECP group =>   1

------------------------------------------------------------------------------
                           ORCA GTO INTEGRAL CALCULATION
                           -- RI-GTO INTEGRALS CHOSEN --
------------------------------------------------------------------------------
------------------------------------------------------------------------------
                   ___                                                        
                  /   \      - P O W E R E D   B Y -                         
                 /     \                                                     
                 |  |  |   _    _      __       _____    __    __             
                 |  |  |  | |  | |    /  \     |  _  \  |  |  /  |          
                  \  \/   | |  | |   /    \    | | | |  |  | /  /          
                 / \  \   | |__| |  /  /\  \   | |_| |  |  |/  /          
                |  |  |   |  __  | /  /__\  \  |    /   |      \           
                |  |  |   | |  | | |   __   |  |    \   |  |\   \          
                \     /   | |  | | |  |  |  |  | |\  \  |  | \   \       
                 \___/    |_|  |_| |__|  |__|  |_| \__\ |__|  \__/        
                                                                              
                      - O R C A' S   B I G   F R I E N D -                    
                                      &                                       
                       - I N T E G R A L  F E E D E R -                       
                                                                              
 v1 FN, 2020, v2 2021                                                         
------------------------------------------------------------------------------


Reading SHARK input file 4_11_orca.SHARKINP.tmp ... ok
----------------------
SHARK INTEGRAL PACKAGE
----------------------

Number of atoms                             ...     21
Number of basis functions                   ...    227
Number of shells                            ...    111
Maximum angular momentum                    ...      3
Integral batch strategy                     ... SHARK/LIBINT Hybrid
RI-J (if used) integral strategy            ... SPLIT-RIJ (Revised 2003 algorithm where possible)
Printlevel                                  ...      1
Contraction scheme used                     ... SEGMENTED contraction
Coulomb Range Separation                    ... NOT USED
Exchange Range Separation                   ... NOT USED
Finite Nucleus Model                        ... NOT USED
Auxiliary Coulomb fitting basis             ... AVAILABLE
   # of basis functions in Aux-J            ...    765
   # of shells in Aux-J                     ...    243
   Maximum angular momentum in Aux-J        ...      4
Auxiliary J/K fitting basis                 ... NOT available
Auxiliary Correlation fitting basis         ... NOT available
Auxiliary 'external' fitting basis          ... NOT available
Integral threshold                          ...     2.500000e-11
Primitive cut-off                           ...     2.500000e-12
Primitive pair pre-selection threshold      ...     2.500000e-12

Calculating pre-screening integrals         ... done (  0.1 sec) Dimension = 111
Organizing shell pair data                  ... done (  0.0 sec)
Shell pair information
Total number of shell pairs                 ...      6216
Shell pairs after pre-screening             ...      4945
Total number of primitive shell pairs       ...     21723
Primitive shell pairs kept                  ...     11722
          la=0 lb=0:   1735 shell pairs
          la=1 lb=0:   1606 shell pairs
          la=1 lb=1:    364 shell pairs
          la=2 lb=0:    712 shell pairs
          la=2 lb=1:    346 shell pairs
          la=2 lb=2:     86 shell pairs
          la=3 lb=0:     55 shell pairs
          la=3 lb=1:     27 shell pairs
          la=3 lb=2:     13 shell pairs
          la=3 lb=3:      1 shell pairs

Calculating one electron integrals          ... done (  0.0 sec)
Calculating ECP integrals                   ... done (  0.2 sec)
Calculating RI/J V-Matrix + Cholesky decomp.... done (  0.0 sec)
Calculating Nuclear repulsion               ... done (  0.0 sec) ENN=    929.220188597453 Eh

SHARK setup successfully completed in   0.5 seconds

Maximum memory used throughout the entire GTOINT-calculation: 45.1 MB
-------------------------------------------------------------------------------
                                 ORCA SCF
-------------------------------------------------------------------------------

------------
SCF SETTINGS
------------
Hamiltonian:
 Density Functional     Method          .... DFT(GTOs)
 Exchange Functional    Exchange        .... PBE
   PBE kappa parameter   XKappa         ....  1.024500
   PBE mue parameter    XMuePBE         ....  0.123457
 Correlation Functional Correlation     .... PBE
   PBE beta parameter  CBetaPBE         ....  0.030000
 LDA part of GGA corr.  LDAOpt          .... PW91-LDA
 Gradients option       PostSCFGGA      .... off
 Hybrid DFT is turned on
   Fraction HF Exchange ScalHFX         ....  0.420000
   Scaling of DF-GGA-X  ScalDFX         ....  0.580000
   Scaling of DF-GGA-C  ScalDFC         ....  1.000000
   Scaling of DF-LDA-C  ScalLDAC        ....  1.000000
   Perturbative correction              ....  0.000000
   Density functional embedding theory  .... OFF
 RI-approximation to the Coulomb term is turned on
   Number of AuxJ basis functions       .... 765
   RIJ-ON(X) (HFX calculated with O(N)) .... on
   Number of AuxJ basis functions       .... 765
   RIJ-COSX (HFX calculated with COS-X)).... on


General Settings:
 Integral files         IntName         .... 4_11_orca
 Hartree-Fock type      HFTyp           .... RHF
 Total Charge           Charge          ....    0
 Multiplicity           Mult            ....    1
 Number of Electrons    NEL             ....  106
 Basis Dimension        Dim             ....  227
 Nuclear Repulsion      ENuc            ....    929.2201885975 Eh

Convergence Acceleration:
 DIIS                   CNVDIIS         .... on
   Start iteration      DIISMaxIt       ....    12
   Startup error        DIISStart       ....  0.200000
   # of expansion vecs  DIISMaxEq       ....     5
   Bias factor          DIISBfac        ....   1.050
   Max. coefficient     DIISMaxC        ....  10.000
 Trust-Rad. Augm. Hess. CNVTRAH         .... auto
   Auto Start mean grad. ratio tolernc. ....  1.125000
   Auto Start start iteration           ....    20
   Auto Start num. interpolation iter.  ....    10
   Max. Number of Micro iterations      ....    16
   Max. Number of Macro iterations      .... Maxiter - #DIIS iter
   Number of Davidson start vectors     ....     2
   Converg. threshold I  (grad. norm)   ....   1.000e-05
   Converg. threshold II (energy diff.) ....   1.000e-08
   Grad. Scal. Fac. for Micro threshold ....   0.100
   Minimum threshold for Micro iter.    ....   0.010
   NR start threshold (gradient norm)   ....   0.001
   Initial trust radius                 ....   0.400
   Minimum AH scaling param. (alpha)    ....   1.000
   Maximum AH scaling param. (alpha)    .... 1000.000
   Orbital update algorithm             .... Taylor
   White noise on init. David. guess    .... on
   Maximum white noise                  ....   0.010
   Quad. conv. algorithm                .... NR
   COSX micro iterations for RIJONX calc.... off
 SOSCF                  CNVSOSCF        .... off
 Level Shifting         CNVShift        .... on
   Level shift para.    LevelShift      ....    0.2500
   Turn off err/grad.   ShiftErr        ....    0.0010
 Zerner damping         CNVZerner       .... off
 Static damping         CNVDamp         .... on
   Fraction old density DampFac         ....    0.7000
   Max. Damping (<1)    DampMax         ....    0.9800
   Min. Damping (>=0)   DampMin         ....    0.0000
   Turn off err/grad.   DampErr         ....    0.1000
 Fernandez-Rico         CNVRico         .... off

SCF Procedure:
 Maximum # iterations   MaxIter         ....   250
 SCF integral mode      SCFMode         .... Direct
   Integral package                     .... SHARK and LIBINT hybrid scheme
 Reset frequency        DirectResetFreq ....    20
 Integral Threshold     Thresh          ....  2.500e-11 Eh
 Primitive CutOff       TCut            ....  2.500e-12 Eh

Convergence Tolerance:
 Convergence Check Mode ConvCheckMode   .... Total+1el-Energy
 Convergence forced     ConvForced      .... 0
 Energy Change          TolE            ....  1.000e-08 Eh
 1-El. energy change                    ....  1.000e-05 Eh
 DIIS Error             TolErr          ....  5.000e-07


Diagonalization of the overlap matrix:
Smallest eigenvalue                        ... 4.984e-04
Time for diagonalization                   ...    0.008 sec
Threshold for overlap eigenvalues          ... 1.000e-08
Number of eigenvalues below threshold      ... 0
Time for construction of square roots      ...    0.003 sec
Total time needed                          ...    0.011 sec

--------------------------------
INITIAL GUESS: MINIMAL BASIS EHT
--------------------------------
The minimal basis has 81 functions
EHT matrix was diagonalized
Basis set overlap was calculated now projecting the orbitals
Using GuessMode=FMatrix for the initial guess
C*T matrix was formed
Effective Fockian was calculated
Effective Fockian was diagonalized
Initial density was built
                      ------------------
                      INITIAL GUESS DONE
                      ------------------
-------------------
DFT GRID GENERATION
-------------------

General Integration Accuracy     IntAcc      ... 4.159
Radial Grid Type                 RadialGrid  ... OptM3 with GC (2021)
Angular Grid (max. ang.)         AngularGrid ... 3 (Lebedev-194)
Angular grid pruning method      GridPruning ... 4 (adaptive)
Weight generation scheme         WeightScheme... Becke
Basis function cutoff            BFCut       ... 1.0000e-11
Integration weight cutoff        WCut        ... 1.0000e-14
Angular grids for H and He will be reduced by one unit
Partially contracted basis set               ... off
Rotationally invariant grid construction     ... off

Total number of grid points                  ...    56268
Total number of batches                      ...      891
Average number of points per batch           ...       63
Average number of grid points per atom       ...     2679
Time for grid setup =    0.669 sec

--------------------
COSX GRID GENERATION
--------------------

GRIDX 1
-------
General Integration Accuracy     IntAcc      ... 3.816
Radial Grid Type                 RadialGrid  ... OptM3 with GC (2021)
Angular Grid (max. ang.)         AngularGrid ... 1 (Lebedev-50)
Angular grid pruning method      GridPruning ... 4 (adaptive)
Weight generation scheme         WeightScheme... Becke
Basis function cutoff            BFCut       ... 1.0000e-11
Integration weight cutoff        WCut        ... 1.0000e-14
Angular grids for H and He will be reduced by one unit
Partially contracted basis set               ... on
Rotationally invariant grid construction     ... off

Total number of grid points                  ...    13565
Total number of batches                      ...      220
Average number of points per batch           ...       61
Average number of grid points per atom       ...      646
UseSFitting                                  ... on

GRIDX 2
-------
General Integration Accuracy     IntAcc      ... 4.020
Radial Grid Type                 RadialGrid  ... OptM3 with GC (2021)
Angular Grid (max. ang.)         AngularGrid ... 2 (Lebedev-110)
Angular grid pruning method      GridPruning ... 4 (adaptive)
Weight generation scheme         WeightScheme... Becke
Basis function cutoff            BFCut       ... 1.0000e-11
Integration weight cutoff        WCut        ... 1.0000e-14
Angular grids for H and He will be reduced by one unit
Partially contracted basis set               ... on
Rotationally invariant grid construction     ... off

Total number of grid points                  ...    30271
Total number of batches                      ...      484
Average number of points per batch           ...       62
Average number of grid points per atom       ...     1441
UseSFitting                                  ... on

GRIDX 3
-------
General Integration Accuracy     IntAcc      ... 4.338
Radial Grid Type                 RadialGrid  ... OptM3 with GC (2021)
Angular Grid (max. ang.)         AngularGrid ... 3 (Lebedev-194)
Angular grid pruning method      GridPruning ... 4 (adaptive)
Weight generation scheme         WeightScheme... Becke
Basis function cutoff            BFCut       ... 1.0000e-11
Integration weight cutoff        WCut        ... 1.0000e-14
Angular grids for H and He will be reduced by one unit
Partially contracted basis set               ... on
Rotationally invariant grid construction     ... off

Total number of grid points                  ...    65860
Total number of batches                      ...     1041
Average number of points per batch           ...       63
Average number of grid points per atom       ...     3136
UseSFitting                                  ... on

Time for X-Grid setup             =    1.770 sec

--------------
SCF ITERATIONS
--------------
ITER       Energy         Delta-E        Max-DP      RMS-DP      [F,P]     Damp
               ***  Starting incremental Fock matrix formation  ***
  0   -722.9256041815   0.000000000000 3.40887360  0.03037956  5.1394679 0.7000
  1   -717.1724969181   5.753107263424 5.07971213  0.05603014  3.9365383 0.7000
  2   -720.2869755662  -3.114478648169 1.63456144  0.02006159  2.6095543 0.7000
  3   -724.5471027112  -4.260127144983 1.05249052  0.01352008  1.9168374 0.7000
  4   -728.2588243034  -3.711721592207 0.73191570  0.00944902  1.3408641 0.7000
  5   -730.8188071338  -2.559982830397 0.53015219  0.00673617  0.9456937 0.7000
  6   -732.6599007347  -1.841093600930 0.38171390  0.00482819  0.6736567 0.7000
  7   -733.9759561215  -1.316055386718 0.27080760  0.00344624  0.4797973 0.7000
  8   -734.9104713972  -0.934515275711 0.19023203  0.00244778  0.3400534 0.7000
  9   -735.5715701399  -0.661098742766 0.13305761  0.00173349  0.2399078 0.7000
                               ***Turning on DIIS***
 10   -736.0379945104  -0.466424370476 0.09299761  0.00122718  0.1688479 0.7000
 11   -736.3664376152  -0.328443104745 0.06523814  0.00087975  0.1187724 0.7000
 12   -736.5974452079  -0.231007592706 0.15191651  0.00210906  0.0833723 0.0000
 13   -737.1405510340  -0.543105826089 0.01364926  0.00014270  0.0061469 0.0000
 14   -737.1408925414  -0.000341507421 0.01453389  0.00013926  0.0050180 0.0000
 15   -737.1411287323  -0.000236190888 0.01203220  0.00010567  0.0037554 0.0000
 16   -737.1412576990  -0.000128966777 0.00953858  0.00008606  0.0027241 0.0000
 17   -737.1413325942  -0.000074895192 0.00789015  0.00006835  0.0018733 0.0000
 18   -737.1413730125  -0.000040418258 0.00584514  0.00004925  0.0011873 0.0000
 19   -737.1413923398  -0.000019327360 0.00751603  0.00006897  0.0007035 0.0000
               *** Restarting incremental Fock matrix formation ***
                                   *** Resetting DIIS ***
 20   -737.1417207080  -0.000328368158 0.00119833  0.00003240  0.0002259 0.0000
 21   -737.1417225233  -0.000001815277 0.00063478  0.00000831  0.0002898 0.0000
 22   -737.1417229398  -0.000000416473 0.00054802  0.00000472  0.0002033 0.0000
 23   -737.1417232656  -0.000000325872 0.00023493  0.00000219  0.0000792 0.0000
 24   -737.1417233253  -0.000000059705 0.00022366  0.00000220  0.0000617 0.0000
 25   -737.1417233711  -0.000000045781 0.00023925  0.00000204  0.0000440 0.0000
 26   -737.1417233911  -0.000000019986 0.00021365  0.00000196  0.0000263 0.0000
 27   -737.1417233988  -0.000000007676 0.00009145  0.00000081  0.0000097 0.0000
 28   -737.1417233963   0.000000002492 0.00001945  0.00000018  0.0000027 0.0000
                 **** Energy Check signals convergence ****

               *****************************************************
               *                     SUCCESS                       *
               *           SCF CONVERGED AFTER  29 CYCLES          *
               *****************************************************

Old exchange energy                            =    -37.462781915 Eh
New exchange energy                            =    -37.462822343 Eh
Exchange energy change after final integration =     -0.000040428 Eh
Total energy after final integration           =   -737.141763823 Eh
Final COS-X integration done in                =    18.809 sec

----------------
TOTAL SCF ENERGY
----------------

Total Energy       :         -737.14176382 Eh          -20058.64716 eV

Components:
Nuclear Repulsion  :          929.22018860 Eh           25285.36681 eV
Electronic Energy  :        -1666.36195242 Eh          -45344.01397 eV
One Electron Energy:        -2904.75675329 Eh          -79042.44970 eV
Two Electron Energy:         1238.39480087 Eh           33698.43573 eV
Max COSX asymmetry :            0.00005194 Eh               0.00141 eV

Virial components:
Potential Energy   :        -1390.82112624 Eh          -37846.16691 eV
Kinetic Energy     :          653.67936242 Eh           17787.51975 eV
Virial Ratio       :            2.12768095


DFT components:
N(Alpha)           :       53.000121721193 electrons
N(Beta)            :       53.000121721193 electrons
N(Total)           :      106.000243442385 electrons
E(X)               :      -50.053846148955 Eh       
E(C)               :       -4.853791508897 Eh       
E(XC)              :      -54.907637657852 Eh       
DFET-embed. en.    :        0.000000000000 Eh       

---------------
SCF CONVERGENCE
---------------

  Last Energy change         ...    1.5631e-09  Tolerance :   1.0000e-08
  Last MAX-Density change    ...    0.0000e+00  Tolerance :   1.0000e-07
  Last RMS-Density change    ...    0.0000e+00  Tolerance :   5.0000e-09
  Last DIIS Error            ...    2.1982e-06  Tolerance :   5.0000e-07

             **** THE GBW FILE WAS UPDATED (4_11_orca.gbw) ****
             **** DENSITY 4_11_orca.scfp WAS UPDATED ****
             **** ENERGY FILE WAS UPDATED (4_11_orca.en.tmp) ****
             **** THE GBW FILE WAS UPDATED (4_11_orca.gbw) ****
             **** DENSITY 4_11_orca.scfp WAS UPDATED ****
----------------
ORBITAL ENERGIES
----------------

  NO   OCC          E(Eh)            E(eV) 
   0   2.0000     -19.541779      -531.7588 
   1   2.0000     -19.537367      -531.6388 
   2   2.0000     -19.529712      -531.4305 
   3   2.0000     -19.495190      -530.4911 
   4   2.0000     -10.598205      -288.3918 
   5   2.0000     -10.577358      -287.8245 
   6   2.0000     -10.455492      -284.5084 
   7   2.0000     -10.454727      -284.4876 
   8   2.0000     -10.452642      -284.4308 
   9   2.0000     -10.448341      -284.3138 
  10   2.0000     -10.446849      -284.2732 
  11   2.0000     -10.444435      -284.2075 
  12   2.0000      -3.700397      -100.6929 
  13   2.0000      -2.358811       -64.1865 
  14   2.0000      -2.334206       -63.5170 
  15   2.0000      -2.312827       -62.9352 
  16   2.0000      -1.242580       -33.8123 
  17   2.0000      -1.206512       -32.8309 
  18   2.0000      -1.128882       -30.7184 
  19   2.0000      -1.101942       -29.9854 
  20   2.0000      -0.987556       -26.8728 
  21   2.0000      -0.866121       -23.5683 
  22   2.0000      -0.854808       -23.2605 
  23   2.0000      -0.708482       -19.2788 
  24   2.0000      -0.699696       -19.0397 
  25   2.0000      -0.698865       -19.0171 
  26   2.0000      -0.682142       -18.5620 
  27   2.0000      -0.619006       -16.8440 
  28   2.0000      -0.603003       -16.4085 
  29   2.0000      -0.577019       -15.7015 
  30   2.0000      -0.572902       -15.5895 
  31   2.0000      -0.543534       -14.7903 
  32   2.0000      -0.538817       -14.6620 
  33   2.0000      -0.535934       -14.5835 
  34   2.0000      -0.533536       -14.5183 
  35   2.0000      -0.519900       -14.1472 
  36   2.0000      -0.506786       -13.7904 
  37   2.0000      -0.485307       -13.2059 
  38   2.0000      -0.454959       -12.3801 
  39   2.0000      -0.450503       -12.2588 
  40   2.0000      -0.420486       -11.4420 
  41   2.0000      -0.419332       -11.4106 
  42   2.0000      -0.418377       -11.3846 
  43   2.0000      -0.402260       -10.9461 
  44   2.0000      -0.390464       -10.6251 
  45   2.0000      -0.385461       -10.4889 
  46   2.0000      -0.380783       -10.3616 
  47   2.0000      -0.366021        -9.9599 
  48   2.0000      -0.347079        -9.4445 
  49   2.0000      -0.339876        -9.2485 
  50   2.0000      -0.336494        -9.1565 
  51   2.0000      -0.312915        -8.5148 
  52   2.0000      -0.303326        -8.2539 
  53   0.0000      -0.114479        -3.1151 
  54   0.0000       0.009681         0.2634 
  55   0.0000       0.011368         0.3093 
  56   0.0000       0.015552         0.4232 
  57   0.0000       0.036531         0.9941 
  58   0.0000       0.055299         1.5048 
  59   0.0000       0.061447         1.6720 
  60   0.0000       0.084639         2.3031 
  61   0.0000       0.095129         2.5886 
  62   0.0000       0.146622         3.9898 
  63   0.0000       0.174181         4.7397 
  64   0.0000       0.184909         5.0316 
  65   0.0000       0.188837         5.1385 
  66   0.0000       0.203814         5.5461 
  67   0.0000       0.209040         5.6883 
  68   0.0000       0.220064         5.9883 
  69   0.0000       0.231552         6.3009 
  70   0.0000       0.252511         6.8712 
  71   0.0000       0.273239         7.4352 
  72   0.0000       0.305689         8.3182 
  73   0.0000       0.307929         8.3792 
  74   0.0000       0.319077         8.6825 
  75   0.0000       0.331595         9.0232 
  76   0.0000       0.340238         9.2583 
  77   0.0000       0.347398         9.4532 
  78   0.0000       0.351376         9.5614 
  79   0.0000       0.376011        10.2318 
  80   0.0000       0.395669        10.7667 
  81   0.0000       0.414732        11.2854 
  82   0.0000       0.435701        11.8560 
  83   0.0000       0.448844        12.2137 
  84   0.0000       0.478311        13.0155 
  85   0.0000       0.498121        13.5546 
  86   0.0000       0.506977        13.7955 
  87   0.0000       0.533054        14.5051 
  88   0.0000       0.559224        15.2173 
  89   0.0000       0.570873        15.5343 
  90   0.0000       0.579593        15.7715 
  91   0.0000       0.588293        16.0083 
  92   0.0000       0.591595        16.0981 
  93   0.0000       0.603774        16.4295 
  94   0.0000       0.611442        16.6382 
  95   0.0000       0.622511        16.9394 
  96   0.0000       0.632898        17.2220 
  97   0.0000       0.644162        17.5285 
  98   0.0000       0.653768        17.7899 
  99   0.0000       0.658931        17.9304 
 100   0.0000       0.663352        18.0507 
 101   0.0000       0.677139        18.4259 
 102   0.0000       0.695046        18.9132 
 103   0.0000       0.725771        19.7492 
 104   0.0000       0.745026        20.2732 
 105   0.0000       0.768872        20.9221 
 106   0.0000       0.777145        21.1472 
 107   0.0000       0.787572        21.4309 
 108   0.0000       0.803570        21.8663 
 109   0.0000       0.818481        22.2720 
 110   0.0000       0.854571        23.2541 
 111   0.0000       0.892139        24.2763 
 112   0.0000       0.923187        25.1212 
 113   0.0000       0.936607        25.4864 
 114   0.0000       0.941654        25.6237 
 115   0.0000       0.947154        25.7734 
 116   0.0000       0.974641        26.5213 
 117   0.0000       0.975803        26.5530 
 118   0.0000       0.989351        26.9216 
 119   0.0000       1.013314        27.5737 
 120   0.0000       1.034064        28.1383 
 121   0.0000       1.046624        28.4801 
 122   0.0000       1.057788        28.7839 
 123   0.0000       1.060267        28.8513 
 124   0.0000       1.070996        29.1433 
 125   0.0000       1.091938        29.7131 
 126   0.0000       1.113856        30.3096 
 127   0.0000       1.133578        30.8462 
 128   0.0000       1.143016        31.1030 
 129   0.0000       1.149421        31.2773 
 130   0.0000       1.161236        31.5988 
 131   0.0000       1.169363        31.8200 
 132   0.0000       1.189406        32.3654 
 133   0.0000       1.219303        33.1789 
 134   0.0000       1.254730        34.1430 
 135   0.0000       1.269025        34.5319 
 136   0.0000       1.283344        34.9216 
 137   0.0000       1.304218        35.4896 
 138   0.0000       1.329444        36.1760 
 139   0.0000       1.352936        36.8152 
 140   0.0000       1.387159        37.7465 
 141   0.0000       1.420921        38.6652 
 142   0.0000       1.463246        39.8169 
 143   0.0000       1.475052        40.1382 
 144   0.0000       1.495706        40.7002 
 145   0.0000       1.530189        41.6386 
 146   0.0000       1.547312        42.1045 
 147   0.0000       1.550849        42.2007 
 148   0.0000       1.562304        42.5125 
 149   0.0000       1.570932        42.7472 
 150   0.0000       1.600674        43.5565 
 151   0.0000       1.628597        44.3164 
 152   0.0000       1.781991        48.4904 
 153   0.0000       1.789316        48.6898 
 154   0.0000       1.806164        49.1482 
 155   0.0000       1.823039        49.6074 
 156   0.0000       1.847063        50.2611 
 157   0.0000       1.855800        50.4989 
 158   0.0000       1.861180        50.6453 
 159   0.0000       1.866651        50.7942 
 160   0.0000       1.889200        51.4077 
 161   0.0000       1.907987        51.9190 
 162   0.0000       1.938755        52.7562 
 163   0.0000       1.953648        53.1615 
 164   0.0000       1.969629        53.5963 
 165   0.0000       1.987997        54.0961 
 166   0.0000       2.004313        54.5401 
 167   0.0000       2.021410        55.0054 
 168   0.0000       2.037003        55.4297 
 169   0.0000       2.054413        55.9034 
 170   0.0000       2.075442        56.4756 
 171   0.0000       2.086150        56.7670 
 172   0.0000       2.189458        59.5782 
 173   0.0000       2.197216        59.7893 
 174   0.0000       2.200401        59.8760 
 175   0.0000       2.240935        60.9789 
 176   0.0000       2.247136        61.1477 
 177   0.0000       2.249013        61.1987 
 178   0.0000       2.251349        61.2623 
 179   0.0000       2.273291        61.8594 
 180   0.0000       2.336169        63.5704 
 181   0.0000       2.375476        64.6400 
 182   0.0000       2.381359        64.8001 
 183   0.0000       2.405500        65.4570 
 184   0.0000       2.412988        65.6607 
 185   0.0000       2.422602        65.9223 
 186   0.0000       2.429986        66.1233 
 187   0.0000       2.438944        66.3670 
 188   0.0000       2.444942        66.5303 
 189   0.0000       2.470214        67.2180 
 190   0.0000       2.509351        68.2829 
 191   0.0000       2.532603        68.9156 
 192   0.0000       2.565250        69.8040 
 193   0.0000       2.601281        70.7845 
 194   0.0000       2.613855        71.1266 
 195   0.0000       2.620485        71.3070 
 196   0.0000       2.675651        72.8082 
 197   0.0000       2.700168        73.4753 
 198   0.0000       2.713549        73.8394 
 199   0.0000       2.715433        73.8907 
 200   0.0000       2.740295        74.5672 
 201   0.0000       2.782384        75.7125 
 202   0.0000       2.827965        76.9528 
 203   0.0000       2.884633        78.4949 
 204   0.0000       2.918809        79.4248 
 205   0.0000       2.926078        79.6226 
 206   0.0000       2.956804        80.4587 
 207   0.0000       2.958264        80.4985 
 208   0.0000       2.973109        80.9024 
 209   0.0000       3.000239        81.6407 
 210   0.0000       3.091820        84.1327 
 211   0.0000       3.108421        84.5844 
 212   0.0000       3.138362        85.3992 
 213   0.0000       3.528793        96.0233 
 214   0.0000      13.302572       361.9814 
 215   0.0000      13.662634       371.7792 
 216   0.0000      13.715244       373.2108 
 217   0.0000      13.858738       377.1154 
 218   0.0000      13.903365       378.3298 
 219   0.0000      14.185357       386.0032 
 220   0.0000      14.216872       386.8608 
 221   0.0000      14.614942       397.6928 
 222   0.0000      25.519853       694.4305 
 223   0.0000      25.601598       696.6549 
 224   0.0000      25.663535       698.3403 
 225   0.0000      25.785805       701.6674 
 226   0.0000      51.552327      1402.8101 

                    ********************************
                    * MULLIKEN POPULATION ANALYSIS *
                    ********************************

-----------------------
MULLIKEN ATOMIC CHARGES
-----------------------
   0 C :   -0.181012
   1 C :   -0.238922
   2 C :   -0.201212
   3 C :   -0.233105
   4 C :   -0.388572
   5 C :   -0.176172
   6 H :    0.245635
   7 H :    0.227267
   8 H :    0.222681
   9 H :    0.251719
  10 H :    0.226836
  11 Pd:    0.617835
  12 O :   -0.435065
  13 O :   -0.478002
  14 O :   -0.492734
  15 C :    0.360732
  16 O :   -0.444029
  17 H :    0.299820
  18 C :    0.416366
  19 H :    0.210325
  20 H :    0.189609
Sum of atomic charges:    0.0000000

--------------------------------
MULLIKEN REDUCED ORBITAL CHARGES
--------------------------------
  0 C s       :     3.237423  s :     3.237423
      pz      :     0.938242  p :     2.900485
      px      :     0.964323
      py      :     0.997919
      dz2     :     0.010068  d :     0.043105
      dxz     :     0.006426
      dyz     :     0.011192
      dx2y2   :     0.009356
      dxy     :     0.006063
  1 C s       :     3.237766  s :     3.237766
      pz      :     1.040129  p :     2.958519
      px      :     1.014602
      py      :     0.903788
      dz2     :     0.008080  d :     0.042638
      dxz     :     0.007502
      dyz     :     0.011011
      dx2y2   :     0.007742
      dxy     :     0.008302
  2 C s       :     3.240988  s :     3.240988
      pz      :     0.991011  p :     2.918897
      px      :     0.959375
      py      :     0.968511
      dz2     :     0.006714  d :     0.041327
      dxz     :     0.005647
      dyz     :     0.012100
      dx2y2   :     0.008723
      dxy     :     0.008144
  3 C s       :     3.238512  s :     3.238512
      pz      :     0.926276  p :     2.951806
      px      :     0.955961
      py      :     1.069569
      dz2     :     0.010304  d :     0.042787
      dxz     :     0.006459
      dyz     :     0.009037
      dx2y2   :     0.008339
      dxy     :     0.008647
  4 C s       :     3.260456  s :     3.260456
      pz      :     1.040116  p :     3.083613
      px      :     0.975287
      py      :     1.068210
      dz2     :     0.008009  d :     0.044503
      dxz     :     0.005538
      dyz     :     0.015600
      dx2y2   :     0.008294
      dxy     :     0.007062
  5 C s       :     3.231662  s :     3.231662
      pz      :     0.991816  p :     2.901227
      px      :     0.986283
      py      :     0.923129
      dz2     :     0.007037  d :     0.043283
      dxz     :     0.008286
      dyz     :     0.010664
      dx2y2   :     0.008695
      dxy     :     0.008601
  6 H s       :     0.754365  s :     0.754365
  7 H s       :     0.772733  s :     0.772733
  8 H s       :     0.777319  s :     0.777319
  9 H s       :     0.748281  s :     0.748281
 10 H s       :     0.773164  s :     0.773164
 11 Pds       :     2.409495  s :     2.409495
      pz      :     2.089442  p :     6.303275
      px      :     2.096217
      py      :     2.117616
      dz2     :     1.678735  d :     8.664354
      dxz     :     1.917337
      dyz     :     1.995596
      dx2y2   :     1.753846
      dxy     :     1.318839
      f0      :     0.000314  f :     0.005041
      f+1     :     0.000644
      f-1     :     0.000818
      f+2     :     0.000339
      f-2     :     0.000400
      f+3     :     0.001807
      f-3     :     0.000720
 12 O s       :     3.816343  s :     3.816343
      pz      :     1.607059  p :     4.588005
      px      :     1.603392
      py      :     1.377553
      dz2     :     0.004468  d :     0.030717
      dxz     :     0.002820
      dyz     :     0.008349
      dx2y2   :     0.008621
      dxy     :     0.006458
 13 O s       :     3.818765  s :     3.818765
      pz      :     1.489526  p :     4.627222
      px      :     1.505898
      py      :     1.631798
      dz2     :     0.008051  d :     0.032015
      dxz     :     0.005354
      dyz     :     0.006706
      dx2y2   :     0.004937
      dxy     :     0.006968
 14 O s       :     3.814489  s :     3.814489
      pz      :     1.419300  p :     4.647603
      px      :     1.623611
      py      :     1.604692
      dz2     :     0.010995  d :     0.030643
      dxz     :     0.007386
      dyz     :     0.006851
      dx2y2   :     0.002643
      dxy     :     0.002769
 15 C s       :     3.065384  s :     3.065384
      pz      :     0.784139  p :     2.438593
      px      :     0.806262
      py      :     0.848192
      dz2     :     0.047578  d :     0.135291
      dxz     :     0.031168
      dyz     :     0.033275
      dx2y2   :     0.007794
      dxy     :     0.015475
 16 O s       :     3.810299  s :     3.810299
      pz      :     1.560568  p :     4.605462
      px      :     1.555039
      py      :     1.489855
      dz2     :     0.006160  d :     0.028268
      dxz     :     0.006494
      dyz     :     0.008084
      dx2y2   :     0.004342
      dxy     :     0.003187
 17 H s       :     0.700180  s :     0.700180
 18 C s       :     3.054529  s :     3.054529
      pz      :     0.753960  p :     2.391677
      px      :     0.837236
      py      :     0.800481
      dz2     :     0.024490  d :     0.137427
      dxz     :     0.016171
      dyz     :     0.032540
      dx2y2   :     0.028455
      dxy     :     0.035772
 19 H s       :     0.789675  s :     0.789675
 20 H s       :     0.810391  s :     0.810391


                     *******************************
                     * LOEWDIN POPULATION ANALYSIS *
                     *******************************

----------------------
LOEWDIN ATOMIC CHARGES
----------------------
   0 C :   -0.119129
   1 C :   -0.120209
   2 C :   -0.123130
   3 C :   -0.117166
   4 C :   -0.130689
   5 C :   -0.112781
   6 H :    0.157023
   7 H :    0.135895
   8 H :    0.141071
   9 H :    0.159064
  10 H :    0.136676
  11 Pd:   -0.045307
  12 O :   -0.140041
  13 O :   -0.141797
  14 O :   -0.151535
  15 C :    0.132301
  16 O :   -0.228006
  17 H :    0.163695
  18 C :    0.167941
  19 H :    0.124191
  20 H :    0.111933

-------------------------------
LOEWDIN REDUCED ORBITAL CHARGES
-------------------------------
  0 C s       :     2.870342  s :     2.870342
      pz      :     1.069797  p :     3.148768
      px      :     0.998110
      py      :     1.080861
      dz2     :     0.024337  d :     0.100019
      dxz     :     0.016304
      dyz     :     0.027916
      dx2y2   :     0.018511
      dxy     :     0.012950
  1 C s       :     2.871158  s :     2.871158
      pz      :     1.056951  p :     3.150331
      px      :     0.999348
      py      :     1.094032
      dz2     :     0.018258  d :     0.098719
      dxz     :     0.013312
      dyz     :     0.027917
      dx2y2   :     0.020219
      dxy     :     0.019013
  2 C s       :     2.879617  s :     2.879617
      pz      :     1.048042  p :     3.148949
      px      :     1.019878
      py      :     1.081029
      dz2     :     0.015248  d :     0.094564
      dxz     :     0.012938
      dyz     :     0.027564
      dx2y2   :     0.019825
      dxy     :     0.018988
  3 C s       :     2.870525  s :     2.870525
      pz      :     1.053760  p :     3.147414
      px      :     1.012051
      py      :     1.081604
      dz2     :     0.023777  d :     0.099227
      dxz     :     0.016307
      dyz     :     0.023199
      dx2y2   :     0.017951
      dxy     :     0.017993
  4 C s       :     2.859913  s :     2.859913
      pz      :     1.073480  p :     3.167616
      px      :     1.004436
      py      :     1.089700
      dz2     :     0.018778  d :     0.103160
      dxz     :     0.013024
      dyz     :     0.035468
      dx2y2   :     0.018300
      dxy     :     0.017590
  5 C s       :     2.869559  s :     2.869559
      pz      :     1.047131  p :     3.142629
      px      :     1.005992
      py      :     1.089507
      dz2     :     0.015779  d :     0.100592
      dxz     :     0.014872
      dyz     :     0.027140
      dx2y2   :     0.022387
      dxy     :     0.020413
  6 H s       :     0.842977  s :     0.842977
  7 H s       :     0.864105  s :     0.864105
  8 H s       :     0.858929  s :     0.858929
  9 H s       :     0.840936  s :     0.840936
 10 H s       :     0.863324  s :     0.863324
 11 Pds       :     2.416168  s :     2.416168
      pz      :     2.149602  p :     6.608148
      px      :     2.213554
      py      :     2.244992
      dz2     :     1.749755  d :     9.014164
      dxz     :     1.969815
      dyz     :     2.026027
      dx2y2   :     1.826123
      dxy     :     1.442445
      f0      :     0.000371  f :     0.006825
      f+1     :     0.000904
      f-1     :     0.001179
      f+2     :     0.000455
      f-2     :     0.000443
      f+3     :     0.002598
      f-3     :     0.000874
 12 O s       :     3.484035  s :     3.484035
      pz      :     1.575902  p :     4.598183
      px      :     1.569283
      py      :     1.452998
      dz2     :     0.007879  d :     0.057823
      dxz     :     0.004696
      dyz     :     0.014475
      dx2y2   :     0.018171
      dxy     :     0.012602
 13 O s       :     3.459072  s :     3.459072
      pz      :     1.503985  p :     4.620769
      px      :     1.507989
      py      :     1.608795
      dz2     :     0.011914  d :     0.061956
      dxz     :     0.014269
      dyz     :     0.012881
      dx2y2   :     0.010201
      dxy     :     0.012691
 14 O s       :     3.453765  s :     3.453765
      pz      :     1.476724  p :     4.635581
      px      :     1.586883
      py      :     1.571974
      dz2     :     0.023604  d :     0.062189
      dxz     :     0.013818
      dyz     :     0.013584
      dx2y2   :     0.005731
      dxy     :     0.005451
 15 C s       :     2.861134  s :     2.861134
      pz      :     0.943919  p :     2.708131
      px      :     0.841883
      py      :     0.922329
      dz2     :     0.112501  d :     0.298434
      dxz     :     0.067073
      dyz     :     0.075608
      dx2y2   :     0.013844
      dxy     :     0.029407
 16 O s       :     3.519850  s :     3.519850
      pz      :     1.587692  p :     4.655257
      px      :     1.546688
      py      :     1.520877
      dz2     :     0.011375  d :     0.052899
      dxz     :     0.010141
      dyz     :     0.017527
      dx2y2   :     0.006578
      dxy     :     0.007278
 17 H s       :     0.836305  s :     0.836305
 18 C s       :     2.851377  s :     2.851377
      pz      :     0.828481  p :     2.679736
      px      :     0.913467
      py      :     0.937788
      dz2     :     0.051399  d :     0.300946
      dxz     :     0.035278
      dyz     :     0.074798
      dx2y2   :     0.063094
      dxy     :     0.076376
 19 H s       :     0.875809  s :     0.875809
 20 H s       :     0.888067  s :     0.888067


                      *****************************
                      * MAYER POPULATION ANALYSIS *
                      *****************************

  NA   - Mulliken gross atomic population
  ZA   - Total nuclear charge
  QA   - Mulliken gross atomic charge
  VA   - Mayer's total valence
  BVA  - Mayer's bonded valence
  FA   - Mayer's free valence

  ATOM       NA         ZA         QA         VA         BVA        FA
  0 C      6.1810     6.0000    -0.1810     3.7565     3.7565    -0.0000
  1 C      6.2389     6.0000    -0.2389     3.8383     3.8383    -0.0000
  2 C      6.2012     6.0000    -0.2012     3.8013     3.8013    -0.0000
  3 C      6.2331     6.0000    -0.2331     3.8362     3.8362     0.0000
  4 C      6.3886     6.0000    -0.3886     3.7781     3.7781    -0.0000
  5 C      6.1762     6.0000    -0.1762     3.7805     3.7805    -0.0000
  6 H      0.7544     1.0000     0.2456     0.9078     0.9078    -0.0000
  7 H      0.7727     1.0000     0.2273     0.9036     0.9036     0.0000
  8 H      0.7773     1.0000     0.2227     0.9107     0.9107    -0.0000
  9 H      0.7483     1.0000     0.2517     0.8996     0.8996    -0.0000
 10 H      0.7732     1.0000     0.2268     0.9036     0.9036     0.0000
 11 Pd    17.3822    18.0000     0.6178     2.2345     2.2345    -0.0000
 12 O      8.4351     8.0000    -0.4351     2.2141     2.2141    -0.0000
 13 O      8.4780     8.0000    -0.4780     2.1797     2.1797     0.0000
 14 O      8.4927     8.0000    -0.4927     2.1538     2.1538    -0.0000
 15 C      5.6393     6.0000     0.3607     3.9560     3.9560    -0.0000
 16 O      8.4440     8.0000    -0.4440     2.1553     2.1553     0.0000
 17 H      0.7002     1.0000     0.2998     0.8805     0.8805    -0.0000
 18 C      5.5836     6.0000     0.4164     3.8674     3.8674     0.0000
 19 H      0.7897     1.0000     0.2103     0.9090     0.9090    -0.0000
 20 H      0.8104     1.0000     0.1896     0.9152     0.9152     0.0000

  Mayer bond orders larger than 0.100000
B(  0-C ,  1-C ) :   1.4251 B(  0-C ,  4-C ) :   1.3832 B(  0-C ,  6-H ) :   0.9087 
B(  1-C ,  2-C ) :   1.4263 B(  1-C ,  7-H ) :   0.9163 B(  2-C ,  3-C ) :   1.4320 
B(  2-C ,  8-H ) :   0.9228 B(  3-C ,  5-C ) :   1.4192 B(  3-C , 10-H ) :   0.9162 
B(  4-C ,  5-C ) :   1.4088 B(  4-C , 17-H ) :   0.8462 B(  5-C ,  9-H ) :   0.9076 
B( 11-Pd, 12-O ) :   0.5073 B( 11-Pd, 13-O ) :   0.6020 B( 11-Pd, 14-O ) :   0.6504 
B( 11-Pd, 16-O ) :   0.2497 B( 12-O , 13-O ) :   0.1144 B( 12-O , 18-C ) :   1.5551 
B( 13-O , 18-C ) :   1.3960 B( 14-O , 15-C ) :   1.3176 B( 14-O , 16-O ) :   0.1069 
B( 15-C , 16-O ) :   1.7262 B( 15-C , 20-H ) :   0.8802 B( 18-C , 19-H ) :   0.8864 



------------------
HIRSHFELD ANALYSIS
------------------

Total integrated alpha density =     53.000121721
Total integrated beta density  =     53.000121721

  ATOM     CHARGE      SPIN    
   0 C   -0.038781    0.000000
   1 C   -0.038756    0.000000
   2 C   -0.032122    0.000000
   3 C   -0.035777    0.000000
   4 C   -0.060655    0.000000
   5 C   -0.033486    0.000000
   6 H    0.054565    0.000000
   7 H    0.040658    0.000000
   8 H    0.049124    0.000000
   9 H    0.059531    0.000000
  10 H    0.042227    0.000000
  11 Pd   0.688080    0.000000
  12 O   -0.291711    0.000000
  13 O   -0.299643    0.000000
  14 O   -0.305791    0.000000
  15 C    0.184588    0.000000
  16 O   -0.331511    0.000000
  17 H    0.015342    0.000000
  18 C    0.199041    0.000000
  19 H    0.074340    0.000000
  20 H    0.060494    0.000000

  TOTAL  -0.000243    0.000000

-------
TIMINGS
-------

Total SCF time: 0 days 0 hours 3 min 29 sec 

Total time                  ....     209.001 sec
Sum of individual times     ....     208.736 sec  ( 99.9%)

Fock matrix formation       ....     205.335 sec  ( 98.2%)
  Split-RI-J                ....      20.248 sec  (  9.9% of F)
  Chain of spheres X        ....     163.637 sec  ( 79.7% of F)
  XC integration            ....      21.405 sec  ( 10.4% of F)
    Basis function eval.    ....       8.633 sec  ( 40.3% of XC)
    Density eval.           ....       5.103 sec  ( 23.8% of XC)
    XC-Functional eval.     ....       1.938 sec  (  9.1% of XC)
    XC-Potential eval.      ....       5.082 sec  ( 23.7% of XC)
Diagonalization             ....       0.272 sec  (  0.1%)
Density matrix formation    ....       0.028 sec  (  0.0%)
Population analysis         ....       0.538 sec  (  0.3%)
Initial guess               ....       0.025 sec  (  0.0%)
Orbital Transformation      ....       0.000 sec  (  0.0%)
Orbital Orthonormalization  ....       0.000 sec  (  0.0%)
DIIS solution               ....       0.099 sec  (  0.0%)
Grid generation             ....       2.439 sec  (  1.2%)

Maximum memory used throughout the entire SCF-calculation: 111.4 MB


-------------------------------------------------------------------------------
                          DFT DISPERSION CORRECTION                            
                                                                               
                              DFTD3 V3.1  Rev 1                                
                          USING Becke-Johnson damping                          
-------------------------------------------------------------------------------
The PBEh-3c composite method is recognized
Using three-body term ABC
Active option DFTDOPT                   ...         4   

molecular C6(AA) [au] = 6866.750531 


            DFT-D V3
 parameters
 s6 scaling factor         :     1.0000 
 a1 scaling factor         :     0.4860 
 s8 scaling factor         :     0.0000 
 a2 scaling factor         :     4.5000 
 Damping factor alpha9(ATM):    16.0000 
 ad hoc parameters k1-k3   :    16.0000     1.3333    -4.0000 

 Edisp/kcal,au: -8.373257893666  -0.013343634394 
 E6   /kcal   :  -8.444980973 
 E8   /kcal   :  -0.000000000 
 E6(ABC)      :   0.071723079 
 % E8         :   0.000000000 
 % E6(ABC)    :  -0.856573152 

-------------------------   ----------------
Dispersion correction           -0.013343634
-------------------------   ----------------

 ** NOTE ** -> element pd will be treated as ni
------------------   -----------------
gCP correction             0.050964486
------------------   -----------------

-------------------------   --------------------
FINAL SINGLE POINT ENERGY      -737.104142971450
-------------------------   --------------------

------------------------------------------------------------------------------
                         ORCA SCF GRADIENT CALCULATION
------------------------------------------------------------------------------

 ... reading COSX grid (gridx3)
Gradient of the Kohn-Sham DFT energy:
Kohn-Sham wavefunction type      ... RKS
Hartree-Fock exchange scaling    ...    0.420
Number of operators              ...    1
Number of atoms                  ...   21
Basis set dimensions             ...  227
Integral neglect threshold       ... 2.5e-11
Integral primitive cutoff        ... 2.5e-12
SHARK Integral package           ... ON

Nuc. rep. gradient       (SHARK) ... done (  0.0 sec)
HCore & Overlap gradient (SHARK) ... done (  0.4 sec)
ECP gradient             (SHARK) ... done (  1.1 sec)
RI-J gradient            (SHARK) ... done (  2.8 sec)
COSX-gradient                    ... done ( 23.1 sec)
Exchange-correlation gradient    ... done
Dispersion correction            ... done
gCP correction                   ... done

------------------
CARTESIAN GRADIENT
------------------

   1   C   :   -0.003687374    0.003892157    0.014458212
   2   C   :    0.008949940    0.002242938    0.007979563
   3   C   :    0.002127360    0.011167333    0.012711258
   4   C   :    0.000281178    0.011962692   -0.003597164
   5   C   :   -0.018956650   -0.055756522   -0.050406119
   6   C   :   -0.006251272    0.007556133    0.008032300
   7   H   :    0.005378611    0.003950375   -0.004492151
   8   H   :    0.022582513   -0.000742207    0.034383576
   9   H   :   -0.002285082   -0.001549484    0.002481981
  10   H   :    0.006294116    0.001126374   -0.002201166
  11   H   :   -0.010591784    0.039310170    0.001891927
  12   Pd  :    0.004218238   -0.001100490   -0.003166079
  13   O   :    0.009552295    0.000570121    0.000198184
  14   O   :    0.001223357    0.000733305    0.001852420
  15   O   :   -0.001027834   -0.001695187   -0.001198491
  16   C   :    0.000528370    0.004918059   -0.019049653
  17   O   :    0.004950004   -0.015605727    0.023308030
  18   H   :   -0.003008899   -0.019508848   -0.020702618
  19   C   :   -0.010655013    0.000906864   -0.007960288
  20   H   :   -0.001498446    0.002718241    0.005605865
  21   H   :   -0.007830276    0.005266530   -0.000108577

Difference to translation invariance:
           :    0.0002933517    0.0003628245    0.0000210101

Difference to rotation invariance:
           :    0.0014970646    0.0003941994    0.0031290150

Norm of the cartesian gradient     ...    0.1137426532
RMS gradient                       ...    0.0143302273
MAX gradient                       ...    0.0557565221

-------
TIMINGS
-------

Total SCF gradient time            ...       32.313 sec

One electron gradient       ....       1.506 sec  (  4.7%)
RI-J Coulomb gradient       ....       2.756 sec  (  8.5%)
COSX gradient               ....      23.086 sec  ( 71.4%)
XC gradient                 ....       4.128 sec  ( 12.8%)

Maximum memory used throughout the entire SCFGRAD-calculation: 83.2 MB

                            ***************************************
                            *     ORCA property calculations      *
                            ***************************************

                                    ---------------------
                                    Active property flags
                                    ---------------------
   (+) Dipole Moment


------------------------------------------------------------------------------
                       ORCA ELECTRIC PROPERTIES CALCULATION
------------------------------------------------------------------------------

Dipole Moment Calculation                       ... on
Quadrupole Moment Calculation                   ... off
Polarizability Calculation                      ... off
GBWName                                         ... 4_11_orca.gbw
Electron density                                ... 4_11_orca.scfp
The origin for moment calculation is the CENTER OF MASS  = ( 1.410273,  1.148584  0.083997)

-------------
DIPOLE MOMENT
-------------
                                X             Y             Z
Electronic contribution:     55.22383      42.54799       0.15668
Nuclear contribution   :    -55.41777     -43.30777      -0.69996
                        -----------------------------------------
Total Dipole Moment    :     -0.19393      -0.75978      -0.54328
                        -----------------------------------------
Magnitude (a.u.)       :      0.95396
Magnitude (Debye)      :      2.42477



--------------------
Rotational spectrum 
--------------------
 
Rotational constants in cm-1:     0.029536     0.017430     0.013298 
Rotational constants in MHz :   885.472586   522.542850   398.659683 

 Dipole components along the rotational axes: 
x,y,z [a.u.] :    -0.674244    -0.630324    -0.241082 
x,y,z [Debye]:    -1.713793    -1.602157    -0.612781 

 

Timings for individual modules:

Sum of individual times         ...      241.908 sec (=   4.032 min)
GTO integral calculation        ...        0.552 sec (=   0.009 min)   0.2 %
SCF iterations                  ...      209.018 sec (=   3.484 min)  86.4 %
SCF Gradient evaluation         ...       32.339 sec (=   0.539 min)  13.4 %
                             ****ORCA TERMINATED NORMALLY****
TOTAL RUN TIME: 0 days 0 hours 4 minutes 2 seconds 183 msec
