
                                 *****************
                                 * O   R   C   A *
                                 *****************

                                            #,                                       
                                            ###                                      
                                            ####                                     
                                            #####                                    
                                            ######                                   
                                           ########,                                 
                                     ,,################,,,,,                         
                               ,,#################################,,                 
                          ,,##########################################,,             
                       ,#########################################, ''#####,          
                    ,#############################################,,   '####,        
                  ,##################################################,,,,####,       
                ,###########''''           ''''###############################       
              ,#####''   ,,,,##########,,,,          '''####'''          '####       
            ,##' ,,,,###########################,,,                        '##       
           ' ,,###''''                  '''############,,,                           
         ,,##''                                '''############,,,,        ,,,,,,###''
      ,#''                                            '''#######################'''  
     '                                                          ''''####''''         
             ,#######,   #######,   ,#######,      ##                                
            ,#'     '#,  ##    ##  ,#'     '#,    #''#        ######   ,####,        
            ##       ##  ##   ,#'  ##            #'  '#       #        #'  '#        
            ##       ##  #######   ##           ,######,      #####,   #    #        
            '#,     ,#'  ##    ##  '#,     ,#' ,#      #,         ##   #,  ,#        
             '#######'   ##     ##  '#######'  #'      '#     #####' # '####'        



                  #######################################################
                  #                        -***-                        #
                  #          Department of theory and spectroscopy      #
                  #    Directorship and core code : Frank Neese         #
                  #        Max Planck Institute fuer Kohlenforschung    #
                  #                Kaiser Wilhelm Platz 1               #
                  #                 D-45470 Muelheim/Ruhr               #
                  #                      Germany                        #
                  #                                                     #
                  #                  All rights reserved                #
                  #                        -***-                        #
                  #######################################################


                         Program Version 5.0.4 -  RELEASE  -


 With contributions from (in alphabetic order):
   Daniel Aravena         : Magnetic Suceptibility
   Michael Atanasov       : Ab Initio Ligand Field Theory (pilot matlab implementation)
   Alexander A. Auer      : GIAO ZORA, VPT2 properties, NMR spectrum
   Ute Becker             : Parallelization
   Giovanni Bistoni       : ED, misc. LED, open-shell LED, HFLD
   Martin Brehm           : Molecular dynamics
   Dmytro Bykov           : SCF Hessian
   Vijay G. Chilkuri      : MRCI spin determinant printing, contributions to CSF-ICE
   Dipayan Datta          : RHF DLPNO-CCSD density
   Achintya Kumar Dutta   : EOM-CC, STEOM-CC
   Dmitry Ganyushin       : Spin-Orbit,Spin-Spin,Magnetic field MRCI
   Miquel Garcia          : C-PCM and meta-GGA Hessian, CC/C-PCM, Gaussian charge scheme
   Yang Guo               : DLPNO-NEVPT2, F12-NEVPT2, CIM, IAO-localization
   Andreas Hansen         : Spin unrestricted coupled pair/coupled cluster methods
   Benjamin Helmich-Paris : MC-RPA, TRAH-SCF, COSX integrals
   Lee Huntington         : MR-EOM, pCC
   Robert Izsak           : Overlap fitted RIJCOSX, COSX-SCS-MP3, EOM
   Marcus Kettner         : VPT2
   Christian Kollmar      : KDIIS, OOCD, Brueckner-CCSD(T), CCSD density, CASPT2, CASPT2-K
   Simone Kossmann        : Meta GGA functionals, TD-DFT gradient, OOMP2, MP2 Hessian
   Martin Krupicka        : Initial AUTO-CI
   Lucas Lang             : DCDCAS
   Marvin Lechner         : AUTO-CI (C++ implementation), FIC-MRCC
   Dagmar Lenk            : GEPOL surface, SMD
   Dimitrios Liakos       : Extrapolation schemes; Compound Job, initial MDCI parallelization
   Dimitrios Manganas     : Further ROCIS development; embedding schemes
   Dimitrios Pantazis     : SARC Basis sets
   Anastasios Papadopoulos: AUTO-CI, single reference methods and gradients
   Taras Petrenko         : DFT Hessian,TD-DFT gradient, ASA, ECA, R-Raman, ABS, FL, XAS/XES, NRVS
   Peter Pinski           : DLPNO-MP2, DLPNO-MP2 Gradient
   Christoph Reimann      : Effective Core Potentials
   Marius Retegan         : Local ZFS, SOC
   Christoph Riplinger    : Optimizer, TS searches, QM/MM, DLPNO-CCSD(T), (RO)-DLPNO pert. Triples
   Tobias Risthaus        : Range-separated hybrids, TD-DFT gradient, RPA, STAB
   Michael Roemelt        : Original ROCIS implementation
   Masaaki Saitow         : Open-shell DLPNO-CCSD energy and density
   Barbara Sandhoefer     : DKH picture change effects
   Avijit Sen             : IP-ROCIS
   Kantharuban Sivalingam : CASSCF convergence, NEVPT2, FIC-MRCI
   Bernardo de Souza      : ESD, SOC TD-DFT
   Georgi Stoychev        : AutoAux, RI-MP2 NMR, DLPNO-MP2 response
   Willem Van den Heuvel  : Paramagnetic NMR
   Boris Wezisla          : Elementary symmetry handling
   Frank Wennmohs         : Technical directorship


 We gratefully acknowledge several colleagues who have allowed us to
 interface, adapt or use parts of their codes:
   Stefan Grimme, W. Hujo, H. Kruse, P. Pracht,  : VdW corrections, initial TS optimization,
                  C. Bannwarth, S. Ehlert          DFT functionals, gCP, sTDA/sTD-DF
   Ed Valeev, F. Pavosevic, A. Kumar             : LibInt (2-el integral package), F12 methods
   Garnet Chan, S. Sharma, J. Yang, R. Olivares  : DMRG
   Ulf Ekstrom                                   : XCFun DFT Library
   Mihaly Kallay                                 : mrcc  (arbitrary order and MRCC methods)
   Jiri Pittner, Ondrej Demel                    : Mk-CCSD
   Frank Weinhold                                : gennbo (NPA and NBO analysis)
   Christopher J. Cramer and Donald G. Truhlar   : smd solvation model
   Lars Goerigk                                  : TD-DFT with DH, B97 family of functionals
   V. Asgeirsson, H. Jonsson                     : NEB implementation
   FAccTs GmbH                                   : IRC, NEB, NEB-TS, DLPNO-Multilevel, CI-OPT
                                                   MM, QMMM, 2- and 3-layer-ONIOM, Crystal-QMMM,
                                                   LR-CPCM, SF, NACMEs, symmetry and pop. for TD-DFT,
                                                   nearIR, NL-DFT gradient (VV10), updates on ESD,
                                                   ML-optimized integration grids
   S Lehtola, MJT Oliveira, MAL Marques          : LibXC Library
   Liviu Ungur et al                             : ANISO software


 Your calculation uses the libint2 library for the computation of 2-el integrals
 For citations please refer to: http://libint.valeyev.net

 Your ORCA version has been built with support for libXC version: 5.1.0
 For citations please refer to: https://tddft.org/programs/libxc/

 This ORCA versions uses:
   CBLAS   interface :  Fast vector & matrix operations
   LAPACKE interface :  Fast linear algebra routines
   SCALAPACK package :  Parallel linear algebra routines
   Shared memory     :  Shared parallel matrices
   BLAS/LAPACK       :  OpenBLAS 0.3.15  USE64BITINT DYNAMIC_ARCH NO_AFFINITY SkylakeX SINGLE_THREADED
        Core in use  :  SkylakeX
   Copyright (c) 2011-2014, The OpenBLAS Project




***************************************
The coordinates will be read from file: reaction-1-prod-xtb.xyz
***************************************


Your calculation utilizes the geometrical counterpoise correction gCP
Please cite in your paper:
H.Kruse, S. Grimme J.Chem.Phys., 136, (2012), 154101 
   

Your calculation utilizes the atom-pairwise dispersion correction
with the Becke-Johnson damping scheme (D3BJ)
Cite in your paper:
S.Grimme, S.Ehrlich, L.Goerigk, J Comput Chem, (2011), 32, 1456–1465 
S.Grimme, J.Antony, S.Ehrlich and H.Krieg, J.Chem.Phys., 132, (2010), 154104 
   

Your calculation employs the composite approach PBEh-3c.
Please cite in your paper:
S. Grimme, J. G. Brandenburg, C. Bannwarth, A. Hansen J.Chem.Phys., 143, (2015), 054107 
   

================================================================================

cite the ECPs for Pd [Def2-ECP] as follows:
Ce-Yb(ecp-28): M. Dolg, H. Stoll, H.Preuss, J. Chem. Phys., 1989, 90, 1730-1734.
Y-Cd(ecp-28), Hf-Hg(ecp-46): D. Andrae,U. Haeussermann, M. Dolg, H. Stoll, H. Preuss, Theor. Chim. Acta, 1990, 77, 123-141.
In-Sb(ecp-28), Tl-Bi(ecp-46): B. Metz, H. Stoll, M. Dolg, J. Chem. Phys., 2000, 113, 2563-2569.
Te-Xe(ecp-28), Po-Rn(ecp-46): K. A. Peterson, D. Figgen, E. Goll, H. Stoll, M. Dolg, J. Chem. Phys., 2003, 119, 11113-11123.
Rb(ecp-28), Cs(ecp-46): T. Leininger, A. Nicklass, W. Kuechle, H. Stoll, M. Dolg, A. Bergner, Chem. Phys. Lett., 1996, 255, 274-280.
Sr(ecp-28), Ba(ecp-46): M. Kaupp, P. V. Schleyer, H. Stoll and H. Preuss, J. Chem. Phys., 1991, 94, 1360-1366.
La(ecp-46): M. Dolg, H. Stoll, A. Savin, H. Preuss, Theor. Chim. Acta, 1989, 75, 173-194.
Lu(ecp-28): X. Cao, M. Dolg, J. Chem. Phys., 2001, 115, 7348-7355.

ECP parameters for Pd [Def2-ECP] have been obtained from:
TURBOMOLE (7.0.2)

----- Orbital basis set information -----
Your calculation utilizes the basis: def2-mSVP

----- AuxJ basis set information -----
Your calculation utilizes the auxiliary basis: def2/J
   F. Weigend, Phys. Chem. Chem. Phys. 8, 1057 (2006).

================================================================================
                                        WARNINGS
                       Please study these warnings very carefully!
================================================================================


WARNING: Geometry Optimization
  ===> : Switching off AutoStart
         For restart on a previous wavefunction, please use MOREAD

INFO   : the flag for use of the SHARK integral package has been found!

================================================================================
                                       INPUT FILE
================================================================================
NAME = reaction-1-prod-pbeh3c-orca_opt.inp
|  1> ! PBEh-3c OPT pal4
|  2> 
|  3> %geom
|  4>  maxiter 600
|  5> end 
|  6> 
|  7> *xyzfile 0 1 reaction-1-prod-xtb.xyz
|  8> 
|  9>                          ****END OF INPUT****
================================================================================

                       *****************************
                       * Geometry Optimization Run *
                       *****************************

Geometry optimization settings:
Update method            Update   .... BFGS
Choice of coordinates    CoordSys .... Z-matrix Internals
Initial Hessian          InHess   .... Almoef's Model

Convergence Tolerances:
Energy Change            TolE     ....  5.0000e-06 Eh
Max. Gradient            TolMAXG  ....  3.0000e-04 Eh/bohr
RMS Gradient             TolRMSG  ....  1.0000e-04 Eh/bohr
Max. Displacement        TolMAXD  ....  4.0000e-03 bohr
RMS Displacement         TolRMSD  ....  2.0000e-03 bohr
Strict Convergence                ....  False
------------------------------------------------------------------------------
                        ORCA OPTIMIZATION COORDINATE SETUP
------------------------------------------------------------------------------

The optimization will be done in new redundant internal coordinates
Making redundant internal coordinates   ...  (new redundants) done
Evaluating the initial hessian          ...  (Almloef) done
Evaluating the coordinates              ...  done
Calculating the B-matrix                .... done
Calculating the G-matrix                .... done
Diagonalizing the G-matrix              .... done
The first mode is                       ....  284
The number of degrees of freedom        ....  108

    -----------------------------------------------------------------
                    Redundant Internal Coordinates


    -----------------------------------------------------------------
         Definition                    Initial Value    Approx d2E/dq
    -----------------------------------------------------------------
      1. B(O   1,Pd  0)                  2.1101         0.401948   
      2. B(C   2,Pd  0)                  2.6326         0.065817   
      3. B(C   2,O   1)                  1.2088         1.088710   
      4. B(O   3,Pd  0)                  2.6855         0.048549   
      5. B(O   3,C   2)                  1.3453         0.659384   
      6. B(C   4,C   2)                  1.5020         0.414070   
      7. B(H   5,C   4)                  1.0893         0.361092   
      8. B(H   6,C   4)                  1.0891         0.361287   
      9. B(H   7,C   4)                  1.0862         0.365192   
     10. B(N   8,Pd  0)                  2.0228         0.553898   
     11. B(C   9,N   8)                  1.4656         0.423829   
     12. B(C   9,Pd  0)                  2.8078         0.034584   
     13. B(H  10,C   9)                  1.0930         0.356164   
     14. B(H  11,C   9)                  1.0985         0.349072   
     15. B(H  12,C   9)                  1.0918         0.357767   
     16. B(C  13,N   8)                  1.4585         0.435026   
     17. B(H  14,C  13)                  1.0930         0.356216   
     18. B(H  15,C  13)                  1.0987         0.348826   
     19. B(H  16,C  13)                  1.0909         0.358928   
     20. B(C  18,C  17)                  1.3850         0.636305   
     21. B(C  19,C  18)                  1.3858         0.634487   
     22. B(C  20,C  19)                  1.3837         0.639374   
     23. B(C  21,C  20)                  1.3890         0.627075   
     24. B(C  22,C  21)                  1.3869         0.631932   
     25. B(C  22,C  17)                  1.4002         0.601761   
     26. B(C  22,Pd  0)                  1.9869         0.705570   
     27. B(H  23,C  20)                  1.0810         0.372141   
     28. B(H  24,C  21)                  1.0838         0.368345   
     29. B(H  25,C  18)                  1.0818         0.371126   
     30. B(H  26,C  19)                  1.0804         0.373049   
     31. B(H  27,O   3)                  0.9668         0.507112   
     32. B(C  28,C  17)                  1.5060         0.408016   
     33. B(C  28,N   8)                  1.4756         0.408584   
     34. B(H  29,C  28)                  1.0970         0.350920   
     35. B(H  30,C  28)                  1.1003         0.346790   
     36. B(O  31,Pd  0)                  2.3700         0.154707   
     37. B(C  32,O  31)                  1.2644         0.887530   
     38. B(C  32,Pd  0)                  2.7838         0.037766   
     39. B(O  33,C  32)                  1.2412         0.966653   
     40. B(O  33,Pd  0)                  2.5520         0.079263   
     41. B(C  34,C  32)                  1.5286         0.375532   
     42. B(H  35,C  34)                  1.0862         0.365119   
     43. B(H  36,C  34)                  1.0886         0.361906   
     44. B(H  37,C  34)                  1.0872         0.363840   
     45. A(O   1,Pd  0,C   9)          147.9609         0.304850   
     46. A(C  22,Pd  0,O  33)          137.0228         0.384793   
     47. A(C   2,Pd  0,O  33)           88.6923         0.261908   
     48. A(N   8,Pd  0,C  32)          100.3989         0.325769   
     49. A(C   9,Pd  0,O  33)           73.5600         0.238473   
     50. A(O   1,Pd  0,O  31)           77.5358         0.390214   
     51. A(O   3,Pd  0,C   9)          156.7015         0.222776   
     52. A(O   1,Pd  0,C  22)          100.0350         0.516148   
     53. A(O   1,Pd  0,C   2)           26.7410         0.338692   
     54. A(N   8,Pd  0,O  33)           93.2958         0.367393   
     55. A(O   3,Pd  0,O  31)           64.0747         0.275681   
     56. A(C   2,Pd  0,C  22)          113.6892         0.374269   
     57. A(O   3,Pd  0,C  22)          106.3261         0.353730   
     58. A(C   2,Pd  0,C  32)           70.9769         0.236055   
     59. A(C   2,Pd  0,O   3)           29.2854         0.243750   
     60. A(C   9,Pd  0,C  22)           82.5797         0.335605   
     61. A(C  22,Pd  0,C  32)          162.7437         0.340567   
     62. A(O   3,Pd  0,N   8)          128.1921         0.338157   
     63. A(O   1,Pd  0,C  32)           76.9177         0.309194   
     64. A(O   1,Pd  0,O   3)           53.1480         0.320715   
     65. A(C   2,Pd  0,C   9)          161.9268         0.233154   
     66. A(N   8,Pd  0,C   9)           30.1013         0.321098   
     67. A(C  32,Pd  0,O  33)           26.4457         0.241481   
     68. A(C   2,Pd  0,N   8)          153.4889         0.357488   
     69. A(O   1,Pd  0,O  33)           83.7759         0.347904   
     70. A(C   2,Pd  0,O  31)           60.1374         0.290165   
     71. A(C   9,Pd  0,C  32)           91.1703         0.216124   
     72. A(N   8,Pd  0,C  22)           82.1764         0.548302   
     73. A(C   9,Pd  0,O  31)          104.8871         0.262900   
     74. A(O   3,Pd  0,C  32)           85.6362         0.225468   
     75. A(O  31,Pd  0,C  32)           26.8982         0.266399   
     76. A(O   3,Pd  0,O  33)          109.6680         0.249459   
     77. A(C  22,Pd  0,O  31)          169.6635         0.433132   
     78. A(N   8,Pd  0,O  31)          100.6266         0.412889   
     79. A(O  31,Pd  0,O  33)           53.0918         0.297586   
     80. A(Pd  0,O   1,C   2)          101.4994         0.493642   
     81. A(O   1,C   2,O   3)          119.3839         0.479952   
     82. A(Pd  0,C   2,O   1)           51.7596         0.359238   
     83. A(O   3,C   2,C   4)          116.3277         0.405728   
     84. A(Pd  0,C   2,O   3)           77.5348         0.330244   
     85. A(O   1,C   2,C   4)          124.0447         0.443795   
     86. A(Pd  0,C   2,C   4)          151.8141         0.307933   
     87. A(C   2,O   3,H  27)          112.8744         0.372453   
     88. A(Pd  0,O   3,C   2)           73.1797         0.312875   
     89. A(Pd  0,O   3,H  27)          139.6856         0.270825   
     90. A(H   5,C   4,H   6)          109.0551         0.291116   
     91. A(C   2,C   4,H   7)          109.6604         0.330631   
     92. A(C   2,C   4,H   6)          109.0013         0.330044   
     93. A(C   2,C   4,H   5)          110.3256         0.330015   
     94. A(H   6,C   4,H   7)          108.9728         0.291633   
     95. A(H   5,C   4,H   7)          109.7991         0.291608   
     96. A(Pd  0,N   8,C   9)          106.0958         0.440444   
     97. A(C   9,N   8,C  13)          109.8312         0.376413   
     98. A(Pd  0,N   8,C  13)          110.9257         0.442524   
     99. A(C  13,N   8,C  28)          111.1078         0.374040   
    100. A(C   9,N   8,C  28)          109.8373         0.372362   
    101. A(Pd  0,N   8,C  28)          108.9149         0.437542   
    102. A(Pd  0,C   9,H  12)           88.1048         0.247362   
    103. A(H  10,C   9,H  11)          109.6562         0.288926   
    104. A(N   8,C   9,H  11)          110.5330         0.327461   
    105. A(Pd  0,C   9,H  11)          153.9263         0.246483   
    106. A(N   8,C   9,H  10)          109.3234         0.328549   
    107. A(Pd  0,C   9,N   8)           43.8029         0.277695   
    108. A(Pd  0,C   9,H  10)           81.4333         0.247202   
    109. A(H  11,C   9,H  12)          109.2647         0.289129   
    110. A(H  10,C   9,H  12)          108.5754         0.290042   
    111. A(N   8,C   9,H  12)          109.4569         0.328792   
    112. A(H  15,C  13,H  16)          108.8704         0.289244   
    113. A(H  14,C  13,H  16)          108.4293         0.290196   
    114. A(N   8,C  13,H  16)          109.3765         0.330389   
    115. A(H  14,C  13,H  15)          109.2960         0.288900   
    116. A(N   8,C  13,H  15)          111.0651         0.328834   
    117. A(N   8,C  13,H  14)          109.7549         0.329975   
    118. A(C  18,C  17,C  22)          121.0038         0.433761   
    119. A(C  22,C  17,C  28)          115.0698         0.400773   
    120. A(C  18,C  17,C  28)          123.9231         0.404737   
    121. A(C  19,C  18,H  25)          120.2592         0.356109   
    122. A(C  17,C  18,H  25)          120.1617         0.356282   
    123. A(C  17,C  18,C  19)          119.5791         0.437919   
    124. A(C  20,C  19,H  26)          120.1570         0.356887   
    125. A(C  18,C  19,H  26)          119.8846         0.356422   
    126. A(C  18,C  19,C  20)          119.9577         0.438299   
    127. A(C  21,C  20,H  23)          119.7738         0.355565   
    128. A(C  19,C  20,H  23)          119.7800         0.356739   
    129. A(C  19,C  20,C  21)          120.4460         0.437371   
    130. A(C  22,C  21,H  24)          120.0882         0.355412   
    131. A(C  20,C  21,H  24)          119.5917         0.354947   
    132. A(C  20,C  21,C  22)          120.3201         0.436449   
    133. A(C  17,C  22,C  21)          118.6875         0.433224   
    134. A(Pd  0,C  22,C  21)          127.8806         0.501134   
    135. A(Pd  0,C  22,C  17)          113.3483         0.496596   
    136. A(H  29,C  28,H  30)          108.2017         0.287960   
    137. A(C  17,C  28,H  30)          112.6028         0.327025   
    138. A(N   8,C  28,H  30)          110.4402         0.325141   
    139. A(C  17,C  28,H  29)          109.0739         0.327664   
    140. A(N   8,C  28,H  29)          108.3722         0.325775   
    141. A(N   8,C  28,C  17)          108.0629         0.372265   
    142. A(Pd  0,O  31,C  32)           95.1122         0.400269   
    143. A(O  33,C  32,C  34)          119.2285         0.426820   
    144. A(O  31,C  32,C  34)          117.4164         0.420353   
    145. A(Pd  0,C  32,C  34)          168.8234         0.277846   
    146. A(O  31,C  32,O  33)          123.3550         0.496045   
    147. A(Pd  0,C  32,O  33)           66.3021         0.320984   
    148. A(Pd  0,C  32,O  31)           57.9896         0.316544   
    149. A(Pd  0,O  33,C  32)           87.2522         0.361768   
    150. A(H  36,C  34,H  37)          109.2980         0.291541   
    151. A(H  35,C  34,H  37)          110.3704         0.291947   
    152. A(C  32,C  34,H  37)          110.4366         0.325149   
    153. A(H  35,C  34,H  36)          108.2431         0.291702   
    154. A(C  32,C  34,H  36)          108.8454         0.324864   
    155. A(C  32,C  34,H  35)          109.6002         0.325336   
    156. D(C   2,O   1,Pd  0,C   9)    144.2133         0.002454   
    157. D(C   2,O   1,Pd  0,O  33)     99.5225         0.002454   
    158. D(C   2,O   1,Pd  0,C  22)   -123.7503         0.002454   
    159. D(C   2,O   1,Pd  0,C  32)     73.5914         0.002454   
    160. D(C   2,O   1,Pd  0,O   3)    -20.7989         0.002454   
    161. D(C   2,O   1,Pd  0,O  31)     46.0045         0.002454   
    162. D(O   1,C   2,Pd  0,O   3)    144.4884         0.001529   
    163. D(C   4,C   2,Pd  0,C  32)     -6.5487         0.001529   
    164. D(C   4,C   2,Pd  0,C  22)    155.5960         0.001529   
    165. D(O   1,C   2,Pd  0,O  31)   -125.9053         0.001529   
    166. D(O   1,C   2,Pd  0,C   9)    -89.4659         0.001529   
    167. D(O   3,C   2,Pd  0,O   1)   -144.4884         0.001529   
    168. D(O   3,C   2,Pd  0,N   8)     42.0327         0.001529   
    169. D(O   1,C   2,Pd  0,C  22)     63.3910         0.001529   
    170. D(O   1,C   2,Pd  0,N   8)   -173.4790         0.001529   
    171. D(C   4,C   2,O   1,Pd  0)   -145.2766         0.110525   
    172. D(O   1,C   2,Pd  0,O  33)    -78.7141         0.001529   
    173. D(O   3,C   2,Pd  0,C   9)    126.0457         0.001529   
    174. D(C   4,C   2,Pd  0,C   9)      2.7392         0.001529   
    175. D(O   3,C   2,Pd  0,O  31)     89.6063         0.001529   
    176. D(O   3,C   2,Pd  0,O  33)    136.7975         0.001529   
    177. D(C   4,C   2,Pd  0,O   3)   -123.3065         0.001529   
    178. D(O   3,C   2,Pd  0,C  22)    -81.0974         0.001529   
    179. D(O   1,C   2,Pd  0,C  32)    -98.7538         0.001529   
    180. D(C   4,C   2,Pd  0,O  31)    -33.7002         0.001529   
    181. D(C   4,C   2,Pd  0,N   8)    -81.2739         0.001529   
    182. D(C   4,C   2,Pd  0,O  33)     13.4910         0.001529   
    183. D(O   3,C   2,Pd  0,C  32)    116.7578         0.001529   
    184. D(O   3,C   2,O   1,Pd  0)     40.6106         0.110525   
    185. D(C   4,C   2,Pd  0,O   1)     92.2051         0.001529   
    186. D(H  27,O   3,Pd  0,O  31)     31.1157         0.001517   
    187. D(H  27,O   3,Pd  0,O  33)     59.1273         0.001517   
    188. D(H  27,O   3,C   2,C   4)     16.3886         0.038702   
    189. D(H  27,O   3,C   2,O   1)   -169.0527         0.038702   
    190. D(H  27,O   3,C   2,Pd  0)   -137.4797         0.038702   
    191. D(Pd  0,O   3,C   2,O   1)    -31.5730         0.038702   
    192. D(Pd  0,O   3,C   2,C   4)    153.8683         0.038702   
    193. D(H  27,O   3,Pd  0,C  32)     47.9019         0.001517   
    194. D(H  27,O   3,Pd  0,C   2)    105.7464         0.001517   
    195. D(H  27,O   3,Pd  0,N   8)    -51.9032         0.001517   
    196. D(H  27,O   3,Pd  0,C  22)   -144.7670         0.001517   
    197. D(H  27,O   3,Pd  0,O   1)    124.8108         0.001517   
    198. D(H  27,O   3,Pd  0,C   9)    -34.8934         0.001517   
    199. D(C   2,O   3,Pd  0,O  31)    -74.6307         0.001517   
    200. D(C   2,O   3,Pd  0,O  33)    -46.6191         0.001517   
    201. D(C   2,O   3,Pd  0,C  22)    109.4866         0.001517   
    202. D(C   2,O   3,Pd  0,O   1)     19.0644         0.001517   
    203. D(C   2,O   3,Pd  0,C  32)    -57.8445         0.001517   
    204. D(C   2,O   3,Pd  0,N   8)   -157.6496         0.001517   
    205. D(C   2,O   3,Pd  0,C   9)   -140.6398         0.001517   
    206. D(H   6,C   4,C   2,O   3)    -68.2290         0.013575   
    207. D(H   6,C   4,C   2,Pd  0)     46.1984         0.013575   
    208. D(H   5,C   4,C   2,O   3)     51.4919         0.013575   
    209. D(H   7,C   4,C   2,Pd  0)    -73.0220         0.013575   
    210. D(H   5,C   4,C   2,Pd  0)    165.9192         0.013575   
    211. D(H   7,C   4,C   2,O   1)     -1.7264         0.013575   
    212. D(H   7,C   4,C   2,O   3)    172.5507         0.013575   
    213. D(H   5,C   4,C   2,O   1)   -122.7852         0.013575   
    214. D(H   6,C   4,C   2,O   1)    117.4940         0.013575   
    215. D(C   9,N   8,Pd  0,O  31)    101.3936         0.003489   
    216. D(C   9,N   8,Pd  0,C  22)    -88.6874         0.003489   
    217. D(C   9,N   8,Pd  0,C   2)    142.0337         0.003489   
    218. D(C  28,N   8,Pd  0,O  33)    166.5305         0.003489   
    219. D(C  13,N   8,O   1,C   2)     28.8645         0.001500   
    220. D(C   9,N   8,O   1,C   2)    147.2509         0.001500   
    221. D(C   9,N   8,Pd  0,O   3)    166.6616         0.003489   
    222. D(C  28,N   8,Pd  0,C  32)   -167.7922         0.003489   
    223. D(C  28,N   8,Pd  0,O  31)   -140.4269         0.003489   
    224. D(C  28,N   8,Pd  0,C  22)     29.4921         0.003489   
    225. D(C  28,N   8,Pd  0,C   9)    118.1795         0.003489   
    226. D(C  28,N   8,Pd  0,O   3)    -75.1590         0.003489   
    227. D(C  28,N   8,O   1,C   2)    -94.3536         0.001500   
    228. D(C  28,N   8,Pd  0,C   2)    -99.7868         0.003489   
    229. D(C  13,N   8,Pd  0,O  33)    -70.8819         0.003489   
    230. D(C  13,N   8,Pd  0,C  32)    -45.2046         0.003489   
    231. D(C  13,N   8,Pd  0,O  31)    -17.8393         0.003489   
    232. D(C  13,N   8,Pd  0,C  22)    152.0797         0.003489   
    233. D(C  13,N   8,Pd  0,C   9)   -119.2329         0.003489   
    234. D(C  13,N   8,Pd  0,O   3)     47.4287         0.003489   
    235. D(C  13,N   8,Pd  0,C   2)     22.8008         0.003489   
    236. D(C   9,N   8,Pd  0,O  33)     48.3510         0.003489   
    237. D(C   9,N   8,Pd  0,C  32)     74.0283         0.003489   
    238. D(H  12,C   9,N   8,C  28)    -52.3391         0.017443   
    239. D(H  12,C   9,N   8,Pd  0)     65.2270         0.017443   
    240. D(H  11,C   9,N   8,C  28)     68.0567         0.017443   
    241. D(H  11,C   9,N   8,C  13)    -54.4283         0.017443   
    242. D(H  11,C   9,N   8,Pd  0)   -174.3772         0.017443   
    243. D(H  10,C   9,N   8,Pd  0)    -53.5820         0.017443   
    244. D(H  10,C   9,N   8,C  28)   -171.1481         0.017443   
    245. D(Pd  0,C   9,N   8,C  28)   -117.5661         0.017443   
    246. D(Pd  0,C   9,N   8,C  13)    119.9489         0.017443   
    247. D(H  12,C   9,Pd  0,O  33)    109.9949         0.001509   
    248. D(H  12,C   9,Pd  0,C  32)    129.9863         0.001509   
    249. D(H  12,C   9,Pd  0,C  22)    -33.8753         0.001509   
    250. D(H  12,C   9,Pd  0,O   3)   -148.3499         0.001509   
    251. D(H  11,C   9,Pd  0,O  31)    -73.4705         0.001509   
    252. D(H  11,C   9,Pd  0,C  32)    -96.9002         0.001509   
    253. D(H  12,C   9,Pd  0,N   8)   -121.0640         0.001509   
    254. D(H  12,C   9,Pd  0,O   1)     63.1975         0.001509   
    255. D(H  11,C   9,Pd  0,C  22)     99.2382         0.001509   
    256. D(H  12,C   9,Pd  0,C   2)    121.2078         0.001509   
    257. D(H  11,C   9,Pd  0,N   8)     12.0495         0.001509   
    258. D(H  11,C   9,Pd  0,O   3)    -15.2363         0.001509   
    259. D(H  11,C   9,Pd  0,O  33)   -116.8916         0.001509   
    260. D(H  11,C   9,Pd  0,C   2)   -105.6786         0.001509   
    261. D(H  11,C   9,Pd  0,O   1)   -163.6889         0.001509   
    262. D(H  10,C   9,Pd  0,O  33)      0.8894         0.001509   
    263. D(H  10,C   9,Pd  0,C  32)     20.8808         0.001509   
    264. D(H  10,C   9,Pd  0,O  31)     44.3105         0.001509   
    265. D(H  12,C   9,Pd  0,O  31)    153.4160         0.001509   
    266. D(H  10,C   9,Pd  0,C  22)   -142.9808         0.001509   
    267. D(H  10,C   9,Pd  0,O   3)    102.5447         0.001509   
    268. D(H  10,C   9,Pd  0,C   2)     12.1024         0.001509   
    269. D(H  10,C   9,Pd  0,O   1)    -45.9079         0.001509   
    270. D(H  10,C   9,Pd  0,N   8)    129.8305         0.001509   
    271. D(H  10,C   9,N   8,C  13)     66.3669         0.017443   
    272. D(N   8,C   9,Pd  0,O  33)   -128.9411         0.001509   
    273. D(N   8,C   9,Pd  0,C  32)   -108.9497         0.001509   
    274. D(N   8,C   9,Pd  0,O  31)    -85.5200         0.001509   
    275. D(N   8,C   9,Pd  0,C   2)   -117.7281         0.001509   
    276. D(N   8,C   9,Pd  0,O   3)    -27.2858         0.001509   
    277. D(H  12,C   9,N   8,C  13)   -174.8241         0.017443   
    278. D(N   8,C   9,Pd  0,C  22)     87.1887         0.001509   
    279. D(N   8,C   9,Pd  0,O   1)   -175.7384         0.001509   
    280. D(H  14,C  13,N   8,C  28)     62.3975         0.017293   
    281. D(H  14,C  13,N   8,C   9)   -175.8734         0.017293   
    282. D(H  14,C  13,N   8,Pd  0)    -58.9093         0.017293   
    283. D(H  16,C  13,N   8,C  28)   -178.7617         0.017293   
    284. D(H  16,C  13,N   8,C   9)    -57.0327         0.017293   
    285. D(H  16,C  13,N   8,Pd  0)     59.9315         0.017293   
    286. D(H  15,C  13,N   8,C  28)    -58.5722         0.017293   
    287. D(H  15,C  13,N   8,C   9)     63.1569         0.017293   
    288. D(H  15,C  13,N   8,Pd  0)   -179.8790         0.017293   
    289. D(H  25,C  18,C  17,C  28)      0.7602         0.028109   
    290. D(H  25,C  18,C  17,C  22)   -179.9342         0.028109   
    291. D(C  19,C  18,C  17,C  28)   -179.2006         0.028109   
    292. D(C  19,C  18,C  17,C  22)      0.1050         0.028109   
    293. D(H  26,C  19,C  18,H  25)     -0.1015         0.027938   
    294. D(H  26,C  19,C  18,C  17)    179.8593         0.027938   
    295. D(C  20,C  19,C  18,H  25)    179.5749         0.027938   
    296. D(C  20,C  19,C  18,C  17)     -0.4643         0.027938   
    297. D(H  23,C  20,C  19,H  26)     -0.0067         0.028399   
    298. D(H  23,C  20,C  19,C  18)   -179.6822         0.028399   
    299. D(C  21,C  20,C  19,H  26)    179.8257         0.028399   
    300. D(C  21,C  20,C  19,C  18)      0.1502         0.028399   
    301. D(H  24,C  21,C  20,H  23)      0.3305         0.027248   
    302. D(H  24,C  21,C  20,C  19)   -179.5019         0.027248   
    303. D(C  22,C  21,C  20,H  23)   -179.6347         0.027248   
    304. D(C  22,C  21,C  20,C  19)      0.5329         0.027248   
    305. D(C  17,C  22,C  21,H  24)    179.1574         0.027699   
    306. D(C  17,C  22,C  21,C  20)     -0.8776         0.027699   
    307. D(Pd  0,C  22,C  21,C  20)   -177.3133         0.027699   
    308. D(C  21,C  22,C  17,C  28)    179.9276         0.024971   
    309. D(C  21,C  22,C  17,C  18)      0.5637         0.024971   
    310. D(Pd  0,C  22,C  17,C  18)    177.5000         0.024971   
    311. D(C  21,C  22,Pd  0,O  33)     75.3901         0.004253   
    312. D(C  21,C  22,Pd  0,C  32)     61.9205         0.004253   
    313. D(C  21,C  22,Pd  0,O  31)    -91.6811         0.004253   
    314. D(C  21,C  22,Pd  0,C   9)    131.4428         0.004253   
    315. D(C  21,C  22,Pd  0,N   8)    161.8161         0.004253   
    316. D(C  21,C  22,Pd  0,O   3)    -70.5882         0.004253   
    317. D(C  21,C  22,Pd  0,C   2)    -40.3515         0.004253   
    318. D(C  21,C  22,Pd  0,O   1)    -16.2377         0.004253   
    319. D(C  17,C  22,Pd  0,O  33)   -101.2044         0.004253   
    320. D(C  17,C  22,Pd  0,C  32)   -114.6740         0.004253   
    321. D(Pd  0,C  22,C  17,C  28)     -3.1361         0.024971   
    322. D(C  17,C  22,Pd  0,O  31)     91.7243         0.004253   
    323. D(C  17,C  22,Pd  0,C   9)    -45.1518         0.004253   
    324. D(C  17,C  22,Pd  0,N   8)    -14.7784         0.004253   
    325. D(Pd  0,C  22,C  21,H  24)      2.7217         0.027699   
    326. D(C  17,C  22,Pd  0,O   3)    112.8173         0.004253   
    327. D(C  17,C  22,Pd  0,C   2)    143.0540         0.004253   
    328. D(C  17,C  22,Pd  0,O   1)    167.1677         0.004253   
    329. D(H  30,C  28,C  17,C  22)    149.3219         0.012334   
    330. D(H  29,C  28,C  17,C  22)    -90.5486         0.012334   
    331. D(H  29,C  28,C  17,C  18)     88.7944         0.012334   
    332. D(N   8,C  28,C  17,C  22)     27.0681         0.012334   
    333. D(N   8,C  28,C  17,C  18)   -153.5889         0.012334   
    334. D(H  30,C  28,N   8,C  13)     76.4825         0.015251   
    335. D(H  30,C  28,N   8,C   9)    -45.2430         0.015251   
    336. D(H  30,C  28,N   8,Pd  0)   -161.0396         0.015251   
    337. D(H  29,C  28,N   8,C  13)    -41.8791         0.015251   
    338. D(H  29,C  28,N   8,C   9)   -163.6046         0.015251   
    339. D(H  29,C  28,N   8,Pd  0)     80.5988         0.015251   
    340. D(C  17,C  28,N   8,C  13)   -159.9461         0.015251   
    341. D(H  30,C  28,C  17,C  18)    -31.3352         0.012334   
    342. D(C  17,C  28,N   8,C   9)     78.3285         0.015251   
    343. D(C  17,C  28,N   8,Pd  0)    -37.4681         0.015251   
    344. D(C  32,O  31,Pd  0,O  33)     -5.9532         0.001648   
    345. D(C  32,O  31,Pd  0,C  22)    163.0502         0.001648   
    346. D(C  32,O  31,Pd  0,C   9)    -61.4890         0.001648   
    347. D(C  32,O  31,Pd  0,N   8)    -92.0678         0.001648   
    348. D(C  32,O  31,Pd  0,O   3)    140.4675         0.001648   
    349. D(C  32,O  31,Pd  0,C   2)    107.5191         0.001648   
    350. D(C  32,O  31,Pd  0,O   1)     85.6025         0.001648   
    351. D(O  33,C  32,O  31,Pd  0)     11.7791         0.069001   
    352. D(C  34,C  32,Pd  0,O  33)   -121.9801         0.001510   
    353. D(C  34,C  32,Pd  0,O  31)     68.7519         0.001510   
    354. D(C  34,C  32,Pd  0,C   9)   -169.3953         0.001510   
    355. D(C  34,C  32,Pd  0,N   8)    161.7709         0.001510   
    356. D(C  34,C  32,Pd  0,O   3)     33.7136         0.001510   
    357. D(C  34,C  32,Pd  0,C   2)      7.7341         0.001510   
    358. D(C  34,C  32,Pd  0,O   1)    -19.4317         0.001510   
    359. D(O  33,C  32,Pd  0,O  31)   -169.2680         0.001510   
    360. D(O  33,C  32,Pd  0,C  22)     20.8885         0.001510   
    361. D(O  33,C  32,Pd  0,C   9)    -47.4153         0.001510   
    362. D(O  33,C  32,Pd  0,N   8)    -76.2491         0.001510   
    363. D(O  33,C  32,Pd  0,O   3)    155.6937         0.001510   
    364. D(O  33,C  32,Pd  0,C   2)    129.7141         0.001510   
    365. D(O  33,C  32,Pd  0,O   1)    102.5484         0.001510   
    366. D(O  31,C  32,Pd  0,O  33)    169.2680         0.001510   
    367. D(O  31,C  32,Pd  0,C  22)   -169.8435         0.001510   
    368. D(O  31,C  32,Pd  0,C   9)    121.8528         0.001510   
    369. D(C  34,C  32,Pd  0,C  22)   -101.0916         0.001510   
    370. D(O  31,C  32,Pd  0,N   8)     93.0189         0.001510   
    371. D(O  31,C  32,Pd  0,O   3)    -35.0383         0.001510   
    372. D(O  31,C  32,Pd  0,C   2)    -61.0179         0.001510   
    373. D(C  34,C  32,O  31,Pd  0)   -168.2574         0.069001   
    374. D(O  31,C  32,Pd  0,O   1)    -88.1836         0.001510   
    375. D(Pd  0,O  33,C  32,C  34)    169.1404         0.083898   
    376. D(Pd  0,O  33,C  32,O  31)    -10.8968         0.083898   
    377. D(C  32,O  33,Pd  0,O  31)      6.0479         0.001541   
    378. D(C  32,O  33,Pd  0,C  22)   -171.0743         0.001541   
    379. D(C  32,O  33,Pd  0,C   9)    129.8699         0.001541   
    380. D(C  32,O  33,Pd  0,N   8)    106.8698         0.001541   
    381. D(C  32,O  33,Pd  0,O   3)    -25.8394         0.001541   
    382. D(C  32,O  33,Pd  0,C   2)    -46.6706         0.001541   
    383. D(C  32,O  33,Pd  0,O   1)    -73.0219         0.001541   
    384. D(H  37,C  34,C  32,O  33)    158.2217         0.011254   
    385. D(H  37,C  34,C  32,O  31)    -21.7433         0.011254   
    386. D(H  37,C  34,C  32,Pd  0)    -84.6548         0.011254   
    387. D(H  36,C  34,C  32,O  33)    -81.7889         0.011254   
    388. D(H  36,C  34,C  32,O  31)     98.2460         0.011254   
    389. D(H  36,C  34,C  32,Pd  0)     35.3345         0.011254   
    390. D(H  35,C  34,C  32,O  33)     36.4185         0.011254   
    391. D(H  35,C  34,C  32,O  31)   -143.5466         0.011254   
    392. D(H  35,C  34,C  32,Pd  0)    153.5420         0.011254   
    -----------------------------------------------------------------

Number of atoms                         .... 38
Number of degrees of freedom            .... 392

         *************************************************************
         *                GEOMETRY OPTIMIZATION CYCLE   1            *
         *************************************************************
---------------------------------
CARTESIAN COORDINATES (ANGSTROEM)
---------------------------------
  Pd     0.188380    0.098450    0.061830
  O      1.786680    1.181280    0.913490
  C      1.639530    2.268040    0.404980
  O      0.398610    2.768060    0.263490
  C      2.771860    3.177620    0.022290
  H      2.667500    4.141340    0.519100
  H      2.755520    3.329840   -1.056000
  H      3.717370    2.720920    0.300170
  N     -1.277530   -0.977270   -0.824510
  C     -0.763760   -2.344900   -0.941730
  H      0.203280   -2.325580   -1.450740
  H     -1.465990   -2.973210   -1.506290
  H     -0.623680   -2.767450    0.055160
  C     -1.583620   -0.448470   -2.148910
  H     -1.896860    0.595390   -2.066560
  H     -2.381160   -1.029840   -2.631600
  H     -0.688990   -0.491970   -2.771630
  C     -2.010360   -1.035110    1.474000
  C     -2.772370   -1.556280    2.506490
  C     -2.264450   -1.562510    3.795850
  C     -0.999540   -1.058750    4.042660
  C     -0.233010   -0.542180    3.005870
  C     -0.732080   -0.515570    1.712140
  H     -0.604110   -1.069740    5.048730
  H      0.759180   -0.158580    3.213510
  H     -3.757930   -1.955160    2.306900
  H     -2.855530   -1.965760    4.605320
  H      0.372040    3.554190   -0.298660
  C     -2.471710   -0.963530    0.042200
  H     -3.003130   -0.016990   -0.116320
  H     -3.150060   -1.787480   -0.225200
  O      1.111640    1.209950   -1.816720
  C      1.988670    0.329200   -2.048950
  O      1.992420   -0.788910   -1.510060
  C      3.090980    0.679860   -3.048200
  H      3.348250   -0.200190   -3.630630
  H      3.976170    0.995680   -2.498810
  H      2.767810    1.485610   -3.702650

----------------------------
CARTESIAN COORDINATES (A.U.)
----------------------------
  NO LB      ZA    FRAG     MASS         X           Y           Z
   0 Pd   18.0000*   0   106.400    0.355987    0.186044    0.116842
   1 O     8.0000    0    15.999    3.376336    2.232296    1.726246
   2 C     6.0000    0    12.011    3.098263    4.285974    0.765301
   3 O     8.0000    0    15.999    0.753264    5.230875    0.497924
   4 C     6.0000    0    12.011    5.238056    6.004832    0.042122
   5 H     1.0000    0     1.008    5.040844    7.825998    0.980957
   6 H     1.0000    0     1.008    5.207178    6.292486   -1.995551
   7 H     1.0000    0     1.008    7.024811    5.141794    0.567239
   8 N     7.0000    0    14.007   -2.414182   -1.846773   -1.558098
   9 C     6.0000    0    12.011   -1.443297   -4.431219   -1.779612
  10 H     1.0000    0     1.008    0.384144   -4.394709   -2.741501
  11 H     1.0000    0     1.008   -2.770320   -5.618553   -2.846476
  12 H     1.0000    0     1.008   -1.178584   -5.229723    0.104237
  13 C     6.0000    0    12.011   -2.992608   -0.847485   -4.060851
  14 H     1.0000    0     1.008   -3.584546    1.125124   -3.905232
  15 H     1.0000    0     1.008   -4.499740   -1.946116   -4.973003
  16 H     1.0000    0     1.008   -1.302002   -0.929689   -5.237622
  17 C     6.0000    0    12.011   -3.799030   -1.956074    2.785456
  18 C     6.0000    0    12.011   -5.239020   -2.940943    4.736580
  19 C     6.0000    0    12.011   -4.279190   -2.952716    7.173117
  20 C     6.0000    0    12.011   -1.888857   -2.000748    7.639520
  21 C     6.0000    0    12.011   -0.440325   -1.024572    5.680271
  22 C     6.0000    0    12.011   -1.383431   -0.974286    3.235476
  23 H     1.0000    0     1.008   -1.141602   -2.021516    9.540717
  24 H     1.0000    0     1.008    1.434642   -0.299673    6.072654
  25 H     1.0000    0     1.008   -7.101459   -3.694717    4.359409
  26 H     1.0000    0     1.008   -5.396170   -3.714748    8.702794
  27 H     1.0000    0     1.008    0.703054    6.716446   -0.564386
  28 C     6.0000    0    12.011   -4.670855   -1.820808    0.079746
  29 H     1.0000    0     1.008   -5.675093   -0.032106   -0.219813
  30 H     1.0000    0     1.008   -5.952751   -3.377848   -0.425566
  31 O     8.0000    0    15.999    2.100695    2.286474   -3.433103
  32 C     6.0000    0    12.011    3.758042    0.622098   -3.871954
  33 O     8.0000    0    15.999    3.765128   -1.490824   -2.853600
  34 C     6.0000    0    12.011    5.841106    1.284749   -5.760263
  35 H     1.0000    0     1.008    6.327276   -0.378304   -6.860896
  36 H     1.0000    0     1.008    7.513872    1.881563   -4.722067
  37 H     1.0000    0     1.008    5.230403    2.807396   -6.996994
* core charge reduced due to ECP

--------------------------------
INTERNAL COORDINATES (ANGSTROEM)
--------------------------------
 Pd     0   0   0     0.000000000000     0.00000000     0.00000000
 O      1   0   0     2.110073092217     0.00000000     0.00000000
 C      2   1   0     1.208835323855   101.49942488     0.00000000
 O      3   2   1     1.345333366456   119.38390847    40.61059785
 C      3   2   1     1.501984900523   124.04472013   214.72341990
 H      5   3   2     1.089250854533   110.32562629   237.21482447
 H      5   3   2     1.089103873880   109.00128495   117.49397834
 H      5   3   2     1.086177400106   109.66037427   358.27359735
 N      1   2   3     2.022786257146   177.06974735    97.40737262
 C      9   1   2     1.465643871546   106.09583109    50.45713468
 H     10   9   1     1.092991676135   109.32336834   306.41801260
 H     10   9   1     1.098466395754   110.53300385   185.62278154
 H     10   9   1     1.091769472462   109.45693244    65.22700964
 C      9   1   2     1.458545812822   110.92567121   291.22424642
 H     14   9   1     1.092952203758   109.75490232   301.09071776
 H     14   9   1     1.098658620591   111.06514763   180.12103283
 H     14   9   1     1.090887384334   109.37654651    59.93147584
 C      9   1   2     2.413199845558    79.36607192   147.09178775
 C     18   9   1     1.385031771874   152.39063369   196.94984360
 C     19  18   9     1.385810502522   119.57906750   146.88395472
 C     20  19  18     1.383722017531   119.95768768   359.53567961
 C     21  20  19     1.389009110805   120.44599499     0.15018052
 C     22  21  20     1.386908890266   120.32010017     0.53288529
 H     21  20  19     1.081046950831   119.78002880   180.31778487
 H     22  21  20     1.083837776468   119.59170946   180.49805682
 H     19  18   9     1.081790153449   120.16171271   326.84475728
 H     20  19  18     1.080383177303   119.88455611   179.85926908
 H      4   3   2     0.966808649268   112.87441211   190.94732251
 C      9   1  23     1.475615425543   108.91489050    29.49208383
 H     29   9   1     1.097029524853   108.37221505    80.59884830
 H     29   9   1     1.100252282433   110.44024737   198.96042994
 O      1   2   3     2.369977084298    77.53579644    46.00449918
 C     32   1   2     1.264449665388    95.11224172    85.60248096
 O     33  32   1     1.241203636274   123.35504018    11.77910007
 C     33  32   1     1.528577879665   117.41643968   191.74256970
 H     35  33  32     1.086232277324   109.60020126   216.45344518
 H     35  33  32     1.088638131153   108.84544111    98.24601615
 H     35  33  32     1.087187524717   110.43661186   338.25671129

---------------------------
INTERNAL COORDINATES (A.U.)
---------------------------
 Pd     0   0   0     0.000000000000     0.00000000     0.00000000
 O      1   0   0     3.987460266847     0.00000000     0.00000000
 C      2   1   0     2.284367703096   101.49942488     0.00000000
 O      3   2   1     2.542311621428   119.38390847    40.61059785
 C      3   2   1     2.838340119274   124.04472013   214.72341990
 H      5   3   2     2.058385806206   110.32562629   237.21482447
 H      5   3   2     2.058108053026   109.00128495   117.49397834
 H      5   3   2     2.052577819054   109.66037427   358.27359735
 N      1   2   3     3.822512053466   177.06974735    97.40737262
 C      9   1   2     2.769665527082   106.09583109    50.45713468
 H     10   9   1     2.065454934550   109.32336834   306.41801260
 H     10   9   1     2.075800655290   110.53300385   185.62278154
 H     10   9   1     2.063145304329   109.45693244    65.22700964
 C      9   1   2     2.756252140011   110.92567121   291.22424642
 H     14   9   1     2.065380342569   109.75490232   301.09071776
 H     14   9   1     2.076163907590   111.06514763   180.12103283
 H     14   9   1     2.061478399342   109.37654651    59.93147584
 C      9   1   2     4.560286814525    79.36607192   147.09178775
 C     18   9   1     2.617330735621   152.39063369   196.94984360
 C     19  18   9     2.618802323278   119.57906750   146.88395472
 C     20  19  18     2.614855658611   119.95768768   359.53567961
 C     21  20  19     2.624846816943   120.44599499     0.15018052
 C     22  21  20     2.620877975304   120.32010017     0.53288529
 H     21  20  19     2.042882674980   119.78002880   180.31778487
 H     22  21  20     2.048156571123   119.59170946   180.49805682
 H     19  18   9     2.044287124392   120.16171271   326.84475728
 H     20  19  18     2.041628324799   119.88455611   179.85926908
 H      4   3   2     1.827003571023   112.87441211   190.94732251
 C      9   1  23     2.788509033266   108.91489050    29.49208383
 H     29   9   1     2.073085362799   108.37221505    80.59884830
 H     29   9   1     2.079175492021   110.44024737   198.96042994
 O      1   2   3     4.478607632993    77.53579644    46.00449918
 C     32   1   2     2.389463577712    95.11224172    85.60248096
 O     33  32   1     2.345534948985   123.35504018    11.77910007
 C     33  32   1     2.888593566936   117.41643968   191.74256970
 H     35  33  32     2.052681521968   109.60020126   216.45344518
 H     35  33  32     2.057227926823   108.84544111    98.24601615
 H     35  33  32     2.054486677931   110.43661186   338.25671129

---------------------
BASIS SET INFORMATION
---------------------
There are 5 groups of distinct atoms

 Group   1 Type Pd  : 7s6p5d1f contracted to 5s3p2d1f pattern {31111/411/41/1}
 Group   2 Type O   : 8s4p1d contracted to 4s2p1d pattern {5111/31/1}
 Group   3 Type C   : 8s4p1d contracted to 4s2p1d pattern {5111/31/1}
 Group   4 Type H   : 4s contracted to 2s pattern {31}
 Group   5 Type N   : 8s4p1d contracted to 4s2p1d pattern {5111/31/1}

Atom   0Pd   basis set group =>   1
Atom   1O    basis set group =>   2
Atom   2C    basis set group =>   3
Atom   3O    basis set group =>   2
Atom   4C    basis set group =>   3
Atom   5H    basis set group =>   4
Atom   6H    basis set group =>   4
Atom   7H    basis set group =>   4
Atom   8N    basis set group =>   5
Atom   9C    basis set group =>   3
Atom  10H    basis set group =>   4
Atom  11H    basis set group =>   4
Atom  12H    basis set group =>   4
Atom  13C    basis set group =>   3
Atom  14H    basis set group =>   4
Atom  15H    basis set group =>   4
Atom  16H    basis set group =>   4
Atom  17C    basis set group =>   3
Atom  18C    basis set group =>   3
Atom  19C    basis set group =>   3
Atom  20C    basis set group =>   3
Atom  21C    basis set group =>   3
Atom  22C    basis set group =>   3
Atom  23H    basis set group =>   4
Atom  24H    basis set group =>   4
Atom  25H    basis set group =>   4
Atom  26H    basis set group =>   4
Atom  27H    basis set group =>   4
Atom  28C    basis set group =>   3
Atom  29H    basis set group =>   4
Atom  30H    basis set group =>   4
Atom  31O    basis set group =>   2
Atom  32C    basis set group =>   3
Atom  33O    basis set group =>   2
Atom  34C    basis set group =>   3
Atom  35H    basis set group =>   4
Atom  36H    basis set group =>   4
Atom  37H    basis set group =>   4
---------------------------------
AUXILIARY/J BASIS SET INFORMATION
---------------------------------
There are 5 groups of distinct atoms

 Group   1 Type Pd  : 11s5p5d3f3g contracted to 8s5p5d2f3g pattern {41111111/11111/11111/21/111}
 Group   2 Type O   : 12s5p4d2f1g contracted to 6s4p3d1f1g pattern {711111/2111/211/2/1}
 Group   3 Type C   : 12s5p4d2f1g contracted to 6s4p3d1f1g pattern {711111/2111/211/2/1}
 Group   4 Type H   : 5s2p1d contracted to 3s1p1d pattern {311/2/1}
 Group   5 Type N   : 12s5p4d2f1g contracted to 6s4p3d1f1g pattern {711111/2111/211/2/1}

Atom   0Pd   basis set group =>   1
Atom   1O    basis set group =>   2
Atom   2C    basis set group =>   3
Atom   3O    basis set group =>   2
Atom   4C    basis set group =>   3
Atom   5H    basis set group =>   4
Atom   6H    basis set group =>   4
Atom   7H    basis set group =>   4
Atom   8N    basis set group =>   5
Atom   9C    basis set group =>   3
Atom  10H    basis set group =>   4
Atom  11H    basis set group =>   4
Atom  12H    basis set group =>   4
Atom  13C    basis set group =>   3
Atom  14H    basis set group =>   4
Atom  15H    basis set group =>   4
Atom  16H    basis set group =>   4
Atom  17C    basis set group =>   3
Atom  18C    basis set group =>   3
Atom  19C    basis set group =>   3
Atom  20C    basis set group =>   3
Atom  21C    basis set group =>   3
Atom  22C    basis set group =>   3
Atom  23H    basis set group =>   4
Atom  24H    basis set group =>   4
Atom  25H    basis set group =>   4
Atom  26H    basis set group =>   4
Atom  27H    basis set group =>   4
Atom  28C    basis set group =>   3
Atom  29H    basis set group =>   4
Atom  30H    basis set group =>   4
Atom  31O    basis set group =>   2
Atom  32C    basis set group =>   3
Atom  33O    basis set group =>   2
Atom  34C    basis set group =>   3
Atom  35H    basis set group =>   4
Atom  36H    basis set group =>   4
Atom  37H    basis set group =>   4
-------------------------
ECP PARAMETER INFORMATION
-------------------------

 Group 1, Type Pd ECP Def2-ECP (replacing 28 core electrons, lmax=3)

Atom   0Pd   ECP group =>   1



           ************************************************************
           *        Program running with 4 parallel MPI-processes     *
           *              working on a common directory               *
           ************************************************************
------------------------------------------------------------------------------
                           ORCA GTO INTEGRAL CALCULATION
                           -- RI-GTO INTEGRALS CHOSEN --
------------------------------------------------------------------------------
------------------------------------------------------------------------------
                   ___                                                        
                  /   \      - P O W E R E D   B Y -                         
                 /     \                                                     
                 |  |  |   _    _      __       _____    __    __             
                 |  |  |  | |  | |    /  \     |  _  \  |  |  /  |          
                  \  \/   | |  | |   /    \    | | | |  |  | /  /          
                 / \  \   | |__| |  /  /\  \   | |_| |  |  |/  /          
                |  |  |   |  __  | /  /__\  \  |    /   |      \           
                |  |  |   | |  | | |   __   |  |    \   |  |\   \          
                \     /   | |  | | |  |  |  |  | |\  \  |  | \   \       
                 \___/    |_|  |_| |__|  |__|  |_| \__\ |__|  \__/        
                                                                              
                      - O R C A' S   B I G   F R I E N D -                    
                                      &                                       
                       - I N T E G R A L  F E E D E R -                       
                                                                              
 v1 FN, 2020, v2 2021                                                         
------------------------------------------------------------------------------


Reading SHARK input file reaction-1-prod-pbeh3c-orca_opt.SHARKINP.tmp ... ok
----------------------
SHARK INTEGRAL PACKAGE
----------------------

Number of atoms                             ...     38
Number of basis functions                   ...    339
Number of shells                            ...    175
Maximum angular momentum                    ...      3
Integral batch strategy                     ... SHARK/LIBINT Hybrid
RI-J (if used) integral strategy            ... SPLIT-RIJ (Revised 2003 algorithm where possible)
Printlevel                                  ...      1
Contraction scheme used                     ... SEGMENTED contraction
Coulomb Range Separation                    ... NOT USED
Exchange Range Separation                   ... NOT USED
Finite Nucleus Model                        ... NOT USED
Auxiliary Coulomb fitting basis             ... AVAILABLE
   # of basis functions in Aux-J            ...   1180
   # of shells in Aux-J                     ...    388
   Maximum angular momentum in Aux-J        ...      4
Auxiliary J/K fitting basis                 ... NOT available
Auxiliary Correlation fitting basis         ... NOT available
Auxiliary 'external' fitting basis          ... NOT available
Integral threshold                          ...     2.500000e-11
Primitive cut-off                           ...     2.500000e-12
Primitive pair pre-selection threshold      ...     2.500000e-12

Calculating pre-screening integrals         ... done (  0.1 sec) Dimension = 175
Organizing shell pair data                  ... done (  0.1 sec)
Shell pair information
Total number of shell pairs                 ...     15400
Shell pairs after pre-screening             ...     11182
Total number of primitive shell pairs       ...     54591
Primitive shell pairs kept                  ...     25244
          la=0 lb=0:   4277 shell pairs
          la=1 lb=0:   3668 shell pairs
          la=1 lb=1:    726 shell pairs
          la=2 lb=0:   1540 shell pairs
          la=2 lb=1:    666 shell pairs
          la=2 lb=2:    154 shell pairs
          la=3 lb=0:     92 shell pairs
          la=3 lb=1:     39 shell pairs
          la=3 lb=2:     19 shell pairs
          la=3 lb=3:      1 shell pairs

Calculating one electron integrals          ... done (  0.0 sec)
Calculating ECP integrals                   ... done (  0.6 sec)
Calculating RI/J V-Matrix + Cholesky decomp.... done (  0.1 sec)
Calculating Nuclear repulsion               ... done (  0.0 sec) ENN=   1794.728051012489 Eh

SHARK setup successfully completed in   1.1 seconds

Maximum memory used throughout the entire GTOINT-calculation: 24.7 MB


           ************************************************************
           *        Program running with 4 parallel MPI-processes     *
           *              working on a common directory               *
           ************************************************************
-------------------------------------------------------------------------------
                                 ORCA SCF
-------------------------------------------------------------------------------

------------
SCF SETTINGS
------------
Hamiltonian:
 Density Functional     Method          .... DFT(GTOs)
 Exchange Functional    Exchange        .... PBE
   PBE kappa parameter   XKappa         ....  1.024500
   PBE mue parameter    XMuePBE         ....  0.123457
 Correlation Functional Correlation     .... PBE
   PBE beta parameter  CBetaPBE         ....  0.030000
 LDA part of GGA corr.  LDAOpt          .... PW91-LDA
 Gradients option       PostSCFGGA      .... off
 Hybrid DFT is turned on
   Fraction HF Exchange ScalHFX         ....  0.420000
   Scaling of DF-GGA-X  ScalDFX         ....  0.580000
   Scaling of DF-GGA-C  ScalDFC         ....  1.000000
   Scaling of DF-LDA-C  ScalLDAC        ....  1.000000
   Perturbative correction              ....  0.000000
   Density functional embedding theory  .... OFF
 RI-approximation to the Coulomb term is turned on
   Number of AuxJ basis functions       .... 1180
   RIJ-ON(X) (HFX calculated with O(N)) .... on
   Number of AuxJ basis functions       .... 1180
   RIJ-COSX (HFX calculated with COS-X)).... on


General Settings:
 Integral files         IntName         .... reaction-1-prod-pbeh3c-orca_opt
 Hartree-Fock type      HFTyp           .... RHF
 Total Charge           Charge          ....    0
 Multiplicity           Mult            ....    1
 Number of Electrons    NEL             ....  154
 Basis Dimension        Dim             ....  339
 Nuclear Repulsion      ENuc            ....   1794.7280510125 Eh

Convergence Acceleration:
 DIIS                   CNVDIIS         .... on
   Start iteration      DIISMaxIt       ....    12
   Startup error        DIISStart       ....  0.200000
   # of expansion vecs  DIISMaxEq       ....     5
   Bias factor          DIISBfac        ....   1.050
   Max. coefficient     DIISMaxC        ....  10.000
 Trust-Rad. Augm. Hess. CNVTRAH         .... auto
   Auto Start mean grad. ratio tolernc. ....  1.125000
   Auto Start start iteration           ....    20
   Auto Start num. interpolation iter.  ....    10
   Max. Number of Micro iterations      ....    16
   Max. Number of Macro iterations      .... Maxiter - #DIIS iter
   Number of Davidson start vectors     ....     2
   Converg. threshold I  (grad. norm)   ....   1.000e-05
   Converg. threshold II (energy diff.) ....   1.000e-08
   Grad. Scal. Fac. for Micro threshold ....   0.100
   Minimum threshold for Micro iter.    ....   0.010
   NR start threshold (gradient norm)   ....   0.001
   Initial trust radius                 ....   0.400
   Minimum AH scaling param. (alpha)    ....   1.000
   Maximum AH scaling param. (alpha)    .... 1000.000
   Orbital update algorithm             .... Taylor
   White noise on init. David. guess    .... on
   Maximum white noise                  ....   0.010
   Quad. conv. algorithm                .... NR
   COSX micro iterations for RIJONX calc.... off
 SOSCF                  CNVSOSCF        .... off
 Level Shifting         CNVShift        .... on
   Level shift para.    LevelShift      ....    0.2500
   Turn off err/grad.   ShiftErr        ....    0.0010
 Zerner damping         CNVZerner       .... off
 Static damping         CNVDamp         .... on
   Fraction old density DampFac         ....    0.7000
   Max. Damping (<1)    DampMax         ....    0.9800
   Min. Damping (>=0)   DampMin         ....    0.0000
   Turn off err/grad.   DampErr         ....    0.1000
 Fernandez-Rico         CNVRico         .... off

SCF Procedure:
 Maximum # iterations   MaxIter         ....   125
 SCF integral mode      SCFMode         .... Direct
   Integral package                     .... SHARK and LIBINT hybrid scheme
 Reset frequency        DirectResetFreq ....    20
 Integral Threshold     Thresh          ....  2.500e-11 Eh
 Primitive CutOff       TCut            ....  2.500e-12 Eh

Convergence Tolerance:
 Convergence Check Mode ConvCheckMode   .... Total+1el-Energy
 Convergence forced     ConvForced      .... 0
 Energy Change          TolE            ....  1.000e-08 Eh
 1-El. energy change                    ....  1.000e-05 Eh
 DIIS Error             TolErr          ....  5.000e-07


Diagonalization of the overlap matrix:
Smallest eigenvalue                        ... 3.831e-04
Time for diagonalization                   ...    0.026 sec
Threshold for overlap eigenvalues          ... 1.000e-08
Number of eigenvalues below threshold      ... 0
Time for construction of square roots      ...    0.011 sec
Total time needed                          ...    0.039 sec

--------------------------------
INITIAL GUESS: MINIMAL BASIS EHT
--------------------------------
The minimal basis has 122 functions
EHT matrix was diagonalized
Basis set overlap was calculated now projecting the orbitals
Using GuessMode=FMatrix for the initial guess
C*T matrix was formed
Effective Fockian was calculated
Effective Fockian was diagonalized
Initial density was built
                      ------------------
                      INITIAL GUESS DONE
                      ------------------
-------------------
DFT GRID GENERATION
-------------------

General Integration Accuracy     IntAcc      ... 4.159
Radial Grid Type                 RadialGrid  ... OptM3 with GC (2021)
Angular Grid (max. ang.)         AngularGrid ... 3 (Lebedev-194)
Angular grid pruning method      GridPruning ... 4 (adaptive)
Weight generation scheme         WeightScheme... Becke
Basis function cutoff            BFCut       ... 1.0000e-11
Integration weight cutoff        WCut        ... 1.0000e-14
Angular grids for H and He will be reduced by one unit
Partially contracted basis set               ... off
Rotationally invariant grid construction     ... off

Total number of grid points                  ...    89790
Total number of batches                      ...     1423
Average number of points per batch           ...       63
Average number of grid points per atom       ...     2363
Time for grid setup =    0.632 sec

--------------------
COSX GRID GENERATION
--------------------

GRIDX 1
-------
General Integration Accuracy     IntAcc      ... 3.816
Radial Grid Type                 RadialGrid  ... OptM3 with GC (2021)
Angular Grid (max. ang.)         AngularGrid ... 1 (Lebedev-50)
Angular grid pruning method      GridPruning ... 4 (adaptive)
Weight generation scheme         WeightScheme... Becke
Basis function cutoff            BFCut       ... 1.0000e-11
Integration weight cutoff        WCut        ... 1.0000e-14
Angular grids for H and He will be reduced by one unit
Partially contracted basis set               ... on
Rotationally invariant grid construction     ... off

Total number of grid points                  ...    22432
Total number of batches                      ...      371
Average number of points per batch           ...       60
Average number of grid points per atom       ...      590
UseSFitting                                  ... on

GRIDX 2
-------
General Integration Accuracy     IntAcc      ... 4.020
Radial Grid Type                 RadialGrid  ... OptM3 with GC (2021)
Angular Grid (max. ang.)         AngularGrid ... 2 (Lebedev-110)
Angular grid pruning method      GridPruning ... 4 (adaptive)
Weight generation scheme         WeightScheme... Becke
Basis function cutoff            BFCut       ... 1.0000e-11
Integration weight cutoff        WCut        ... 1.0000e-14
Angular grids for H and He will be reduced by one unit
Partially contracted basis set               ... on
Rotationally invariant grid construction     ... off

Total number of grid points                  ...    48088
Total number of batches                      ...      773
Average number of points per batch           ...       62
Average number of grid points per atom       ...     1265
UseSFitting                                  ... on

GRIDX 3
-------
General Integration Accuracy     IntAcc      ... 4.338
Radial Grid Type                 RadialGrid  ... OptM3 with GC (2021)
Angular Grid (max. ang.)         AngularGrid ... 3 (Lebedev-194)
Angular grid pruning method      GridPruning ... 4 (adaptive)
Weight generation scheme         WeightScheme... Becke
Basis function cutoff            BFCut       ... 1.0000e-11
Integration weight cutoff        WCut        ... 1.0000e-14
Angular grids for H and He will be reduced by one unit
Partially contracted basis set               ... on
Rotationally invariant grid construction     ... off

Total number of grid points                  ...   104082
Total number of batches                      ...     1644
Average number of points per batch           ...       63
Average number of grid points per atom       ...     2739
UseSFitting                                  ... on

Time for X-Grid setup             =    1.543 sec

--------------
SCF ITERATIONS
--------------
ITER       Energy         Delta-E        Max-DP      RMS-DP      [F,P]     Damp
               ***  Starting incremental Fock matrix formation  ***
  0   -977.9151558333   0.000000000000 3.21247801  0.02705590  5.3449884 0.7000
  1   -979.2383585511  -1.323202717825 4.36941665  0.02176758  3.9235983 0.7000
  2   -980.8312026653  -1.592844114226 1.39305546  0.00926262  2.7941038 0.7000
  3   -983.1227993987  -2.291596733393 0.95070391  0.00655138  1.9760333 0.7000
  4   -984.6897988502  -1.566999451457 0.65435716  0.00463232  1.3835920 0.7000
  5   -985.8256061955  -1.135807345284 0.45624357  0.00326006  0.9638109 0.7000
  6   -986.6368596841  -0.811253488594 0.32038104  0.00229348  0.6717638 0.7000
  7   -987.2128968173  -0.576037133241 0.22554916  0.00161782  0.4695079 0.7000
  8   -987.6204386516  -0.407541834286 0.15882893  0.00114436  0.3288231 0.7000
  9   -987.9079801037  -0.287541452130 0.11178792  0.00081085  0.2304124 0.7000
                               ***Turning on DIIS***
 10   -988.1104576542  -0.202477550467 0.07863674  0.00057512  0.1613725 0.7000
 11   -988.2528332831  -0.142375628962 0.05560360  0.00041431  0.1129351 0.7000
 12   -988.3528534510  -0.100020167858 0.13049957  0.00098799  0.0789572 0.0000
 13   -988.5875545705  -0.234701119513 0.00259652  0.00003779  0.0018022 0.0000
 14   -988.5876065002  -0.000051929693 0.00177377  0.00002569  0.0010432 0.0000
 15   -988.5876264813  -0.000019981125 0.00195086  0.00002633  0.0005240 0.0000
               *** Restarting incremental Fock matrix formation ***
                                   *** Resetting DIIS ***
 16   -988.5873220986   0.000304382692 0.00111485  0.00003107  0.0002488 0.0000
 17   -988.5873240796  -0.000001980975 0.00062373  0.00000719  0.0003861 0.0000
 18   -988.5873251094  -0.000001029754 0.00045635  0.00000414  0.0001895 0.0000
 19   -988.5873254085  -0.000000299104 0.00014452  0.00000157  0.0000751 0.0000
 20   -988.5873254654  -0.000000056922 0.00014940  0.00000123  0.0000343 0.0000
 21   -988.5873254854  -0.000000019951 0.00006983  0.00000061  0.0000181 0.0000
 22   -988.5873254881  -0.000000002731 0.00005353  0.00000041  0.0000078 0.0000
 23   -988.5873254912  -0.000000003078 0.00001166  0.00000011  0.0000061 0.0000
 24   -988.5873255021  -0.000000010930 0.00000595  0.00000006  0.0000018 0.0000
 25   -988.5873254950   0.000000007107 0.00000296  0.00000002  0.0000016 0.0000
                            ***DIIS convergence achieved***

               *****************************************************
               *                     SUCCESS                       *
               *           SCF CONVERGED AFTER  26 CYCLES          *
               *****************************************************

Old exchange energy                            =    -52.740197068 Eh
New exchange energy                            =    -52.740203347 Eh
Exchange energy change after final integration =     -0.000006278 Eh
Total energy after final integration           =   -988.587331779 Eh
Final COS-X integration done in                =    15.765 sec

----------------
TOTAL SCF ENERGY
----------------

Total Energy       :         -988.58733178 Eh          -26900.82891 eV

Components:
Nuclear Repulsion  :         1794.72805101 Eh           48837.03309 eV
Electronic Energy  :        -2783.31538279 Eh          -75737.86200 eV
One Electron Energy:        -4971.77891779 Eh         -135288.98231 eV
Two Electron Energy:         2188.46353500 Eh           59551.12031 eV
Max COSX asymmetry :            0.00002952 Eh               0.00080 eV

Virial components:
Potential Energy   :        -1890.93203826 Eh          -51454.87668 eV
Kinetic Energy     :          902.34470648 Eh           24554.04777 eV
Virial Ratio       :            2.09557614


DFT components:
N(Alpha)           :       77.000085063995 electrons
N(Beta)            :       77.000085063995 electrons
N(Total)           :      154.000170127991 electrons
E(X)               :      -70.319539760783 Eh       
E(C)               :       -6.939092310409 Eh       
E(XC)              :      -77.258632071192 Eh       
DFET-embed. en.    :        0.000000000000 Eh       

---------------
SCF CONVERGENCE
---------------

  Last Energy change         ...   -6.0668e-09  Tolerance :   1.0000e-08
  Last MAX-Density change    ...    0.0000e+00  Tolerance :   1.0000e-07
  Last RMS-Density change    ...    0.0000e+00  Tolerance :   5.0000e-09
  Last DIIS Error            ...    7.0424e-07  Tolerance :   5.0000e-07

             **** THE GBW FILE WAS UPDATED (reaction-1-prod-pbeh3c-orca_opt.gbw) ****
             **** DENSITY reaction-1-prod-pbeh3c-orca_opt.scfp WAS UPDATED ****
             **** ENERGY FILE WAS UPDATED (reaction-1-prod-pbeh3c-orca_opt.en.tmp) ****
             **** THE GBW FILE WAS UPDATED (reaction-1-prod-pbeh3c-orca_opt.gbw) ****
             **** DENSITY reaction-1-prod-pbeh3c-orca_opt.scfp WAS UPDATED ****
----------------
ORBITAL ENERGIES
----------------

  NO   OCC          E(Eh)            E(eV) 
   0   2.0000     -19.563160      -532.3407 
   1   2.0000     -19.532918      -531.5177 
   2   2.0000     -19.437346      -528.9171 
   3   2.0000     -19.419198      -528.4233 
   4   2.0000     -14.708443      -400.2371 
   5   2.0000     -10.622120      -289.0426 
   6   2.0000     -10.517397      -286.1929 
   7   2.0000     -10.481908      -285.2272 
   8   2.0000     -10.470448      -284.9154 
   9   2.0000     -10.470202      -284.9087 
  10   2.0000     -10.458890      -284.6009 
  11   2.0000     -10.439878      -284.0835 
  12   2.0000     -10.434328      -283.9325 
  13   2.0000     -10.433834      -283.9191 
  14   2.0000     -10.429949      -283.8133 
  15   2.0000     -10.429044      -283.7887 
  16   2.0000     -10.424902      -283.6760 
  17   2.0000     -10.410681      -283.2890 
  18   2.0000      -3.621889       -98.5566 
  19   2.0000      -2.271387       -61.8076 
  20   2.0000      -2.266237       -61.6674 
  21   2.0000      -2.233510       -60.7769 
  22   2.0000      -1.251952       -34.0673 
  23   2.0000      -1.166719       -31.7480 
  24   2.0000      -1.133671       -30.8487 
  25   2.0000      -1.071071       -29.1453 
  26   2.0000      -1.029484       -28.0137 
  27   2.0000      -0.942399       -25.6440 
  28   2.0000      -0.865401       -23.5488 
  29   2.0000      -0.858094       -23.3499 
  30   2.0000      -0.817080       -22.2339 
  31   2.0000      -0.806734       -21.9524 
  32   2.0000      -0.789666       -21.4879 
  33   2.0000      -0.777439       -21.1552 
  34   2.0000      -0.723533       -19.6883 
  35   2.0000      -0.697289       -18.9742 
  36   2.0000      -0.665221       -18.1016 
  37   2.0000      -0.640791       -17.4368 
  38   2.0000      -0.618551       -16.8316 
  39   2.0000      -0.583456       -15.8766 
  40   2.0000      -0.575324       -15.6554 
  41   2.0000      -0.571797       -15.5594 
  42   2.0000      -0.561514       -15.2796 
  43   2.0000      -0.557337       -15.1659 
  44   2.0000      -0.549569       -14.9545 
  45   2.0000      -0.532264       -14.4836 
  46   2.0000      -0.508268       -13.8307 
  47   2.0000      -0.503529       -13.7017 
  48   2.0000      -0.490838       -13.3564 
  49   2.0000      -0.488979       -13.3058 
  50   2.0000      -0.486826       -13.2472 
  51   2.0000      -0.480765       -13.0823 
  52   2.0000      -0.475355       -12.9351 
  53   2.0000      -0.469425       -12.7737 
  54   2.0000      -0.460338       -12.5264 
  55   2.0000      -0.457647       -12.4532 
  56   2.0000      -0.448081       -12.1929 
  57   2.0000      -0.438975       -11.9451 
  58   2.0000      -0.430507       -11.7147 
  59   2.0000      -0.429746       -11.6940 
  60   2.0000      -0.423863       -11.5339 
  61   2.0000      -0.419045       -11.4028 
  62   2.0000      -0.405292       -11.0286 
  63   2.0000      -0.400405       -10.8956 
  64   2.0000      -0.395465       -10.7611 
  65   2.0000      -0.381957       -10.3936 
  66   2.0000      -0.364791        -9.9265 
  67   2.0000      -0.355635        -9.6773 
  68   2.0000      -0.333262        -9.0685 
  69   2.0000      -0.322011        -8.7624 
  70   2.0000      -0.307616        -8.3707 
  71   2.0000      -0.296304        -8.0628 
  72   2.0000      -0.289338        -7.8733 
  73   2.0000      -0.281371        -7.6565 
  74   2.0000      -0.274175        -7.4607 
  75   2.0000      -0.254034        -6.9126 
  76   2.0000      -0.237198        -6.4545 
  77   0.0000      -0.009249        -0.2517 
  78   0.0000       0.021446         0.5836 
  79   0.0000       0.031001         0.8436 
  80   0.0000       0.036668         0.9978 
  81   0.0000       0.065948         1.7945 
  82   0.0000       0.082507         2.2451 
  83   0.0000       0.100376         2.7314 
  84   0.0000       0.107908         2.9363 
  85   0.0000       0.112791         3.0692 
  86   0.0000       0.136892         3.7250 
  87   0.0000       0.146617         3.9897 
  88   0.0000       0.170674         4.6443 
  89   0.0000       0.173283         4.7153 
  90   0.0000       0.183098         4.9823 
  91   0.0000       0.187674         5.1069 
  92   0.0000       0.190702         5.1893 
  93   0.0000       0.197751         5.3811 
  94   0.0000       0.201720         5.4891 
  95   0.0000       0.205763         5.5991 
  96   0.0000       0.213927         5.8213 
  97   0.0000       0.214903         5.8478 
  98   0.0000       0.220583         6.0024 
  99   0.0000       0.226127         6.1532 
 100   0.0000       0.228975         6.2307 
 101   0.0000       0.233142         6.3441 
 102   0.0000       0.233849         6.3633 
 103   0.0000       0.247365         6.7312 
 104   0.0000       0.253281         6.8921 
 105   0.0000       0.255315         6.9475 
 106   0.0000       0.265749         7.2314 
 107   0.0000       0.269614         7.3366 
 108   0.0000       0.272797         7.4232 
 109   0.0000       0.278869         7.5884 
 110   0.0000       0.301410         8.2018 
 111   0.0000       0.306261         8.3338 
 112   0.0000       0.317918         8.6510 
 113   0.0000       0.333044         9.0626 
 114   0.0000       0.345363         9.3978 
 115   0.0000       0.353806         9.6275 
 116   0.0000       0.369580        10.0568 
 117   0.0000       0.375922        10.2294 
 118   0.0000       0.397956        10.8289 
 119   0.0000       0.415930        11.3180 
 120   0.0000       0.444560        12.0971 
 121   0.0000       0.459816        12.5122 
 122   0.0000       0.474279        12.9058 
 123   0.0000       0.483511        13.1570 
 124   0.0000       0.490498        13.3471 
 125   0.0000       0.499042        13.5796 
 126   0.0000       0.518030        14.0963 
 127   0.0000       0.535898        14.5825 
 128   0.0000       0.540952        14.7201 
 129   0.0000       0.544306        14.8113 
 130   0.0000       0.551427        15.0051 
 131   0.0000       0.559228        15.2174 
 132   0.0000       0.576420        15.6852 
 133   0.0000       0.580957        15.8087 
 134   0.0000       0.588306        16.0086 
 135   0.0000       0.592334        16.1182 
 136   0.0000       0.614097        16.7104 
 137   0.0000       0.617685        16.8081 
 138   0.0000       0.620801        16.8929 
 139   0.0000       0.622938        16.9510 
 140   0.0000       0.631005        17.1705 
 141   0.0000       0.632289        17.2055 
 142   0.0000       0.641361        17.4523 
 143   0.0000       0.650865        17.7109 
 144   0.0000       0.654346        17.8057 
 145   0.0000       0.660280        17.9671 
 146   0.0000       0.670504        18.2454 
 147   0.0000       0.674698        18.3595 
 148   0.0000       0.686823        18.6894 
 149   0.0000       0.695678        18.9304 
 150   0.0000       0.714422        19.4404 
 151   0.0000       0.722150        19.6507 
 152   0.0000       0.731547        19.9064 
 153   0.0000       0.734038        19.9742 
 154   0.0000       0.747302        20.3351 
 155   0.0000       0.769783        20.9469 
 156   0.0000       0.772564        21.0225 
 157   0.0000       0.784278        21.3413 
[...]
 24 H s       :     0.784226  s :     0.784226
 25 H s       :     0.801861  s :     0.801861
 26 H s       :     0.791816  s :     0.791816
 27 H s       :     0.539146  s :     0.539146
 28 C s       :     3.301035  s :     3.301035
      pz      :     0.914217  p :     2.951195
      px      :     0.872011
      py      :     1.164968
      dz2     :     0.013266  d :     0.056073
      dxz     :     0.014208
      dyz     :     0.006790
      dx2y2   :     0.006766
      dxy     :     0.015043
 29 H s       :     0.738315  s :     0.738315
 30 H s       :     0.775582  s :     0.775582
 31 O s       :     3.796067  s :     3.796067
      pz      :     1.513371  p :     4.751961
      px      :     1.565059
      py      :     1.673531
      dz2     :     0.004404  d :     0.023126
      dxz     :     0.003761
      dyz     :     0.006060
      dx2y2   :     0.003704
      dxy     :     0.005197
 32 C s       :     2.949232  s :     2.949232
      pz      :     0.771314  p :     2.359213
      px      :     0.765366
      py      :     0.822533
      dz2     :     0.019925  d :     0.146790
      dxz     :     0.011842
      dyz     :     0.044791
      dx2y2   :     0.030201
      dxy     :     0.040031
 33 O s       :     3.768419  s :     3.768419
      pz      :     1.686676  p :     4.691634
      px      :     1.630128
      py      :     1.374830
      dz2     :     0.002744  d :     0.027091
      dxz     :     0.000160
      dyz     :     0.007835
      dx2y2   :     0.007896
      dxy     :     0.008454
 34 C s       :     3.406190  s :     3.406190
      pz      :     1.082201  p :     3.305762
      px      :     1.095963
      py      :     1.127598
      dz2     :     0.002793  d :     0.034102
      dxz     :     0.009071
      dyz     :     0.010405
      dx2y2   :     0.002788
      dxy     :     0.009044
 35 H s       :     0.767160  s :     0.767160
 36 H s       :     0.789710  s :     0.789710
 37 H s       :     0.780739  s :     0.780739


                     *******************************
                     * LOEWDIN POPULATION ANALYSIS *
                     *******************************

----------------------
LOEWDIN ATOMIC CHARGES
----------------------
   0 Pd:   -0.435211
   1 O :   -0.049356
   2 C :    0.212974
   3 O :   -0.205391
   4 C :   -0.387155
   5 H :    0.148626
   6 H :    0.173180
   7 H :    0.172814
   8 N :   -0.027266
   9 C :   -0.236445
  10 H :    0.174144
  11 H :    0.116238
  12 H :    0.155744
  13 C :   -0.232522
  14 H :    0.146991
  15 H :    0.118340
  16 H :    0.163240
  17 C :   -0.061225
  18 C :   -0.135453
  19 C :   -0.147549
  20 C :   -0.135982
  21 C :   -0.123501
  22 C :   -0.022436
  23 H :    0.130925
  24 H :    0.143742
  25 H :    0.130530
  26 H :    0.131331
  27 H :    0.347193
  28 C :   -0.102316
  29 H :    0.149819
  30 H :    0.126168
  31 O :   -0.250173
  32 C :    0.101744
  33 O :   -0.301167
  34 C :   -0.393987
  35 H :    0.135947
  36 H :    0.133721
  37 H :    0.133724

-------------------------------
LOEWDIN REDUCED ORBITAL CHARGES
-------------------------------
  0 Pds       :     2.514217  s :     2.514217
      pz      :     2.322544  p :     6.750763
      px      :     2.225198
      py      :     2.203022
      dz2     :     1.819286  d :     9.163817
      dxz     :     1.604154
      dyz     :     1.796939
      dx2y2   :     2.012329
      dxy     :     1.931110
      f0      :     0.000895  f :     0.006413
      f+1     :     0.001660
      f-1     :     0.000805
      f+2     :     0.000383
      f-2     :     0.001673
      f+3     :     0.000405
      f-3     :     0.000591
  1 O s       :     3.420688  s :     3.420688
      pz      :     1.482503  p :     4.566927
      px      :     1.678887
      py      :     1.405537
      dz2     :     0.007259  d :     0.061741
      dxz     :     0.002745
      dyz     :     0.017001
      dx2y2   :     0.020453
      dxy     :     0.014283
  2 C s       :     2.808228  s :     2.808228
      pz      :     0.733379  p :     2.668207
      px      :     0.964898
      py      :     0.969929
      dz2     :     0.027909  d :     0.310591
      dxz     :     0.030652
      dyz     :     0.055816
      dx2y2   :     0.077870
      dxy     :     0.118344
  3 O s       :     3.465366  s :     3.465366
      pz      :     1.696644  p :     4.682581
      px      :     1.612089
      py      :     1.373847
      dz2     :     0.007023  d :     0.057445
      dxz     :     0.009879
      dyz     :     0.005328
      dx2y2   :     0.019278
      dxy     :     0.015937
  4 C s       :     2.958963  s :     2.958963
      pz      :     1.155458  p :     3.365269
      px      :     1.079930
      py      :     1.129881
      dz2     :     0.012569  d :     0.062923
      dxz     :     0.011111
      dyz     :     0.008946
      dx2y2   :     0.014957
      dxy     :     0.015340
  5 H s       :     0.851374  s :     0.851374
  6 H s       :     0.826820  s :     0.826820
  7 H s       :     0.827186  s :     0.827186
  8 N s       :     3.087904  s :     3.087904
      pz      :     1.220044  p :     3.828398
      px      :     1.301913
      py      :     1.306442
      dz2     :     0.027064  d :     0.110963
      dxz     :     0.026116
      dyz     :     0.016716
      dx2y2   :     0.023805
      dxy     :     0.017263
  9 C s       :     2.943351  s :     2.943351
      pz      :     1.159505  p :     3.200394
      px      :     1.129697
      py      :     0.911192
      dz2     :     0.017555  d :     0.092700
      dxz     :     0.012564
      dyz     :     0.014640
      dx2y2   :     0.022124
      dxy     :     0.025817
 10 H s       :     0.825856  s :     0.825856
 11 H s       :     0.883762  s :     0.883762
 12 H s       :     0.844256  s :     0.844256
 13 C s       :     2.939941  s :     2.939941
      pz      :     0.932638  p :     3.198207
      px      :     1.138704
      py      :     1.126865
      dz2     :     0.028585  d :     0.094375
      dxz     :     0.025277
      dyz     :     0.014882
      dx2y2   :     0.012062
      dxy     :     0.013568
 14 H s       :     0.853009  s :     0.853009
 15 H s       :     0.881660  s :     0.881660
 16 H s       :     0.836760  s :     0.836760
 17 C s       :     2.833108  s :     2.833108
      pz      :     1.035728  p :     3.115023
      px      :     1.069098
      py      :     1.010196
      dz2     :     0.033032  d :     0.113094
      dxz     :     0.033573
      dyz     :     0.017175
      dx2y2   :     0.013831
      dxy     :     0.015484
 18 C s       :     2.883619  s :     2.883619
      pz      :     1.084357  p :     3.159600
      px      :     1.057496
      py      :     1.017747
      dz2     :     0.029883  d :     0.092234
      dxz     :     0.027085
      dyz     :     0.018652
      dx2y2   :     0.007238
      dxy     :     0.009376
 19 C s       :     2.886918  s :     2.886918
      pz      :     1.077804  p :     3.169431
      px      :     1.070662
      py      :     1.020966
      dz2     :     0.023259  d :     0.091199
      dxz     :     0.030901
      dyz     :     0.014317
      dx2y2   :     0.010846
      dxy     :     0.011877
 20 C s       :     2.889507  s :     2.889507
      pz      :     1.074421  p :     3.154668
      px      :     1.071096
      py      :     1.009151
      dz2     :     0.025918  d :     0.091807
      dxz     :     0.027129
      dyz     :     0.009707
      dx2y2   :     0.014454
      dxy     :     0.014599
 21 C s       :     2.878866  s :     2.878866
      pz      :     1.087276  p :     3.152432
      px      :     1.058907
      py      :     1.006248
      dz2     :     0.030605  d :     0.092203
      dxz     :     0.028510
      dyz     :     0.016825
      dx2y2   :     0.007515
      dxy     :     0.008748
 22 C s       :     2.871320  s :     2.871320
      pz      :     1.091455  p :     3.050243
      px      :     1.034755
      py      :     0.924033
      dz2     :     0.031842  d :     0.100873
      dxz     :     0.025232
      dyz     :     0.015350
      dx2y2   :     0.013746
      dxy     :     0.014703
 23 H s       :     0.869075  s :     0.869075
 24 H s       :     0.856258  s :     0.856258
 25 H s       :     0.869470  s :     0.869470
 26 H s       :     0.868669  s :     0.868669
 27 H s       :     0.652807  s :     0.652807
 28 C s       :     2.889710  s :     2.889710
      pz      :     1.017438  p :     3.097617
      px      :     0.963173
      py      :     1.117006
      dz2     :     0.028470  d :     0.114988
      dxz     :     0.031746
      dyz     :     0.012830
      dx2y2   :     0.013833
      dxy     :     0.028110
 29 H s       :     0.850181  s :     0.850181
 30 H s       :     0.873832  s :     0.873832
 31 O s       :     3.455095  s :     3.455095
      pz      :     1.515844  p :     4.743899
      px      :     1.560284
      py      :     1.667771
      dz2     :     0.009114  d :     0.051180
      dxz     :     0.011443
      dyz     :     0.013035
      dx2y2   :     0.007156
      dxy     :     0.010432
 32 C s       :     2.809160  s :     2.809160
      pz      :     0.878884  p :     2.753738
      px      :     0.848103
      py      :     1.026751
      dz2     :     0.043901  d :     0.335359
      dxz     :     0.026572
      dyz     :     0.103461
      dx2y2   :     0.069889
      dxy     :     0.091536
 33 O s       :     3.510377  s :     3.510377
      pz      :     1.660148  p :     4.738128
      px      :     1.607541
      py      :     1.470439
      dz2     :     0.006574  d :     0.052661
      dxz     :     0.000282
      dyz     :     0.013181
      dx2y2   :     0.019377
      dxy     :     0.013247
 34 C s       :     2.968529  s :     2.968529
      pz      :     1.114216  p :     3.362507
      px      :     1.119839
      py      :     1.128452
      dz2     :     0.005256  d :     0.062950
      dxz     :     0.017095
      dyz     :     0.019348
      dx2y2   :     0.004916
      dxy     :     0.016335
 35 H s       :     0.864053  s :     0.864053
 36 H s       :     0.866279  s :     0.866279
 37 H s       :     0.866276  s :     0.866276


                      *****************************
                      * MAYER POPULATION ANALYSIS *
                      *****************************

  NA   - Mulliken gross atomic population
  ZA   - Total nuclear charge
  QA   - Mulliken gross atomic charge
  VA   - Mayer's total valence
  BVA  - Mayer's bonded valence
  FA   - Mayer's free valence

  ATOM       NA         ZA         QA         VA         BVA        FA
  0 Pd    17.6303    18.0000     0.3697     2.4973     2.4973     0.0000
  1 O      8.4040     8.0000    -0.4040     2.2410     2.2410     0.0000
  2 C      5.3343     6.0000     0.6657     3.8927     3.8927     0.0000
  3 O      8.5227     8.0000    -0.5227     2.0743     2.0743     0.0000
  4 C      6.7962     6.0000    -0.7962     3.6612     3.6612     0.0000
  5 H      0.7542     1.0000     0.2458     0.9000     0.9000     0.0000
  6 H      0.7184     1.0000     0.2816     0.8845     0.8845     0.0000
  7 H      0.7063     1.0000     0.2937     0.8878     0.8878    -0.0000
  8 N      7.4838     7.0000    -0.4838     3.2132     3.2132     0.0000
  9 C      6.5472     6.0000    -0.5472     3.5507     3.5507    -0.0000
 10 H      0.6813     1.0000     0.3187     0.8905     0.8905    -0.0000
 11 H      0.7901     1.0000     0.2099     0.9134     0.9134     0.0000
 12 H      0.7211     1.0000     0.2789     0.8894     0.8894    -0.0000
 13 C      6.5218     6.0000    -0.5218     3.6128     3.6128    -0.0000
 14 H      0.7401     1.0000     0.2599     0.8981     0.8981    -0.0000
 15 H      0.7857     1.0000     0.2143     0.9095     0.9095    -0.0000
 16 H      0.7094     1.0000     0.2906     0.8981     0.8981     0.0000
 17 C      5.9168     6.0000     0.0832     3.7145     3.7145     0.0000
 18 C      6.2818     6.0000    -0.2818     3.8180     3.8180    -0.0000
 19 C      6.2330     6.0000    -0.2330     3.8419     3.8419    -0.0000
 20 C      6.2164     6.0000    -0.2164     3.8100     3.8100    -0.0000
 21 C      6.2973     6.0000    -0.2973     3.8298     3.8298     0.0000
 22 C      6.0773     6.0000    -0.0773     3.7606     3.7606     0.0000
 23 H      0.7940     1.0000     0.2060     0.9154     0.9154    -0.0000
 24 H      0.7842     1.0000     0.2158     0.9168     0.9168    -0.0000
 25 H      0.8019     1.0000     0.1981     0.9209     0.9209     0.0000
 26 H      0.7918     1.0000     0.2082     0.9150     0.9150    -0.0000
 27 H      0.5391     1.0000     0.4609     0.7653     0.7653     0.0000
 28 C      6.3083     6.0000    -0.3083     3.6033     3.6033     0.0000
 29 H      0.7383     1.0000     0.2617     0.8872     0.8872    -0.0000
 30 H      0.7756     1.0000     0.2244     0.9098     0.9098    -0.0000
 31 O      8.5712     8.0000    -0.5712     2.0346     2.0346     0.0000
 32 C      5.4552     6.0000     0.5448     4.1196     4.1196     0.0000
 33 O      8.4871     8.0000    -0.4871     2.1063     2.1063    -0.0000
 34 C      6.7461     6.0000    -0.7461     3.7071     3.7071    -0.0000
 35 H      0.7672     1.0000     0.2328     0.9099     0.9099     0.0000
 36 H      0.7897     1.0000     0.2103     0.9149     0.9149    -0.0000
 37 H      0.7807     1.0000     0.2193     0.9120     0.9120     0.0000

  Mayer bond orders larger than 0.100000
B(  0-Pd,  1-O ) :   0.3533 B(  0-Pd,  8-N ) :   0.4696 B(  0-Pd, 22-C ) :   0.9088 
B(  0-Pd, 31-O ) :   0.4506 B(  1-O ,  2-C ) :   1.7281 B(  2-C ,  3-O ) :   1.1749 
B(  2-C ,  4-C ) :   0.9609 B(  3-O , 27-H ) :   0.7485 B(  4-C ,  5-H ) :   0.9040 
B(  4-C ,  6-H ) :   0.8858 B(  4-C ,  7-H ) :   0.8970 B(  8-N ,  9-C ) :   0.9106 
B(  8-N , 13-C ) :   0.9230 B(  8-N , 28-C ) :   0.8903 B(  9-C , 10-H ) :   0.8584 
B(  9-C , 11-H ) :   0.9071 B(  9-C , 12-H ) :   0.8912 B( 13-C , 14-H ) :   0.9070 
B( 13-C , 15-H ) :   0.9047 B( 13-C , 16-H ) :   0.8812 B( 17-C , 18-C ) :   1.4082 
B( 17-C , 22-C ) :   1.3310 B( 17-C , 28-C ) :   0.9714 B( 18-C , 19-C ) :   1.4245 
B( 18-C , 25-H ) :   0.9281 B( 19-C , 20-C ) :   1.4350 B( 19-C , 26-H ) :   0.9217 
B( 20-C , 21-C ) :   1.4105 B( 20-C , 23-H ) :   0.9221 B( 21-C , 22-C ) :   1.3983 
B( 21-C , 24-H ) :   0.9156 B( 28-C , 29-H ) :   0.8939 B( 28-C , 30-H ) :   0.9049 
B( 31-O , 32-C ) :   1.3599 B( 31-O , 33-O ) :   0.1055 B( 32-C , 33-O ) :   1.8490 
B( 32-C , 34-C ) :   0.9226 B( 34-C , 35-H ) :   0.9233 B( 34-C , 36-H ) :   0.9253 
B( 34-C , 37-H ) :   0.9218 

-------
TIMINGS
-------

Total SCF time: 0 days 0 hours 1 min 11 sec 

Total time                  ....      71.847 sec
Sum of individual times     ....      71.301 sec  ( 99.2%)

Fock matrix formation       ....      68.564 sec  ( 95.4%)
  Split-RI-J                ....       5.355 sec  (  7.8% of F)
  Chain of spheres X        ....      59.661 sec  ( 87.0% of F)
  XC integration            ....       3.490 sec  (  5.1% of F)
    Basis function eval.    ....       1.575 sec  ( 45.1% of XC)
    Density eval.           ....       0.886 sec  ( 25.4% of XC)
    XC-Functional eval.     ....       0.287 sec  (  8.2% of XC)
    XC-Potential eval.      ....       0.522 sec  ( 15.0% of XC)
Diagonalization             ....       0.276 sec  (  0.4%)
Density matrix formation    ....       0.017 sec  (  0.0%)
Population analysis         ....       0.065 sec  (  0.1%)
Initial guess               ....       0.037 sec  (  0.1%)
Orbital Transformation      ....       0.000 sec  (  0.0%)
Orbital Orthonormalization  ....       0.026 sec  (  0.0%)
DIIS solution               ....       0.142 sec  (  0.2%)
Grid generation             ....       2.201 sec  (  3.1%)

Maximum memory used throughout the entire SCF-calculation: 91.3 MB


-------------------------------------------------------------------------------
                          DFT DISPERSION CORRECTION                            
                                                                               
                              DFTD3 V3.1  Rev 1                                
                          USING Becke-Johnson damping                          
-------------------------------------------------------------------------------
The PBEh-3c composite method is recognized
Using three-body term ABC
Active option DFTDOPT                   ...         4   

molecular C6(AA) [au] = 16322.790828 


            DFT-D V3
 parameters
 s6 scaling factor         :     1.0000 
 a1 scaling factor         :     0.4860 
 s8 scaling factor         :     0.0000 
 a2 scaling factor         :     4.5000 
 Damping factor alpha9(ATM):    16.0000 
 ad hoc parameters k1-k3   :    16.0000     1.3333    -4.0000 

 Edisp/kcal,au: -16.797139751212  -0.026767943200 
 E6   /kcal   : -16.949418437 
 E8   /kcal   :  -0.000000000 
 E6(ABC)      :   0.152278686 
 % E8         :   0.000000000 
 % E6(ABC)    :  -0.906575098 

-------------------------   ----------------
Dispersion correction           -0.026767943
-------------------------   ----------------

 ** NOTE ** -> element pd will be treated as ni
------------------   -----------------
gCP correction             0.077985763
------------------   -----------------

-------------------------   --------------------
FINAL SINGLE POINT ENERGY      -988.554276085868
-------------------------   --------------------

                                *** OPTIMIZATION RUN DONE ***

                            ***************************************
                            *     ORCA property calculations      *
                            ***************************************

                                    ---------------------
                                    Active property flags
                                    ---------------------
   (+) Dipole Moment


------------------------------------------------------------------------------
                       ORCA ELECTRIC PROPERTIES CALCULATION
------------------------------------------------------------------------------

Dipole Moment Calculation                       ... on
Quadrupole Moment Calculation                   ... off
Polarizability Calculation                      ... off
GBWName                                         ... reaction-1-prod-pbeh3c-orca_opt.gbw
Electron density                                ... reaction-1-prod-pbeh3c-orca_opt.scfp
The origin for moment calculation is the CENTER OF MASS  = ( 0.153335,  0.127839  0.195758)

-------------
DIPOLE MOMENT
-------------
                                X             Y             Z
Electronic contribution:      6.48424       6.41446      -0.44140
Nuclear contribution   :     -6.61204      -4.12613       0.85509
                        -----------------------------------------
Total Dipole Moment    :     -0.12780       2.28833       0.41369
                        -----------------------------------------
Magnitude (a.u.)       :      2.32893
Magnitude (Debye)      :      5.91967



--------------------
Rotational spectrum 
--------------------
 
Rotational constants in cm-1:     0.015567     0.009072     0.006458 
Rotational constants in MHz :   466.679444   271.959163   193.618355 

 Dipole components along the rotational axes: 
x,y,z [a.u.] :     0.544098    -1.696021     1.500463 
x,y,z [Debye]:     1.382986    -4.310944     3.813874 

 

Timings for individual modules:

Sum of individual times         ...     4782.480 sec (=  79.708 min)
GTO integral calculation        ...       56.424 sec (=   0.940 min)   1.2 %
SCF iterations                  ...     3553.056 sec (=  59.218 min)  74.3 %
SCF Gradient evaluation         ...     1160.225 sec (=  19.337 min)  24.3 %
Geometry relaxation             ...       12.775 sec (=   0.213 min)   0.3 %
                             ****ORCA TERMINATED NORMALLY****
TOTAL RUN TIME: 0 days 1 hours 20 minutes 6 seconds 708 msec
