
                                 *****************
                                 * O   R   C   A *
                                 *****************

                                            #,                                       
                                            ###                                      
                                            ####                                     
                                            #####                                    
                                            ######                                   
                                           ########,                                 
                                     ,,################,,,,,                         
                               ,,#################################,,                 
                          ,,##########################################,,             
                       ,#########################################, ''#####,          
                    ,#############################################,,   '####,        
                  ,##################################################,,,,####,       
                ,###########''''           ''''###############################       
              ,#####''   ,,,,##########,,,,          '''####'''          '####       
            ,##' ,,,,###########################,,,                        '##       
           ' ,,###''''                  '''############,,,                           
         ,,##''                                '''############,,,,        ,,,,,,###''
      ,#''                                            '''#######################'''  
     '                                                          ''''####''''         
             ,#######,   #######,   ,#######,      ##                                
            ,#'     '#,  ##    ##  ,#'     '#,    #''#        ######   ,####,        
            ##       ##  ##   ,#'  ##            #'  '#       #        #'  '#        
            ##       ##  #######   ##           ,######,      #####,   #    #        
            '#,     ,#'  ##    ##  '#,     ,#' ,#      #,         ##   #,  ,#        
             '#######'   ##     ##  '#######'  #'      '#     #####' # '####'        



                  #######################################################
                  #                        -***-                        #
                  #          Department of theory and spectroscopy      #
                  #    Directorship and core code : Frank Neese         #
                  #        Max Planck Institute fuer Kohlenforschung    #
                  #                Kaiser Wilhelm Platz 1               #
                  #                 D-45470 Muelheim/Ruhr               #
                  #                      Germany                        #
                  #                                                     #
                  #                  All rights reserved                #
                  #                        -***-                        #
                  #######################################################


                         Program Version 5.0.4 -  RELEASE  -


 With contributions from (in alphabetic order):
   Daniel Aravena         : Magnetic Suceptibility
   Michael Atanasov       : Ab Initio Ligand Field Theory (pilot matlab implementation)
   Alexander A. Auer      : GIAO ZORA, VPT2 properties, NMR spectrum
   Ute Becker             : Parallelization
   Giovanni Bistoni       : ED, misc. LED, open-shell LED, HFLD
   Martin Brehm           : Molecular dynamics
   Dmytro Bykov           : SCF Hessian
   Vijay G. Chilkuri      : MRCI spin determinant printing, contributions to CSF-ICE
   Dipayan Datta          : RHF DLPNO-CCSD density
   Achintya Kumar Dutta   : EOM-CC, STEOM-CC
   Dmitry Ganyushin       : Spin-Orbit,Spin-Spin,Magnetic field MRCI
   Miquel Garcia          : C-PCM and meta-GGA Hessian, CC/C-PCM, Gaussian charge scheme
   Yang Guo               : DLPNO-NEVPT2, F12-NEVPT2, CIM, IAO-localization
   Andreas Hansen         : Spin unrestricted coupled pair/coupled cluster methods
   Benjamin Helmich-Paris : MC-RPA, TRAH-SCF, COSX integrals
   Lee Huntington         : MR-EOM, pCC
   Robert Izsak           : Overlap fitted RIJCOSX, COSX-SCS-MP3, EOM
   Marcus Kettner         : VPT2
   Christian Kollmar      : KDIIS, OOCD, Brueckner-CCSD(T), CCSD density, CASPT2, CASPT2-K
   Simone Kossmann        : Meta GGA functionals, TD-DFT gradient, OOMP2, MP2 Hessian
   Martin Krupicka        : Initial AUTO-CI
   Lucas Lang             : DCDCAS
   Marvin Lechner         : AUTO-CI (C++ implementation), FIC-MRCC
   Dagmar Lenk            : GEPOL surface, SMD
   Dimitrios Liakos       : Extrapolation schemes; Compound Job, initial MDCI parallelization
   Dimitrios Manganas     : Further ROCIS development; embedding schemes
   Dimitrios Pantazis     : SARC Basis sets
   Anastasios Papadopoulos: AUTO-CI, single reference methods and gradients
   Taras Petrenko         : DFT Hessian,TD-DFT gradient, ASA, ECA, R-Raman, ABS, FL, XAS/XES, NRVS
   Peter Pinski           : DLPNO-MP2, DLPNO-MP2 Gradient
   Christoph Reimann      : Effective Core Potentials
   Marius Retegan         : Local ZFS, SOC
   Christoph Riplinger    : Optimizer, TS searches, QM/MM, DLPNO-CCSD(T), (RO)-DLPNO pert. Triples
   Tobias Risthaus        : Range-separated hybrids, TD-DFT gradient, RPA, STAB
   Michael Roemelt        : Original ROCIS implementation
   Masaaki Saitow         : Open-shell DLPNO-CCSD energy and density
   Barbara Sandhoefer     : DKH picture change effects
   Avijit Sen             : IP-ROCIS
   Kantharuban Sivalingam : CASSCF convergence, NEVPT2, FIC-MRCI
   Bernardo de Souza      : ESD, SOC TD-DFT
   Georgi Stoychev        : AutoAux, RI-MP2 NMR, DLPNO-MP2 response
   Willem Van den Heuvel  : Paramagnetic NMR
   Boris Wezisla          : Elementary symmetry handling
   Frank Wennmohs         : Technical directorship


 We gratefully acknowledge several colleagues who have allowed us to
 interface, adapt or use parts of their codes:
   Stefan Grimme, W. Hujo, H. Kruse, P. Pracht,  : VdW corrections, initial TS optimization,
                  C. Bannwarth, S. Ehlert          DFT functionals, gCP, sTDA/sTD-DF
   Ed Valeev, F. Pavosevic, A. Kumar             : LibInt (2-el integral package), F12 methods
   Garnet Chan, S. Sharma, J. Yang, R. Olivares  : DMRG
   Ulf Ekstrom                                   : XCFun DFT Library
   Mihaly Kallay                                 : mrcc  (arbitrary order and MRCC methods)
   Jiri Pittner, Ondrej Demel                    : Mk-CCSD
   Frank Weinhold                                : gennbo (NPA and NBO analysis)
   Christopher J. Cramer and Donald G. Truhlar   : smd solvation model
   Lars Goerigk                                  : TD-DFT with DH, B97 family of functionals
   V. Asgeirsson, H. Jonsson                     : NEB implementation
   FAccTs GmbH                                   : IRC, NEB, NEB-TS, DLPNO-Multilevel, CI-OPT
                                                   MM, QMMM, 2- and 3-layer-ONIOM, Crystal-QMMM,
                                                   LR-CPCM, SF, NACMEs, symmetry and pop. for TD-DFT,
                                                   nearIR, NL-DFT gradient (VV10), updates on ESD,
                                                   ML-optimized integration grids
   S Lehtola, MJT Oliveira, MAL Marques          : LibXC Library
   Liviu Ungur et al                             : ANISO software


 Your calculation uses the libint2 library for the computation of 2-el integrals
 For citations please refer to: http://libint.valeyev.net

 Your ORCA version has been built with support for libXC version: 5.1.0
 For citations please refer to: https://tddft.org/programs/libxc/

 This ORCA versions uses:
   CBLAS   interface :  Fast vector & matrix operations
   LAPACKE interface :  Fast linear algebra routines
   SCALAPACK package :  Parallel linear algebra routines
   Shared memory     :  Shared parallel matrices
   BLAS/LAPACK       :  OpenBLAS 0.3.15  USE64BITINT DYNAMIC_ARCH NO_AFFINITY SkylakeX SINGLE_THREADED
        Core in use  :  SkylakeX
   Copyright (c) 2011-2014, The OpenBLAS Project




***************************************
The coordinates will be read from file: reaction-1-rct-xtb.xyz
***************************************


Your calculation utilizes the geometrical counterpoise correction gCP
Please cite in your paper:
H.Kruse, S. Grimme J.Chem.Phys., 136, (2012), 154101 
   

Your calculation utilizes the atom-pairwise dispersion correction
with the Becke-Johnson damping scheme (D3BJ)
Cite in your paper:
S.Grimme, S.Ehrlich, L.Goerigk, J Comput Chem, (2011), 32, 1456–1465 
S.Grimme, J.Antony, S.Ehrlich and H.Krieg, J.Chem.Phys., 132, (2010), 154104 
   

Your calculation employs the composite approach PBEh-3c.
Please cite in your paper:
S. Grimme, J. G. Brandenburg, C. Bannwarth, A. Hansen J.Chem.Phys., 143, (2015), 054107 
   

================================================================================

cite the ECPs for Pd [Def2-ECP] as follows:
Ce-Yb(ecp-28): M. Dolg, H. Stoll, H.Preuss, J. Chem. Phys., 1989, 90, 1730-1734.
Y-Cd(ecp-28), Hf-Hg(ecp-46): D. Andrae,U. Haeussermann, M. Dolg, H. Stoll, H. Preuss, Theor. Chim. Acta, 1990, 77, 123-141.
In-Sb(ecp-28), Tl-Bi(ecp-46): B. Metz, H. Stoll, M. Dolg, J. Chem. Phys., 2000, 113, 2563-2569.
Te-Xe(ecp-28), Po-Rn(ecp-46): K. A. Peterson, D. Figgen, E. Goll, H. Stoll, M. Dolg, J. Chem. Phys., 2003, 119, 11113-11123.
Rb(ecp-28), Cs(ecp-46): T. Leininger, A. Nicklass, W. Kuechle, H. Stoll, M. Dolg, A. Bergner, Chem. Phys. Lett., 1996, 255, 274-280.
Sr(ecp-28), Ba(ecp-46): M. Kaupp, P. V. Schleyer, H. Stoll and H. Preuss, J. Chem. Phys., 1991, 94, 1360-1366.
La(ecp-46): M. Dolg, H. Stoll, A. Savin, H. Preuss, Theor. Chim. Acta, 1989, 75, 173-194.
Lu(ecp-28): X. Cao, M. Dolg, J. Chem. Phys., 2001, 115, 7348-7355.

ECP parameters for Pd [Def2-ECP] have been obtained from:
TURBOMOLE (7.0.2)

----- Orbital basis set information -----
Your calculation utilizes the basis: def2-mSVP

----- AuxJ basis set information -----
Your calculation utilizes the auxiliary basis: def2/J
   F. Weigend, Phys. Chem. Chem. Phys. 8, 1057 (2006).

================================================================================
                                        WARNINGS
                       Please study these warnings very carefully!
================================================================================


WARNING: Geometry Optimization
  ===> : Switching off AutoStart
         For restart on a previous wavefunction, please use MOREAD

INFO   : the flag for use of the SHARK integral package has been found!

================================================================================
                                       INPUT FILE
================================================================================
NAME = reaction-1-rct-pbeh3c-orca_opt.inp
|  1> ! PBEh-3c OPT pal4
|  2> 
|  3> %geom
|  4>  maxiter 600
|  5> end 
|  6> 
|  7> *xyzfile 0 1 reaction-1-rct-xtb.xyz
|  8> 
|  9>                          ****END OF INPUT****
================================================================================

                       *****************************
                       * Geometry Optimization Run *
                       *****************************

Geometry optimization settings:
Update method            Update   .... BFGS
Choice of coordinates    CoordSys .... Z-matrix Internals
Initial Hessian          InHess   .... Almoef's Model

Convergence Tolerances:
Energy Change            TolE     ....  5.0000e-06 Eh
Max. Gradient            TolMAXG  ....  3.0000e-04 Eh/bohr
RMS Gradient             TolRMSG  ....  1.0000e-04 Eh/bohr
Max. Displacement        TolMAXD  ....  4.0000e-03 bohr
RMS Displacement         TolRMSD  ....  2.0000e-03 bohr
Strict Convergence                ....  False
------------------------------------------------------------------------------
                        ORCA OPTIMIZATION COORDINATE SETUP
------------------------------------------------------------------------------

The optimization will be done in new redundant internal coordinates
Making redundant internal coordinates   ...  (new redundants) done
Evaluating the initial hessian          ...  (Almloef) done
Evaluating the coordinates              ...  done
Calculating the B-matrix                .... done
Calculating the G-matrix                .... done
Diagonalizing the G-matrix              .... done
Small eigenvalue found = 2.965e-02
The first mode is                       ....  237
The number of degrees of freedom        ....  108

    -----------------------------------------------------------------
                    Redundant Internal Coordinates


    -----------------------------------------------------------------
         Definition                    Initial Value    Approx d2E/dq
    -----------------------------------------------------------------
      1. B(O   1,Pd  0)                  2.0534         0.495013   
      2. B(C   2,Pd  0)                  2.3858         0.162977   
      3. B(C   2,O   1)                  1.2554         0.917570   
      4. B(O   3,C   2)                  1.2595         0.903976   
      5. B(O   3,Pd  0)                  2.0689         0.467667   
      6. B(C   4,C   2)                  1.5076         0.405569   
      7. B(H   5,C   4)                  1.0865         0.364790   
      8. B(H   6,C   4)                  1.0886         0.361901   
      9. B(H   7,C   4)                  1.0861         0.365282   
     10. B(N   8,Pd  0)                  2.1099         0.402272   
     11. B(C   9,N   8)                  1.4621         0.429374   
     12. B(H  10,C   9)                  1.0904         0.359620   
     13. B(H  11,C   9)                  1.0975         0.350282   
     14. B(H  12,C   9)                  1.0890         0.361484   
     15. B(C  13,N   8)                  1.4652         0.424581   
     16. B(H  14,C  13)                  1.0905         0.359440   
     17. B(H  15,C  13)                  1.0990         0.348453   
     18. B(H  16,C  13)                  1.0939         0.355021   
     19. B(C  18,C  17)                  1.4036         0.594261   
     20. B(C  18,Pd  0)                  2.7212         0.047539   
     21. B(C  19,C  18)                  1.3879         0.629528   
     22. B(C  20,C  19)                  1.3876         0.630375   
     23. B(C  21,C  20)                  1.3824         0.642413   
     24. B(C  22,C  21)                  1.3873         0.630954   
     25. B(C  22,C  17)                  1.3867         0.632516   
     26. B(H  23,C  20)                  1.0800         0.373595   
     27. B(H  24,C  21)                  1.0797         0.373945   
     28. B(H  25,C  18)                  1.0920         0.357409   
     29. B(H  26,C  19)                  1.0802         0.373248   
     30. B(H  27,C  22)                  1.0810         0.372182   
     31. B(C  28,N   8)                  1.4806         0.401150   
     32. B(C  28,C  17)                  1.5098         0.402324   
     33. B(H  29,C  28)                  1.0988         0.348681   
     34. B(H  30,C  28)                  1.0939         0.355006   
     35. B(O  31,Pd  0)                  2.0473         0.506112   
     36. B(C  32,O  31)                  1.2748         0.854391   
     37. B(C  32,Pd  0)                  2.6357         0.065077   
     38. B(O  33,C  32)                  1.2359         0.985730   
     39. B(O  33,Pd  0)                  2.5893         0.069116   
     40. B(C  34,C  32)                  1.5191         0.388885   
     41. B(H  35,C  34)                  1.0863         0.365037   
     42. B(H  36,C  34)                  1.0877         0.363101   
     43. B(H  37,C  34)                  1.0857         0.365830   
     44. A(C   2,Pd  0,O   3)           31.8434         0.406263   
     45. A(O   3,Pd  0,N   8)          102.9712         0.475985   
     46. A(C   2,Pd  0,C  18)           92.6571         0.279209   
     47. A(C  18,Pd  0,O  33)          148.3596         0.244729   
     48. A(N   8,Pd  0,O  33)           91.5599         0.340045   
     49. A(N   8,Pd  0,O  31)           91.6365         0.482967   
     50. A(O   1,Pd  0,N   8)          166.3375         0.480994   
     51. A(C   2,Pd  0,C  32)          125.1110         0.293220   
     52. A(O   1,Pd  0,O   3)           63.5852         0.494589   
     53. A(O   1,Pd  0,C  18)           95.7188         0.332163   
     54. A(O   1,Pd  0,O  31)          101.8409         0.501906   
     55. A(O   3,Pd  0,C  18)           88.8210         0.329056   
     56. A(O   1,Pd  0,C  32)           98.2656         0.350075   
     57. A(N   8,Pd  0,C  18)           80.9420         0.321009   
     58. A(C   2,Pd  0,O  31)          133.5744         0.411987   
     59. A(O   1,Pd  0,C   2)           31.7418         0.410370   
     60. A(C   2,Pd  0,N   8)          134.7711         0.395629   
     61. A(O   3,Pd  0,O  33)          122.8082         0.348752   
     62. A(O   1,Pd  0,O  33)           97.9268         0.352114   
     63. A(C  18,Pd  0,O  31)           94.0407         0.333387   
     64. A(C  18,Pd  0,C  32)          122.1961         0.243522   
     65. A(O  31,Pd  0,C  32)           28.1770         0.351389   
     66. A(O  31,Pd  0,O  33)           55.2473         0.353438   
     67. A(O   3,Pd  0,O  31)          165.3838         0.496630   
     68. A(C  32,Pd  0,O  33)           27.3454         0.256201   
     69. A(N   8,Pd  0,C  32)           94.6787         0.338100   
     70. A(O   3,Pd  0,C  32)          146.5891         0.346739   
     71. A(C   2,Pd  0,O  33)          113.5619         0.294816   
     72. A(Pd  0,O   1,C   2)           88.8849         0.497068   
     73. A(O   1,C   2,O   3)          119.4468         0.492948   
     74. A(Pd  0,C   2,O   1)           59.3733         0.408202   
     75. A(Pd  0,C   2,O   3)           60.0735         0.407126   
     76. A(O   3,C   2,C   4)          120.2644         0.427579   
     77. A(O   1,C   2,C   4)          120.2887         0.428725   
     78. A(Pd  0,O   3,C   2)           88.0831         0.490494   
     79. A(C   2,C   4,H   7)          109.8635         0.329513   
     80. A(C   2,C   4,H   6)          108.7326         0.329007   
     81. A(H   5,C   4,H   7)          110.9463         0.292087   
     82. A(H   5,C   4,H   6)          108.7395         0.291660   
     83. A(C   2,C   4,H   5)          109.7499         0.329440   
     84. A(H   6,C   4,H   7)          108.7632         0.291722   
     85. A(C  13,N   8,C  28)          110.6315         0.371300   
     86. A(Pd  0,N   8,C  28)          108.5134         0.411856   
     87. A(C   9,N   8,C  13)          108.6913         0.375678   
     88. A(Pd  0,N   8,C  13)          102.9463         0.416031   
     89. A(Pd  0,N   8,C   9)          115.7248         0.416864   
     90. A(C   9,N   8,C  28)          110.1075         0.372019   
     91. A(H  11,C   9,H  12)          109.2445         0.289755   
     92. A(H  10,C   9,H  12)          108.2210         0.290954   
     93. A(N   8,C   9,H  12)          109.9336         0.330062   
     94. A(H  10,C   9,H  11)          109.4319         0.289520   
     95. A(N   8,C   9,H  10)          109.1874         0.329780   
     96. A(N   8,C   9,H  11)          110.7781         0.328351   
     97. A(H  14,C  13,H  15)          109.3158         0.289260   
     98. A(N   8,C  13,H  15)          110.7347         0.327461   
     99. A(N   8,C  13,H  14)          110.0057         0.329142   
    100. A(H  15,C  13,H  16)          109.1239         0.288700   
    101. A(H  14,C  13,H  16)          108.6303         0.290108   
    102. A(N   8,C  13,H  16)          108.9931         0.328471   
    103. A(C  22,C  17,C  28)          121.8770         0.403309   
    104. A(C  18,C  17,C  28)          118.6158         0.398902   
    105. A(C  18,C  17,C  22)          119.4178         0.432320   
    106. A(C  19,C  18,H  25)          119.8442         0.353372   
    107. A(C  17,C  18,H  25)          120.1999         0.349945   
    108. A(Pd  0,C  18,H  25)           77.5804         0.259148   
    109. A(C  17,C  18,C  19)          119.7911         0.431952   
    110. A(Pd  0,C  18,C  19)          114.9103         0.312621   
    111. A(Pd  0,C  18,C  17)           81.9565         0.309722   
    112. A(C  20,C  19,H  26)          120.0922         0.356061   
    113. A(C  18,C  19,H  26)          119.7386         0.355980   
    114. A(C  18,C  19,C  20)          120.1692         0.436562   
    115. A(C  21,C  20,H  23)          119.9855         0.357263   
    116. A(C  19,C  20,H  23)          119.9373         0.356117   
    117. A(C  19,C  20,C  21)          120.0749         0.438160   
    118. A(C  22,C  21,H  24)          119.7085         0.356229   
    119. A(C  20,C  21,H  24)          120.1540         0.357320   
    120. A(C  20,C  21,C  22)          120.1340         0.438232   
    121. A(C  21,C  22,H  27)          119.6314         0.355944   
    122. A(C  17,C  22,H  27)          119.9834         0.356093   
    123. A(C  17,C  22,C  21)          120.3850         0.437007   
    124. A(N   8,C  28,C  17)          110.1039         0.370195   
    125. A(H  29,C  28,H  30)          108.8909         0.288727   
    126. A(C  17,C  28,H  30)          109.0085         0.327530   
    127. A(N   8,C  28,H  30)          107.7688         0.325411   
    128. A(C  17,C  28,H  29)          111.1181         0.326562   
    129. A(N   8,C  28,H  29)          109.8740         0.324451   
    130. A(Pd  0,O  31,C  32)          102.5040         0.492552   
    131. A(O  33,C  32,C  34)          120.8967         0.431012   
    132. A(O  31,C  32,C  34)          116.4326         0.420120   
    133. A(Pd  0,C  32,C  34)          163.1911         0.304294   
    134. A(O  31,C  32,O  33)          122.6466         0.494343   
    135. A(Pd  0,C  32,O  33)           74.2371         0.352553   
    136. A(Pd  0,C  32,O  31)           49.3190         0.344160   
    137. A(Pd  0,O  33,C  32)           78.4175         0.354612   
    138. A(H  36,C  34,H  37)          108.9541         0.291943   
    139. A(H  35,C  34,H  37)          110.8913         0.292187   
    140. A(C  32,C  34,H  37)          109.8308         0.327318   
    141. A(H  35,C  34,H  36)          108.6336         0.291843   
    142. A(C  32,C  34,H  36)          108.3225         0.326914   
    143. A(C  32,C  34,H  35)          110.1508         0.327201   
    144. D(C   2,O   1,Pd  0,C  18)    -85.7949         0.002868   
    145. D(C   2,O   1,Pd  0,O  31)    178.8486         0.002868   
    146. D(C   2,O   1,Pd  0,O  33)    122.8253         0.002868   
    147. D(C   2,O   1,Pd  0,O   3)      0.0283         0.002868   
    148. D(C   2,O   1,Pd  0,N   8)    -10.7390         0.002868   
    149. D(C   2,O   1,Pd  0,C  32)    150.4494         0.002868   
    150. D(O   1,C   2,Pd  0,O   3)   -179.9520         0.001655   
    151. D(O   3,C   2,Pd  0,O  31)    178.3965         0.001655   
    152. D(O   3,C   2,Pd  0,O  33)    114.7218         0.001655   
    153. D(O   3,C   2,Pd  0,C  18)    -83.4677         0.001655   
    154. D(O   1,C   2,Pd  0,C  32)    -36.6292         0.001655   
    155. D(O   1,C   2,Pd  0,N   8)    176.4456         0.001655   
    156. D(O   3,C   2,Pd  0,O   1)    179.9520         0.001655   
    157. D(O   3,C   2,Pd  0,C  32)    143.3228         0.001655   
    158. D(O   1,C   2,Pd  0,O  31)     -1.5555         0.001655   
    159. D(O   1,C   2,Pd  0,O  33)    -65.2302         0.001655   
    160. D(C   4,C   2,O   1,Pd  0)    179.8867         0.074445   
    161. D(O   3,C   2,Pd  0,N   8)     -3.6024         0.001655   
    162. D(O   1,C   2,Pd  0,C  18)     96.5803         0.001655   
    163. D(O   3,C   2,O   1,Pd  0)     -0.0478         0.074445   
    164. D(C   2,O   3,Pd  0,O  33)    -82.1532         0.002721   
    165. D(C   2,O   3,Pd  0,C  18)     96.9510         0.002721   
    166. D(C   2,O   3,Pd  0,N   8)    177.3764         0.002721   
    167. D(C   2,O   3,Pd  0,O   1)     -0.0282         0.002721   
    168. D(C   2,O   3,Pd  0,C  32)    -62.5443         0.002721   
    169. D(C   2,O   3,Pd  0,O  31)     -4.6081         0.002721   
    170. D(Pd  0,O   3,C   2,O   1)      0.0474         0.071950   
    171. D(Pd  0,O   3,C   2,C   4)   -179.8871         0.071950   
    172. D(H   7,C   4,Pd  0,C  32)    -63.7029         0.001500   
    173. D(H   7,C   4,C   2,O   1)    -27.1072         0.013038   
    174. D(H   6,C   4,C   2,O   3)    -88.2493         0.013038   
    175. D(H   6,C   4,C   2,O   1)     91.8168         0.013038   
    176. D(H   5,C   4,C   2,O   3)     30.5794         0.013038   
    177. D(H   7,C   4,Pd  0,O  33)    -92.3214         0.001500   
    178. D(H   5,C   4,Pd  0,N   8)     27.0446         0.001500   
    179. D(H   5,C   4,C   2,O   1)   -149.3545         0.013038   
    180. D(H   7,C   4,Pd  0,C  18)     69.4242         0.001500   
    181. D(H   7,C   4,Pd  0,O   1)    -27.2114         0.001500   
    182. D(H   6,C   4,Pd  0,O  31)     90.1734         0.001500   
    183. D(H   7,C   4,Pd  0,N   8)    149.2500         0.001500   
    184. D(H   6,C   4,Pd  0,C  32)     55.1366         0.001500   
    185. D(H   6,C   4,Pd  0,O  33)     26.5181         0.001500   
    186. D(H   7,C   4,Pd  0,O   3)    152.9587         0.001500   
    187. D(H   7,C   4,Pd  0,O  31)    -28.6661         0.001500   
    188. D(H   6,C   4,Pd  0,O   3)    -88.2018         0.001500   
    189. D(H   6,C   4,Pd  0,O   1)     91.6281         0.001500   
    190. D(H   5,C   4,Pd  0,O  33)    145.4732         0.001500   
    191. D(H   5,C   4,Pd  0,O   3)     30.7532         0.001500   
    192. D(H   5,C   4,Pd  0,C  32)    174.0916         0.001500   
    193. D(H   5,C   4,Pd  0,O   1)   -149.4168         0.001500   
    194. D(H   6,C   4,Pd  0,C  18)   -171.7363         0.001500   
    195. D(H   5,C   4,Pd  0,C  18)    -52.7812         0.001500   
    196. D(H   7,C   4,C   2,O   3)    152.8267         0.013038   
    197. D(H   6,C   4,Pd  0,N   8)    -91.9105         0.001500   
    198. D(H   5,C   4,Pd  0,O  31)   -150.8716         0.001500   
    199. D(C   9,N   8,Pd  0,O  33)     22.9984         0.002504   
    200. D(C   9,N   8,Pd  0,C  32)     -4.2131         0.002504   
    201. D(C   9,N   8,Pd  0,O  31)    -32.2722         0.002504   
    202. D(C   9,N   8,Pd  0,O   1)    157.1134         0.002504   
    203. D(C   9,N   8,Pd  0,C   2)    149.1764         0.002504   
    204. D(C   9,N   8,Pd  0,C  18)   -126.1040         0.002504   
    205. D(C  13,N   8,Pd  0,O   1)     38.7045         0.002504   
    206. D(C   9,N   8,Pd  0,O   3)    147.2269         0.002504   
    207. D(C  28,N   8,Pd  0,O  33)    147.3148         0.002504   
    208. D(C  28,N   8,Pd  0,O  31)     92.0443         0.002504   
    209. D(C  28,N   8,Pd  0,C  32)    120.1034         0.002504   
    210. D(C  28,N   8,Pd  0,C  18)     -1.7876         0.002504   
    211. D(C  28,N   8,Pd  0,O   3)    -88.4566         0.002504   
    212. D(C  28,N   8,Pd  0,C   2)    -86.5071         0.002504   
    213. D(C  28,N   8,Pd  0,O   1)    -78.5701         0.002504   
    214. D(C  13,N   8,Pd  0,O  33)    -95.4105         0.002504   
    215. D(C  13,N   8,Pd  0,C  32)   -122.6220         0.002504   
    216. D(C  13,N   8,Pd  0,O  31)   -150.6811         0.002504   
    217. D(C  13,N   8,Pd  0,C  18)    115.4871         0.002504   
    218. D(C  13,N   8,Pd  0,O   3)     28.8180         0.002504   
    219. D(C  13,N   8,Pd  0,C   2)     30.7675         0.002504   
    220. D(H  12,C   9,N   8,C  28)    -60.0388         0.016843   
    221. D(H  12,C   9,N   8,C  13)    178.6308         0.016843   
    222. D(H  12,C   9,N   8,Pd  0)     63.4465         0.016843   
    223. D(H  11,C   9,N   8,C  28)     60.7982         0.016843   
    224. D(H  11,C   9,N   8,C  13)    -60.5323         0.016843   
    225. D(H  11,C   9,N   8,Pd  0)   -175.7166         0.016843   
    226. D(H  10,C   9,N   8,C  28)   -178.6182         0.016843   
    227. D(H  10,C   9,N   8,C  13)     60.0513         0.016843   
    228. D(H  10,C   9,N   8,Pd  0)    -55.1330         0.016843   
    229. D(H  16,C  13,N   8,C  28)    176.2697         0.016467   
    230. D(H  16,C  13,N   8,C   9)    -62.7215         0.016467   
    231. D(H  16,C  13,N   8,Pd  0)     60.5042         0.016467   
    232. D(H  14,C  13,N   8,C   9)    178.2749         0.016467   
    233. D(H  14,C  13,N   8,C  28)     57.2661         0.016467   
    234. D(H  15,C  13,N   8,C   9)     57.3293         0.016467   
    235. D(H  14,C  13,N   8,Pd  0)    -58.4994         0.016467   
    236. D(H  15,C  13,N   8,C  28)    -63.6795         0.016467   
    237. D(H  15,C  13,N   8,Pd  0)   -179.4450         0.016467   
    238. D(H  25,C  18,C  17,C  28)     -9.2838         0.026416   
    239. D(H  25,C  18,C  17,C  22)    174.0885         0.026416   
    240. D(C  19,C  18,C  17,C  22)     -1.2384         0.026416   
    241. D(Pd  0,C  18,C  17,C  28)     61.2311         0.026416   
    242. D(Pd  0,C  18,C  17,C  22)   -115.3967         0.026416   
    243. D(H  25,C  18,Pd  0,O  33)     16.4865         0.001515   
    244. D(H  25,C  18,Pd  0,C  32)      4.7466         0.001515   
    245. D(H  25,C  18,Pd  0,O  31)      3.5719         0.001515   
    246. D(H  25,C  18,Pd  0,N   8)     94.5878         0.001515   
    247. D(H  25,C  18,Pd  0,C   2)   -130.4582         0.001515   
    248. D(H  25,C  18,Pd  0,O   1)    -98.7737         0.001515   
    249. D(C  19,C  18,Pd  0,O  33)    133.8454         0.001515   
    250. D(C  19,C  18,Pd  0,C  32)    122.1055         0.001515   
    251. D(C  19,C  18,Pd  0,O  31)    120.9309         0.001515   
    252. D(C  19,C  18,Pd  0,N   8)   -148.0533         0.001515   
    253. D(H  25,C  18,Pd  0,O   3)   -162.0783         0.001515   
    254. D(C  19,C  18,Pd  0,O   3)    -44.7193         0.001515   
    255. D(C  19,C  18,Pd  0,C   2)    -13.0992         0.001515   
    256. D(C  19,C  18,Pd  0,O   1)     18.5852         0.001515   
    257. D(C  17,C  18,Pd  0,C  32)   -118.7104         0.001515   
    258. D(C  17,C  18,Pd  0,O  31)   -119.8851         0.001515   
    259. D(C  17,C  18,Pd  0,N   8)    -28.8692         0.001515   
    260. D(C  17,C  18,Pd  0,O  33)   -106.9705         0.001515   
    261. D(C  19,C  18,C  17,C  28)    175.3893         0.026416   
    262. D(C  17,C  18,Pd  0,O   3)     74.4647         0.001515   
    263. D(C  17,C  18,Pd  0,C   2)    106.0849         0.001515   
    264. D(C  17,C  18,Pd  0,O   1)    137.7693         0.001515   
    265. D(H  26,C  19,C  18,H  25)      4.4870         0.029861   
    266. D(H  26,C  19,C  18,C  17)    179.8306         0.029861   
    267. D(H  26,C  19,C  18,Pd  0)    -85.1152         0.029861   
    268. D(C  20,C  19,C  18,H  25)   -175.4473         0.029861   
    269. D(C  20,C  19,C  18,C  17)     -0.1036         0.029861   
    270. D(C  20,C  19,C  18,Pd  0)     94.9506         0.029861   
    271. D(H  23,C  20,C  19,H  26)      0.9819         0.027554   
    272. D(H  23,C  20,C  19,C  18)   -179.0841         0.027554   
    273. D(C  21,C  20,C  19,H  26)   -178.4613         0.027554   
    274. D(C  21,C  20,C  19,C  18)      1.4727         0.027554   
    275. D(H  24,C  21,C  20,H  23)     -0.2508         0.028688   
    276. D(H  24,C  21,C  20,C  19)    179.1921         0.028688   
    277. D(C  22,C  21,C  20,H  23)    179.0654         0.028688   
    278. D(C  22,C  21,C  20,C  19)     -1.4916         0.028688   
    279. D(H  27,C  22,C  21,C  20)   -179.7113         0.027608   
    280. D(C  17,C  22,C  21,H  24)    179.4529         0.027608   
    281. D(C  17,C  22,C  21,C  20)      0.1336         0.027608   
    282. D(H  27,C  22,C  17,C  28)      4.5571         0.027754   
    283. D(H  27,C  22,C  17,C  18)   -178.9291         0.027754   
    284. D(C  21,C  22,C  17,C  28)   -175.2873         0.027754   
    285. D(H  27,C  22,C  21,H  24)     -0.3920         0.027608   
    286. D(C  21,C  22,C  17,C  18)      1.2265         0.027754   
    287. D(H  30,C  28,C  17,C  22)   -144.5973         0.012006   
    288. D(H  30,C  28,C  17,C  18)     38.8620         0.012006   
    289. D(H  29,C  28,C  17,C  22)    -24.5874         0.012006   
    290. D(N   8,C  28,C  17,C  22)     97.3805         0.012006   
    291. D(N   8,C  28,C  17,C  18)    -79.1603         0.012006   
    292. D(H  30,C  28,N   8,C  13)    160.5528         0.014706   
    293. D(H  30,C  28,N   8,C   9)     40.3877         0.014706   
    294. D(H  30,C  28,N   8,Pd  0)    -87.2045         0.014706   
    295. D(H  29,C  28,N   8,C  13)     42.0396         0.014706   
    296. D(H  29,C  28,N   8,C   9)    -78.1254         0.014706   
    297. D(H  29,C  28,C  17,C  18)    158.8719         0.012006   
    298. D(H  29,C  28,N   8,Pd  0)    154.2824         0.014706   
    299. D(C  17,C  28,N   8,C  13)    -80.6628         0.014706   
    300. D(C  17,C  28,N   8,C   9)    159.1721         0.014706   
    301. D(C  17,C  28,N   8,Pd  0)     31.5799         0.014706   
    302. D(C  32,O  31,Pd  0,O  33)      6.0986         0.002930   
    303. D(C  32,O  31,Pd  0,C  18)    177.8945         0.002930   
    304. D(C  32,O  31,Pd  0,N   8)     96.8620         0.002930   
    305. D(C  32,O  31,Pd  0,O   3)    -81.2033         0.002930   
    306. D(C  32,O  31,Pd  0,C   2)    -84.5575         0.002930   
    307. D(C  32,O  31,Pd  0,O   1)    -85.3936         0.002930   
    308. D(C  34,C  32,O  31,Pd  0)    169.2295         0.063288   
    309. D(O  33,C  32,O  31,Pd  0)    -12.5442         0.063288   
    310. D(C  34,C  32,Pd  0,O  31)    -35.3571         0.001527   
    311. D(C  34,C  32,Pd  0,C  18)    -37.8392         0.001527   
    312. D(C  34,C  32,Pd  0,N   8)   -120.0728         0.001527   
    313. D(C  34,C  32,Pd  0,O   3)    117.7141         0.001527   
    314. D(C  34,C  32,Pd  0,C   2)     82.8024         0.001527   
    315. D(C  34,C  32,Pd  0,O   1)     64.3100         0.001527   
    316. D(O  33,C  32,Pd  0,O  31)    169.0458         0.001527   
    317. D(O  33,C  32,Pd  0,C  18)    166.5637         0.001527   
    318. D(O  33,C  32,Pd  0,N   8)     84.3301         0.001527   
    319. D(O  33,C  32,Pd  0,O   3)    -37.8830         0.001527   
    320. D(O  33,C  32,Pd  0,C   2)    -72.7947         0.001527   
    321. D(O  33,C  32,Pd  0,O   1)    -91.2871         0.001527   
    322. D(O  31,C  32,Pd  0,O  33)   -169.0458         0.001527   
    323. D(O  31,C  32,Pd  0,C  18)     -2.4821         0.001527   
    324. D(O  31,C  32,Pd  0,N   8)    -84.7157         0.001527   
    325. D(C  34,C  32,Pd  0,O  33)    155.5972         0.001527   
    326. D(O  31,C  32,Pd  0,O   3)    153.0712         0.001527   
    327. D(O  31,C  32,Pd  0,C   2)    118.1595         0.001527   
    328. D(O  31,C  32,Pd  0,O   1)     99.6671         0.001527   
    329. D(Pd  0,O  33,C  32,C  34)   -171.9966         0.087762   
    330. D(Pd  0,O  33,C  32,O  31)      9.8543         0.087762   
    331. D(C  32,O  33,Pd  0,O  31)     -6.2698         0.001530   
    332. D(C  32,O  33,Pd  0,C  18)    -22.0141         0.001530   
    333. D(C  32,O  33,Pd  0,N   8)    -97.1796         0.001530   
    334. D(C  32,O  33,Pd  0,O   3)    156.2786         0.001530   
    335. D(C  32,O  33,Pd  0,C   2)    121.5146         0.001530   
    336. D(C  32,O  33,Pd  0,O   1)     92.6789         0.001530   
    337. D(H  37,C  34,C  32,O  33)    -24.2962         0.012026   
    338. D(H  37,C  34,C  32,O  31)    153.9634         0.012026   
    339. D(H  37,C  34,C  32,Pd  0)   -176.6916         0.012026   
    340. D(H  36,C  34,C  32,O  33)     94.5952         0.012026   
    341. D(H  36,C  34,C  32,O  31)    -87.1452         0.012026   
    342. D(H  36,C  34,C  32,Pd  0)    -57.8002         0.012026   
    343. D(H  35,C  34,C  32,O  33)   -146.7166         0.012026   
    344. D(H  35,C  34,C  32,O  31)     31.5430         0.012026   
    345. D(H  35,C  34,C  32,Pd  0)     60.8880         0.012026   
    -----------------------------------------------------------------

Number of atoms                         .... 38
Number of degrees of freedom            .... 345

         *************************************************************
         *                GEOMETRY OPTIMIZATION CYCLE   1            *
         *************************************************************
---------------------------------
CARTESIAN COORDINATES (ANGSTROEM)
---------------------------------
  Pd     0.671800    0.209200   -0.447220
  O      2.147440    1.270160    0.508410
  C      1.292830    2.138270    0.811770
  O      0.097730    1.985330    0.444940
  C      1.693160    3.353110    1.609800
  H      0.857220    3.683170    2.220290
  H      1.959600    4.152210    0.920170
  H      2.556690    3.121440    2.226470
  N     -1.146340   -0.552080   -1.199750
  C     -1.047820   -1.320420   -2.439790
  H     -0.552660   -0.714010   -3.198720
  H     -2.043700   -1.611560   -2.797590
  H     -0.449660   -2.215420   -2.275460
  C     -1.927400    0.660070   -1.459240
  H     -2.040300    1.235140   -0.539600
  H     -2.921260    0.405620   -1.853180
  H     -1.397690    1.274650   -2.192890
  C     -1.443930   -0.817490    1.218830
  C     -0.187450   -1.116290    1.768540
  C      0.190930   -0.544470    2.975290
  C     -0.668250    0.321710    3.636290
  C     -1.917100    0.594460    3.109890
  C     -2.303550    0.027740    1.904000
  H     -0.364090    0.776090    4.567630
  H     -2.591710    1.258080    3.629820
  H      0.460160   -1.853940    1.289970
  H      1.157000   -0.777160    3.398940
  H     -3.280190    0.250290    1.497500
  C     -1.786660   -1.369290   -0.144110
  H     -2.874160   -1.394170   -0.299110
  H     -1.393940   -2.386990   -0.225520
  O      1.713870   -1.393870   -1.179260
  C      2.166130   -0.947680   -2.284480
  O      1.766860    0.106410   -2.791320
  C      3.206910   -1.804600   -2.984500
  H      3.027520   -2.855630   -2.776680
  H      4.187360   -1.536190   -2.597390
  H      3.184680   -1.611880   -4.052730

----------------------------
CARTESIAN COORDINATES (A.U.)
----------------------------
  NO LB      ZA    FRAG     MASS         X           Y           Z
   0 Pd   18.0000*   0   106.400    1.269518    0.395331   -0.845123
   1 O     8.0000    0    15.999    4.058073    2.400255    0.960756
   2 C     6.0000    0    12.011    2.443095    4.040745    1.534023
   3 O     8.0000    0    15.999    0.184683    3.751730    0.840815
   4 C     6.0000    0    12.011    3.199609    6.336460    3.042081
   5 H     1.0000    0     1.008    1.619911    6.960183    4.195740
   6 H     1.0000    0     1.008    3.703107    7.846540    1.738869
   7 H     1.0000    0     1.008    4.831444    5.898667    4.207419
   8 N     7.0000    0    14.007   -2.166269   -1.043280   -2.267199
   9 C     6.0000    0    12.011   -1.980093   -2.495232   -4.610535
  10 H     1.0000    0     1.008   -1.044376   -1.349283   -6.044705
  11 H     1.0000    0     1.008   -3.862033   -3.045407   -5.286679
  12 H     1.0000    0     1.008   -0.849734   -4.186537   -4.299996
  13 C     6.0000    0    12.011   -3.642258    1.247352   -2.757564
  14 H     1.0000    0     1.008   -3.855608    2.334076   -1.019696
  15 H     1.0000    0     1.008   -5.520381    0.766511   -3.502003
  16 H     1.0000    0     1.008   -2.641251    2.408739   -4.143962
  17 C     6.0000    0    12.011   -2.728632   -1.544832    2.303255
  18 C     6.0000    0    12.011   -0.354229   -2.109482    3.342056
  19 C     6.0000    0    12.011    0.360805   -1.028899    5.622483
  20 C     6.0000    0    12.011   -1.262809    0.607944    6.871592
  21 C     6.0000    0    12.011   -3.622794    1.123367    5.876840
  22 C     6.0000    0    12.011   -4.353079    0.052421    3.598039
  23 H     1.0000    0     1.008   -0.688030    1.466598    8.631570
  24 H     1.0000    0     1.008   -4.897622    2.377427    6.859366
  25 H     1.0000    0     1.008    0.869576   -3.503439    2.437690
  26 H     1.0000    0     1.008    2.186413   -1.468620    6.423066
  27 H     1.0000    0     1.008   -6.198661    0.472980    2.829865
  28 C     6.0000    0    12.011   -3.376298   -2.587583   -0.272328
  29 H     1.0000    0     1.008   -5.431375   -2.634599   -0.565236
  30 H     1.0000    0     1.008   -2.634165   -4.510757   -0.426171
  31 O     8.0000    0    15.999    3.238745   -2.634033   -2.228478
  32 C     6.0000    0    12.011    4.093392   -1.790856   -4.317042
  33 O     8.0000    0    15.999    3.338882    0.201086   -5.274830
  34 C     6.0000    0    12.011    6.060182   -3.410200   -5.639888
  35 H     1.0000    0     1.008    5.721184   -5.396359   -5.247165
  36 H     1.0000    0     1.008    7.912964   -2.902978   -4.908356
  37 H     1.0000    0     1.008    6.018173   -3.046012   -7.658550
* core charge reduced due to ECP

--------------------------------
INTERNAL COORDINATES (ANGSTROEM)
--------------------------------
 Pd     0   0   0     0.000000000000     0.00000000     0.00000000
 O      1   0   0     2.053382143708     0.00000000     0.00000000
 C      2   1   0     1.255388590756    88.88488804     0.00000000
 O      3   2   1     1.259451826193   119.44682483   359.95224936
 C      3   2   1     1.507631326087   120.28871980   179.88670131
 H      5   3   2     1.086477485869   109.74990519   210.64551840
 H      5   3   2     1.088641640073   108.73260433    91.81677081
 H      5   3   2     1.086110923755   109.86353551   332.89276863
 N      1   2   3     2.109853478064   166.33753506   349.26098617
 C      9   1   2     1.462105245049   115.72478716   157.11341907
 H     10   9   1     1.090362902249   109.18744667   304.86703591
 H     10   9   1     1.097524630248   110.77814738   184.28340506
 H     10   9   1     1.088955800067   109.93359911    63.44646426
 C      9   1   2     1.465161221914   102.94634800    38.70451543
 H     14   9   1     1.090499722375   110.00572445   301.50062021
 H     14   9   1     1.098950056054   110.73471862   180.55504077
 H     14   9   1     1.093866346041   108.99310697    60.50421500
 C      9   1   2     2.451230607797    77.98099716   299.47085131
 C     18   9   1     1.403639738145   107.50496634   325.81570154
 C     19  18   9     1.387946360383   119.79107181   139.64590864
 C     20  19  18     1.387580291298   120.16918604   359.89638805
 C     21  20  19     1.382431135717   120.07487242     1.47269599
 C     18   9   1     1.386657212941   119.78829765   106.52830529
 H     21  20  19     1.079985502495   119.93729010   180.91593742
 H     22  21  20     1.079730226214   120.15399106   179.19214962
 H     19  18   9     1.092041885415   120.19992864   314.97277546
 H     20  19  18     1.080238493806   119.73857897   179.83061248
 H     23  18   9     1.081016393076   119.98340718    44.96096816
 C      9   1   2     1.480613959174   108.51344360   281.42988563
 H     29   9   1     1.098772162188   109.87404546   154.28237125
 H     29   9   1     1.093878364582   107.76882382   272.79551813
 O      1   2   3     2.047346055605   101.84085724   178.84859886
 C     32   1   2     1.274808170706   102.50396585   274.60643922
 O     33  32   1     1.235883913076   122.64658386   347.45582194
 C     33  32   1     1.519066455163   116.43257261   169.22947117
 H     35  33  32     1.086293692056   110.15081373    31.54302374
 H     35  33  32     1.087740907891   108.32251568   272.85483091
 H     35  33  32     1.085702769730   109.83083800   153.96338269

---------------------------
INTERNAL COORDINATES (A.U.)
---------------------------
 Pd     0   0   0     0.000000000000     0.00000000     0.00000000
 O      1   0   0     3.880329899893     0.00000000     0.00000000
 C      2   1   0     2.372340628178    88.88488804     0.00000000
 O      3   2   1     2.380019030371   119.44682483   359.95224936
 C      3   2   1     2.849010317226   120.28871980   179.88670131
 H      5   3   2     2.053144898964   109.74990519   210.64551840
 H      5   3   2     2.057234557720   108.73260433    91.81677081
 H      5   3   2     2.052452196957   109.86353551   332.89276863
 N      1   2   3     3.987045256243   166.33753506   349.26098617
 C      9   1   2     2.762978492113   115.72478716   157.11341907
 H     10   9   1     2.060487271837   109.18744667   304.86703591
 H     10   9   1     2.074020976401   110.77814738   184.28340506
 H     10   9   1     2.057828234072   109.93359911    63.44646426
 C      9   1   2     2.768753451459   102.94634800    38.70451543
 H     14   9   1     2.060745824406   110.00572445   301.50062021
 H     14   9   1     2.076714640799   110.73471862   180.55504077
 H     14   9   1     2.067107821130   108.99310697    60.50421500
 C      9   1   2     4.632154539821    77.98099716   299.47085131
 C     18   9   1     2.652494695783   107.50496634   325.81570154
 C     19  18   9     2.622838509696   119.79107181   139.64590864
 C     20  19  18     2.622146739381   120.16918604   359.89638805
 C     21  20  19     2.612416245511   120.07487242     1.47269599
 C     18   9   1     2.620402374084   119.78829765   106.52830529
 H     21  20  19     2.040876828321   119.93729010   180.91593742
 H     22  21  20     2.040394426061   120.15399106   179.19214962
 H     19  18   9     2.063660090205   120.19992864   314.97277546
 H     20  19  18     2.041354912613   119.73857897   179.83061248
 H     23  18   9     2.042824929194   119.98340718    44.96096816
 C      9   1   2     2.797954892899   108.51344360   281.42988563
 H     29   9   1     2.076378470112   109.87404546   154.28237125
 H     29   9   1     2.067130532881   107.76882382   272.79551813
 O      1   2   3     3.868923346457   101.84085724   178.84859886
 C     32   1   2     2.409038315920   102.50396585   274.60643922
 O     33  32   1     2.335482129033   122.64658386   347.45582194
 C     33  32   1     2.870619579484   116.43257261   169.22947117
 H     35  33  32     2.052797578991   110.15081373    31.54302374
 H     35  33  32     2.055532420577   108.32251568   272.85483091
 H     35  33  32     2.051680897630   109.83083800   153.96338269

---------------------
BASIS SET INFORMATION
---------------------
There are 5 groups of distinct atoms

 Group   1 Type Pd  : 7s6p5d1f contracted to 5s3p2d1f pattern {31111/411/41/1}
 Group   2 Type O   : 8s4p1d contracted to 4s2p1d pattern {5111/31/1}
 Group   3 Type C   : 8s4p1d contracted to 4s2p1d pattern {5111/31/1}
 Group   4 Type H   : 4s contracted to 2s pattern {31}
 Group   5 Type N   : 8s4p1d contracted to 4s2p1d pattern {5111/31/1}

Atom   0Pd   basis set group =>   1
Atom   1O    basis set group =>   2
Atom   2C    basis set group =>   3
Atom   3O    basis set group =>   2
Atom   4C    basis set group =>   3
Atom   5H    basis set group =>   4
Atom   6H    basis set group =>   4
Atom   7H    basis set group =>   4
Atom   8N    basis set group =>   5
Atom   9C    basis set group =>   3
Atom  10H    basis set group =>   4
Atom  11H    basis set group =>   4
Atom  12H    basis set group =>   4
Atom  13C    basis set group =>   3
Atom  14H    basis set group =>   4
Atom  15H    basis set group =>   4
Atom  16H    basis set group =>   4
Atom  17C    basis set group =>   3
Atom  18C    basis set group =>   3
Atom  19C    basis set group =>   3
Atom  20C    basis set group =>   3
Atom  21C    basis set group =>   3
Atom  22C    basis set group =>   3
Atom  23H    basis set group =>   4
Atom  24H    basis set group =>   4
Atom  25H    basis set group =>   4
Atom  26H    basis set group =>   4
Atom  27H    basis set group =>   4
Atom  28C    basis set group =>   3
Atom  29H    basis set group =>   4
Atom  30H    basis set group =>   4
Atom  31O    basis set group =>   2
Atom  32C    basis set group =>   3
Atom  33O    basis set group =>   2
Atom  34C    basis set group =>   3
Atom  35H    basis set group =>   4
Atom  36H    basis set group =>   4
Atom  37H    basis set group =>   4
---------------------------------
AUXILIARY/J BASIS SET INFORMATION
---------------------------------
There are 5 groups of distinct atoms

 Group   1 Type Pd  : 11s5p5d3f3g contracted to 8s5p5d2f3g pattern {41111111/11111/11111/21/111}
 Group   2 Type O   : 12s5p4d2f1g contracted to 6s4p3d1f1g pattern {711111/2111/211/2/1}
 Group   3 Type C   : 12s5p4d2f1g contracted to 6s4p3d1f1g pattern {711111/2111/211/2/1}
 Group   4 Type H   : 5s2p1d contracted to 3s1p1d pattern {311/2/1}
 Group   5 Type N   : 12s5p4d2f1g contracted to 6s4p3d1f1g pattern {711111/2111/211/2/1}

Atom   0Pd   basis set group =>   1
Atom   1O    basis set group =>   2
Atom   2C    basis set group =>   3
Atom   3O    basis set group =>   2
Atom   4C    basis set group =>   3
Atom   5H    basis set group =>   4
Atom   6H    basis set group =>   4
Atom   7H    basis set group =>   4
Atom   8N    basis set group =>   5
Atom   9C    basis set group =>   3
Atom  10H    basis set group =>   4
Atom  11H    basis set group =>   4
Atom  12H    basis set group =>   4
Atom  13C    basis set group =>   3
Atom  14H    basis set group =>   4
Atom  15H    basis set group =>   4
Atom  16H    basis set group =>   4
Atom  17C    basis set group =>   3
Atom  18C    basis set group =>   3
Atom  19C    basis set group =>   3
Atom  20C    basis set group =>   3
Atom  21C    basis set group =>   3
Atom  22C    basis set group =>   3
Atom  23H    basis set group =>   4
Atom  24H    basis set group =>   4
Atom  25H    basis set group =>   4
Atom  26H    basis set group =>   4
Atom  27H    basis set group =>   4
Atom  28C    basis set group =>   3
Atom  29H    basis set group =>   4
Atom  30H    basis set group =>   4
Atom  31O    basis set group =>   2
Atom  32C    basis set group =>   3
Atom  33O    basis set group =>   2
Atom  34C    basis set group =>   3
Atom  35H    basis set group =>   4
Atom  36H    basis set group =>   4
Atom  37H    basis set group =>   4
-------------------------
ECP PARAMETER INFORMATION
-------------------------

 Group 1, Type Pd ECP Def2-ECP (replacing 28 core electrons, lmax=3)

Atom   0Pd   ECP group =>   1



           ************************************************************
           *        Program running with 4 parallel MPI-processes     *
           *              working on a common directory               *
           ************************************************************
------------------------------------------------------------------------------
                           ORCA GTO INTEGRAL CALCULATION
                           -- RI-GTO INTEGRALS CHOSEN --
------------------------------------------------------------------------------
------------------------------------------------------------------------------
                   ___                                                        
                  /   \      - P O W E R E D   B Y -                         
                 /     \                                                     
                 |  |  |   _    _      __       _____    __    __             
                 |  |  |  | |  | |    /  \     |  _  \  |  |  /  |          
                  \  \/   | |  | |   /    \    | | | |  |  | /  /          
                 / \  \   | |__| |  /  /\  \   | |_| |  |  |/  /          
                |  |  |   |  __  | /  /__\  \  |    /   |      \           
                |  |  |   | |  | | |   __   |  |    \   |  |\   \          
                \     /   | |  | | |  |  |  |  | |\  \  |  | \   \       
                 \___/    |_|  |_| |__|  |__|  |_| \__\ |__|  \__/        
                                                                              
                      - O R C A' S   B I G   F R I E N D -                    
                                      &                                       
                       - I N T E G R A L  F E E D E R -                       
                                                                              
 v1 FN, 2020, v2 2021                                                         
------------------------------------------------------------------------------


Reading SHARK input file reaction-1-rct-pbeh3c-orca_opt.SHARKINP.tmp ... ok
----------------------
SHARK INTEGRAL PACKAGE
----------------------

Number of atoms                             ...     38
Number of basis functions                   ...    339
Number of shells                            ...    175
Maximum angular momentum                    ...      3
Integral batch strategy                     ... SHARK/LIBINT Hybrid
RI-J (if used) integral strategy            ... SPLIT-RIJ (Revised 2003 algorithm where possible)
Printlevel                                  ...      1
Contraction scheme used                     ... SEGMENTED contraction
Coulomb Range Separation                    ... NOT USED
Exchange Range Separation                   ... NOT USED
Finite Nucleus Model                        ... NOT USED
Auxiliary Coulomb fitting basis             ... AVAILABLE
   # of basis functions in Aux-J            ...   1180
   # of shells in Aux-J                     ...    388
   Maximum angular momentum in Aux-J        ...      4
Auxiliary J/K fitting basis                 ... NOT available
Auxiliary Correlation fitting basis         ... NOT available
Auxiliary 'external' fitting basis          ... NOT available
Integral threshold                          ...     2.500000e-11
Primitive cut-off                           ...     2.500000e-12
Primitive pair pre-selection threshold      ...     2.500000e-12

Calculating pre-screening integrals         ... done (  0.0 sec) Dimension = 175
Organizing shell pair data                  ... done (  0.1 sec)
Shell pair information
Total number of shell pairs                 ...     15400
Shell pairs after pre-screening             ...     11568
Total number of primitive shell pairs       ...     54591
Primitive shell pairs kept                  ...     26076
          la=0 lb=0:   4465 shell pairs
          la=1 lb=0:   3763 shell pairs
          la=1 lb=1:    739 shell pairs
          la=2 lb=0:   1592 shell pairs
          la=2 lb=1:    691 shell pairs
          la=2 lb=2:    164 shell pairs
          la=3 lb=0:     94 shell pairs
          la=3 lb=1:     39 shell pairs
          la=3 lb=2:     20 shell pairs
          la=3 lb=3:      1 shell pairs

Calculating one electron integrals          ... done (  0.0 sec)
Calculating ECP integrals                   ... done (  0.4 sec)
Calculating RI/J V-Matrix + Cholesky decomp.... done (  0.1 sec)
Calculating Nuclear repulsion               ... done (  0.0 sec) ENN=   1823.150177609954 Eh

SHARK setup successfully completed in   1.3 seconds

Maximum memory used throughout the entire GTOINT-calculation: 25.1 MB


           ************************************************************
           *        Program running with 4 parallel MPI-processes     *
           *              working on a common directory               *
           ************************************************************
-------------------------------------------------------------------------------
                                 ORCA SCF
-------------------------------------------------------------------------------

------------
SCF SETTINGS
------------
Hamiltonian:
 Density Functional     Method          .... DFT(GTOs)
 Exchange Functional    Exchange        .... PBE
   PBE kappa parameter   XKappa         ....  1.024500
   PBE mue parameter    XMuePBE         ....  0.123457
 Correlation Functional Correlation     .... PBE
   PBE beta parameter  CBetaPBE         ....  0.030000
 LDA part of GGA corr.  LDAOpt          .... PW91-LDA
 Gradients option       PostSCFGGA      .... off
 Hybrid DFT is turned on
   Fraction HF Exchange ScalHFX         ....  0.420000
   Scaling of DF-GGA-X  ScalDFX         ....  0.580000
   Scaling of DF-GGA-C  ScalDFC         ....  1.000000
   Scaling of DF-LDA-C  ScalLDAC        ....  1.000000
   Perturbative correction              ....  0.000000
   Density functional embedding theory  .... OFF
 RI-approximation to the Coulomb term is turned on
   Number of AuxJ basis functions       .... 1180
   RIJ-ON(X) (HFX calculated with O(N)) .... on
   Number of AuxJ basis functions       .... 1180
   RIJ-COSX (HFX calculated with COS-X)).... on


General Settings:
 Integral files         IntName         .... reaction-1-rct-pbeh3c-orca_opt
 Hartree-Fock type      HFTyp           .... RHF
 Total Charge           Charge          ....    0
 Multiplicity           Mult            ....    1
 Number of Electrons    NEL             ....  154
 Basis Dimension        Dim             ....  339
 Nuclear Repulsion      ENuc            ....   1823.1501776100 Eh

Convergence Acceleration:
 DIIS                   CNVDIIS         .... on
   Start iteration      DIISMaxIt       ....    12
   Startup error        DIISStart       ....  0.200000
   # of expansion vecs  DIISMaxEq       ....     5
   Bias factor          DIISBfac        ....   1.050
   Max. coefficient     DIISMaxC        ....  10.000
 Trust-Rad. Augm. Hess. CNVTRAH         .... auto
   Auto Start mean grad. ratio tolernc. ....  1.125000
   Auto Start start iteration           ....    20
   Auto Start num. interpolation iter.  ....    10
   Max. Number of Micro iterations      ....    16
   Max. Number of Macro iterations      .... Maxiter - #DIIS iter
   Number of Davidson start vectors     ....     2
   Converg. threshold I  (grad. norm)   ....   1.000e-05
   Converg. threshold II (energy diff.) ....   1.000e-08
   Grad. Scal. Fac. for Micro threshold ....   0.100
   Minimum threshold for Micro iter.    ....   0.010
   NR start threshold (gradient norm)   ....   0.001
   Initial trust radius                 ....   0.400
   Minimum AH scaling param. (alpha)    ....   1.000
   Maximum AH scaling param. (alpha)    .... 1000.000
   Orbital update algorithm             .... Taylor
   White noise on init. David. guess    .... on
   Maximum white noise                  ....   0.010
   Quad. conv. algorithm                .... NR
   COSX micro iterations for RIJONX calc.... off
 SOSCF                  CNVSOSCF        .... off
 Level Shifting         CNVShift        .... on
   Level shift para.    LevelShift      ....    0.2500
   Turn off err/grad.   ShiftErr        ....    0.0010
 Zerner damping         CNVZerner       .... off
 Static damping         CNVDamp         .... on
   Fraction old density DampFac         ....    0.7000
   Max. Damping (<1)    DampMax         ....    0.9800
   Min. Damping (>=0)   DampMin         ....    0.0000
   Turn off err/grad.   DampErr         ....    0.1000
 Fernandez-Rico         CNVRico         .... off

SCF Procedure:
 Maximum # iterations   MaxIter         ....   125
 SCF integral mode      SCFMode         .... Direct
   Integral package                     .... SHARK and LIBINT hybrid scheme
 Reset frequency        DirectResetFreq ....    20
 Integral Threshold     Thresh          ....  2.500e-11 Eh
 Primitive CutOff       TCut            ....  2.500e-12 Eh

Convergence Tolerance:
 Convergence Check Mode ConvCheckMode   .... Total+1el-Energy
 Convergence forced     ConvForced      .... 0
 Energy Change          TolE            ....  1.000e-08 Eh
 1-El. energy change                    ....  1.000e-05 Eh
 DIIS Error             TolErr          ....  5.000e-07


Diagonalization of the overlap matrix:
Smallest eigenvalue                        ... 3.978e-04
Time for diagonalization                   ...    0.020 sec
Threshold for overlap eigenvalues          ... 1.000e-08
Number of eigenvalues below threshold      ... 0
Time for construction of square roots      ...    0.008 sec
Total time needed                          ...    0.031 sec

--------------------------------
INITIAL GUESS: MINIMAL BASIS EHT
--------------------------------
The minimal basis has 122 functions
EHT matrix was diagonalized
Basis set overlap was calculated now projecting the orbitals
Using GuessMode=FMatrix for the initial guess
C*T matrix was formed
Effective Fockian was calculated
Effective Fockian was diagonalized
Initial density was built
                      ------------------
                      INITIAL GUESS DONE
                      ------------------
-------------------
DFT GRID GENERATION
-------------------

General Integration Accuracy     IntAcc      ... 4.159
Radial Grid Type                 RadialGrid  ... OptM3 with GC (2021)
Angular Grid (max. ang.)         AngularGrid ... 3 (Lebedev-194)
Angular grid pruning method      GridPruning ... 4 (adaptive)
Weight generation scheme         WeightScheme... Becke
Basis function cutoff            BFCut       ... 1.0000e-11
Integration weight cutoff        WCut        ... 1.0000e-14
Angular grids for H and He will be reduced by one unit
Partially contracted basis set               ... off
Rotationally invariant grid construction     ... off

Total number of grid points                  ...    89655
Total number of batches                      ...     1419
Average number of points per batch           ...       63
Average number of grid points per atom       ...     2359
Time for grid setup =    0.521 sec

--------------------
COSX GRID GENERATION
--------------------

GRIDX 1
-------
General Integration Accuracy     IntAcc      ... 3.816
Radial Grid Type                 RadialGrid  ... OptM3 with GC (2021)
Angular Grid (max. ang.)         AngularGrid ... 1 (Lebedev-50)
Angular grid pruning method      GridPruning ... 4 (adaptive)
Weight generation scheme         WeightScheme... Becke
Basis function cutoff            BFCut       ... 1.0000e-11
Integration weight cutoff        WCut        ... 1.0000e-14
Angular grids for H and He will be reduced by one unit
Partially contracted basis set               ... on
Rotationally invariant grid construction     ... off

Total number of grid points                  ...    22350
Total number of batches                      ...      371
Average number of points per batch           ...       60
Average number of grid points per atom       ...      588
UseSFitting                                  ... on

GRIDX 2
-------
General Integration Accuracy     IntAcc      ... 4.020
Radial Grid Type                 RadialGrid  ... OptM3 with GC (2021)
Angular Grid (max. ang.)         AngularGrid ... 2 (Lebedev-110)
Angular grid pruning method      GridPruning ... 4 (adaptive)
Weight generation scheme         WeightScheme... Becke
Basis function cutoff            BFCut       ... 1.0000e-11
Integration weight cutoff        WCut        ... 1.0000e-14
Angular grids for H and He will be reduced by one unit
Partially contracted basis set               ... on
Rotationally invariant grid construction     ... off

Total number of grid points                  ...    47956
Total number of batches                      ...      767
Average number of points per batch           ...       62
Average number of grid points per atom       ...     1262
UseSFitting                                  ... on

GRIDX 3
-------
General Integration Accuracy     IntAcc      ... 4.338
Radial Grid Type                 RadialGrid  ... OptM3 with GC (2021)
Angular Grid (max. ang.)         AngularGrid ... 3 (Lebedev-194)
Angular grid pruning method      GridPruning ... 4 (adaptive)
Weight generation scheme         WeightScheme... Becke
Basis function cutoff            BFCut       ... 1.0000e-11
Integration weight cutoff        WCut        ... 1.0000e-14
Angular grids for H and He will be reduced by one unit
Partially contracted basis set               ... on
Rotationally invariant grid construction     ... off

Total number of grid points                  ...   103873
Total number of batches                      ...     1643
Average number of points per batch           ...       63
Average number of grid points per atom       ...     2734
UseSFitting                                  ... on

Time for X-Grid setup             =    1.290 sec

--------------
SCF ITERATIONS
--------------
ITER       Energy         Delta-E        Max-DP      RMS-DP      [F,P]     Damp
               ***  Starting incremental Fock matrix formation  ***
  0   -977.5279259975   0.000000000000 2.81053953  0.02355904  5.2996970 0.7000
  1   -978.3982902478  -0.870364250290 4.43809463  0.02863832  3.8983154 0.7000
  2   -980.0076992887  -1.609409040935 1.41672767  0.01043358  2.7685998 0.7000
  3   -982.3345221785  -2.326822889754 0.94459230  0.00725907  1.9743291 0.7000
  4   -984.1574638877  -1.822941709244 0.64545261  0.00503976  1.3653236 0.7000
  5   -985.4503723385  -1.292908450713 0.45444244  0.00353557  0.9482063 0.7000
  6   -986.3752304323  -0.924858093846 0.32269682  0.00250203  0.6641328 0.7000
  7   -987.0343499806  -0.659119548257 0.22852321  0.00177417  0.4672928 0.7000
  8   -987.5014149344  -0.467064953835 0.16103682  0.00125686  0.3288018 0.7000
  9   -987.8313273220  -0.329912387621 0.11306966  0.00088951  0.2308579 0.7000
                               ***Turning on DIIS***
 10   -988.0638678854  -0.232540563360 0.07925126  0.00062952  0.1617382 0.7000
 11   -988.2275104801  -0.163642594715 0.05569602  0.00045125  0.1131706 0.7000
 12   -988.3425496809  -0.115039200845 0.12999471  0.00107721  0.0791651 0.0000
 13   -988.6128087196  -0.270259038694 0.00497945  0.00005505  0.0014464 0.0000
 14   -988.6129254015  -0.000116681883 0.00459267  0.00004708  0.0012255 0.0000
 15   -988.6129908703  -0.000065468779 0.00709749  0.00006685  0.0009682 0.0000
               *** Restarting incremental Fock matrix formation ***
                                   *** Resetting DIIS ***
 16   -988.6129287590   0.000062111316 0.00268570  0.00003751  0.0006216 0.0000
 17   -988.6129392987  -0.000010539713 0.00101029  0.00001182  0.0006613 0.0000
 18   -988.6129435405  -0.000004241858 0.00190591  0.00001600  0.0002945 0.0000
 19   -988.6129469637  -0.000003423160 0.00099040  0.00000842  0.0001588 0.0000
 20   -988.6129479345  -0.000000970820 0.00090721  0.00000749  0.0001114 0.0000
 21   -988.6129483549  -0.000000420403 0.00023752  0.00000212  0.0000397 0.0000
 22   -988.6129483994  -0.000000044501 0.00006828  0.00000071  0.0000192 0.0000
 23   -988.6129484159  -0.000000016442 0.00002047  0.00000023  0.0000114 0.0000
 24   -988.6129484161  -0.000000000228 0.00002462  0.00000019  0.0000072 0.0000
                 **** Energy Check signals convergence ****

               *****************************************************
               *                     SUCCESS                       *
               *           SCF CONVERGED AFTER  25 CYCLES          *
               *****************************************************

Old exchange energy                            =    -52.740548231 Eh
New exchange energy                            =    -52.740568488 Eh
Exchange energy change after final integration =     -0.000020257 Eh
Total energy after final integration           =   -988.612968679 Eh
Final COS-X integration done in                =    11.786 sec

----------------
TOTAL SCF ENERGY
----------------

Total Energy       :         -988.61296868 Eh          -26901.52652 eV

Components:
Nuclear Repulsion  :         1823.15017761 Eh           49610.43848 eV
Electronic Energy  :        -2811.76314629 Eh          -76511.96500 eV
One Electron Energy:        -5027.66014687 Eh         -136809.58786 eV
Two Electron Energy:         2215.89700058 Eh           60297.62286 eV
Max COSX asymmetry :            0.00002231 Eh               0.00061 eV

Virial components:
Potential Energy   :        -1890.93917319 Eh          -51455.07083 eV
Kinetic Energy     :          902.32620451 Eh           24553.54430 eV
Virial Ratio       :            2.09562702


DFT components:
N(Alpha)           :       76.999990422475 electrons
N(Beta)            :       76.999990422475 electrons
N(Total)           :      153.999980844949 electrons
E(X)               :      -70.316282370709 Eh       
E(C)               :       -6.934862112012 Eh       
E(XC)              :      -77.251144482720 Eh       
DFET-embed. en.    :        0.000000000000 Eh       

---------------
SCF CONVERGENCE
---------------

  Last Energy change         ...   -5.2738e-09  Tolerance :   1.0000e-08
  Last MAX-Density change    ...    0.0000e+00  Tolerance :   1.0000e-07
  Last RMS-Density change    ...    0.0000e+00  Tolerance :   5.0000e-09
  Last DIIS Error            ...    4.7436e-06  Tolerance :   5.0000e-07

             **** THE GBW FILE WAS UPDATED (reaction-1-rct-pbeh3c-orca_opt.gbw) ****
             **** DENSITY reaction-1-rct-pbeh3c-orca_opt.scfp WAS UPDATED ****
             **** ENERGY FILE WAS UPDATED (reaction-1-rct-pbeh3c-orca_opt.en.tmp) ****
             **** THE GBW FILE WAS UPDATED (reaction-1-rct-pbeh3c-orca_opt.gbw) ****
             **** DENSITY reaction-1-rct-pbeh3c-orca_opt.scfp WAS UPDATED ****
----------------
ORBITAL ENERGIES
----------------

  NO   OCC          E(Eh)            E(eV) 
   0   2.0000     -19.501224      -530.6553 
   1   2.0000     -19.500949      -530.6478 
   2   2.0000     -19.475271      -529.9491 
   3   2.0000     -19.429972      -528.7164 
   4   2.0000     -14.717110      -400.4729 
   5   2.0000     -10.571578      -287.6673 
   6   2.0000     -10.531666      -286.5812 
   7   2.0000     -10.498090      -285.6675 
   8   2.0000     -10.477725      -285.1134 
   9   2.0000     -10.472937      -284.9831 
  10   2.0000     -10.468205      -284.8543 
  11   2.0000     -10.458378      -284.5869 
  12   2.0000     -10.457124      -284.5528 
  13   2.0000     -10.453784      -284.4619 
  14   2.0000     -10.453030      -284.4414 
  15   2.0000     -10.451873      -284.4099 
  16   2.0000     -10.440071      -284.0888 
  17   2.0000     -10.416323      -283.4426 
  18   2.0000      -3.654027       -99.4311 
  19   2.0000      -2.303408       -62.6789 
  20   2.0000      -2.299567       -62.5744 
  21   2.0000      -2.261802       -61.5468 
  22   2.0000      -1.208812       -32.8935 
  23   2.0000      -1.156345       -31.4657 
  24   2.0000      -1.093723       -29.7617 
  25   2.0000      -1.078815       -29.3561 
  26   2.0000      -1.049031       -28.5456 
  27   2.0000      -0.968377       -26.3509 
  28   2.0000      -0.878407       -23.9027 
  29   2.0000      -0.846724       -23.0405 
  30   2.0000      -0.830813       -22.6076 
  31   2.0000      -0.817772       -22.2527 
  32   2.0000      -0.799910       -21.7667 
  33   2.0000      -0.797840       -21.7103 
  34   2.0000      -0.710656       -19.3379 
  35   2.0000      -0.694106       -18.8876 
  36   2.0000      -0.669820       -18.2267 
  37   2.0000      -0.615593       -16.7511 
  38   2.0000      -0.599196       -16.3050 
  39   2.0000      -0.583928       -15.8895 
  40   2.0000      -0.574551       -15.6343 
  41   2.0000      -0.569752       -15.5037 
  42   2.0000      -0.556432       -15.1413 
  43   2.0000      -0.551346       -15.0029 
  44   2.0000      -0.549003       -14.9391 
  45   2.0000      -0.532124       -14.4798 
  46   2.0000      -0.529183       -14.3998 
  47   2.0000      -0.519117       -14.1259 
  48   2.0000      -0.509005       -13.8507 
  49   2.0000      -0.500071       -13.6076 
  50   2.0000      -0.494437       -13.4543 
  51   2.0000      -0.489866       -13.3299 
  52   2.0000      -0.482484       -13.1291 
  53   2.0000      -0.471263       -12.8237 
  54   2.0000      -0.461894       -12.5688 
  55   2.0000      -0.455813       -12.4033 
  56   2.0000      -0.451592       -12.2885 
  57   2.0000      -0.447514       -12.1775 
  58   2.0000      -0.439550       -11.9608 
  59   2.0000      -0.434322       -11.8185 
  60   2.0000      -0.426042       -11.5932 
  61   2.0000      -0.418781       -11.3956 
  62   2.0000      -0.409616       -11.1462 
  63   2.0000      -0.403854       -10.9894 
  64   2.0000      -0.398946       -10.8559 
  65   2.0000      -0.393779       -10.7153 
  66   2.0000      -0.372598       -10.1389 
  67   2.0000      -0.359782        -9.7902 
  68   2.0000      -0.345953        -9.4139 
  69   2.0000      -0.334871        -9.1123 
  70   2.0000      -0.331516        -9.0210 
  71   2.0000      -0.322887        -8.7862 
  72   2.0000      -0.312473        -8.5028 
  73   2.0000      -0.300901        -8.1879 
  74   2.0000      -0.299518        -8.1503 
  75   2.0000      -0.293144        -7.9769 
  76   2.0000      -0.246595        -6.7102 
  77   0.0000      -0.040501        -1.1021 
  78   0.0000       0.001909         0.0520 
  79   0.0000       0.009762         0.2656 
  80   0.0000       0.052156         1.4192 
  81   0.0000       0.079600         2.1660 
  82   0.0000       0.083122         2.2619 
  83   0.0000       0.090956         2.4750 
  84   0.0000       0.105856         2.8805 
  85   0.0000       0.116429         3.1682 
  86   0.0000       0.138378         3.7655 
  87   0.0000       0.146669         3.9911 
  88   0.0000       0.163155         4.4397 
  89   0.0000       0.172412         4.6916 
  90   0.0000       0.176443         4.8013 
  91   0.0000       0.186537         5.0759 
  92   0.0000       0.191253         5.2042 
  93   0.0000       0.202806         5.5186 
  94   0.0000       0.205168         5.5829 
  95   0.0000       0.207890         5.6570 
  96   0.0000       0.209195         5.6925 
  97   0.0000       0.217520         5.9190 
  98   0.0000       0.222007         6.0411 
  99   0.0000       0.225003         6.1226 
 100   0.0000       0.226188         6.1549 
 101   0.0000       0.228862         6.2276 
 102   0.0000       0.233757         6.3609 
 103   0.0000       0.242009         6.5854 
 104   0.0000       0.245775         6.6879 
 105   0.0000       0.250189         6.8080 
 106   0.0000       0.251765         6.8509 
 107   0.0000       0.255690         6.9577 
 108   0.0000       0.260470         7.0877 
 109   0.0000       0.274170         7.4606 
 110   0.0000       0.286378         7.7927 
 111   0.0000       0.289628         7.8812 
 112   0.0000       0.318812         8.6753 
 113   0.0000       0.333089         9.0638 
 114   0.0000       0.341644         9.2966 
 115   0.0000       0.349729         9.5166 
 116   0.0000       0.360416         9.8074 
 117   0.0000       0.373985        10.1766 
 118   0.0000       0.404431        11.0051 
 119   0.0000       0.414364        11.2754 
 120   0.0000       0.425805        11.5867 
 121   0.0000       0.437115        11.8945 
 122   0.0000       0.454861        12.3774 
 123   0.0000       0.472254        12.8507 
 124   0.0000       0.479747        13.0546 
 125   0.0000       0.495212        13.4754 
 126   0.0000       0.508284        13.8311 
 127   0.0000       0.521553        14.1922 
 128   0.0000       0.524481        14.2719 
 129   0.0000       0.538536        14.6543 
 130   0.0000       0.551952        15.0194 
 131   0.0000       0.554354        15.0847 
 132   0.0000       0.563061        15.3217 
 133   0.0000       0.564307        15.3556 
 134   0.0000       0.576619        15.6906 
 135   0.0000       0.582677        15.8555 
 136   0.0000       0.588008        16.0005 
 137   0.0000       0.590829        16.0773 
 138   0.0000       0.596948        16.2438 
 139   0.0000       0.602370        16.3913 
 140   0.0000       0.603712        16.4279 
 141   0.0000       0.617546        16.8043 
 142   0.0000       0.618415        16.8279 
 143   0.0000       0.625325        17.0160 
 144   0.0000       0.636629        17.3236 
 145   0.0000       0.645510        17.5652 
 146   0.0000       0.655815        17.8456 
 147   0.0000       0.662366        18.0239 
 148   0.0000       0.684037        18.6136 
 149   0.0000       0.685855        18.6631 
 150   0.0000       0.696458        18.9516 
 151   0.0000       0.706280        19.2188 
 152   0.0000       0.711803        19.3692 
 153   0.0000       0.727102        19.7854 
 154   0.0000       0.739506        20.1230 
 155   0.0000       0.743681        20.2366 
 156   0.0000       0.771914        21.0049 
 157   0.0000       0.782286        21.2871 
 158   0.0000       0.810022        22.0418 
 159   0.0000       0.819052        22.2875 
 160   0.0000       0.839178        22.8352 
 161   0.0000       0.846938        23.0463 
 162   0.0000       0.861224        23.4351 
 163   0.0000       0.872875        23.7521 
 164   0.0000       0.884939        24.0804 
 165   0.0000       0.914216        24.8771 
 166   0.0000       0.931774        25.3549 
 167   0.0000       0.936481        25.4829 
 168   0.0000       0.948583        25.8122 
 169   0.0000       0.955519        26.0010 
 170   0.0000       0.961656        26.1680 
 171   0.0000       0.970196        26.4004 
 172   0.0000       0.978492        26.6261 
 173   0.0000       0.992399        27.0045 
 174   0.0000       1.001953        27.2645 
 175   0.0000       1.005568        27.3629 
 176   0.0000       1.016528        27.6611 
 177   0.0000       1.021853        27.8060 
 178   0.0000       1.023493        27.8507 
 179   0.0000       1.027556        27.9612 
 180   0.0000       1.033079        28.1115 
 181   0.0000       1.043193        28.3867 
 182   0.0000       1.044339        28.4179 
 183   0.0000       1.045661        28.4539 
 184   0.0000       1.059149        28.8209 
 185   0.0000       1.068480        29.0748 
 186   0.0000       1.077373        29.3168 
 187   0.0000       1.079475        29.3740 
 188   0.0000       1.091252        29.6945 
 189   0.0000       1.093477        29.7550 
 190   0.0000       1.102560        30.0022 
 191   0.0000       1.108145        30.1542 
 192   0.0000       1.130636        30.7662 
 193   0.0000       1.143022        31.1032 
 194   0.0000       1.151087        31.3227 
 195   0.0000       1.161229        31.5986 
 196   0.0000       1.164424        31.6856 
 197   0.0000       1.176855        32.0238 
 198   0.0000       1.200813        32.6758 
 199   0.0000       1.230194        33.4753 
 200   0.0000       1.244344        33.8603 
 201   0.0000       1.258854        34.2552 
 202   0.0000       1.268866        34.5276 
 203   0.0000       1.277818        34.7712 
 204   0.0000       1.293707        35.2036 
 205   0.0000       1.308246        35.5992 
 206   0.0000       1.316532        35.8247 
 207   0.0000       1.326159        36.0866 
 208   0.0000       1.344815        36.5943 
 209   0.0000       1.370674        37.2979 
 210   0.0000       1.379837        37.5473 
 211   0.0000       1.413662        38.4677 
 212   0.0000       1.430696        38.9312 
 213   0.0000       1.436793        39.0971 
 214   0.0000       1.452466        39.5236 
 215   0.0000       1.472613        40.0718 
 216   0.0000       1.485055        40.4104 
 217   0.0000       1.496070        40.7101 
 218   0.0000       1.513184        41.1758 
 219   0.0000       1.525689        41.5161 
 220   0.0000       1.535025        41.7701 
 221   0.0000       1.545588        42.0576 
 222   0.0000       1.553152        42.2634 
 223   0.0000       1.569090        42.6971 
 224   0.0000       1.572964        42.8025 
 225   0.0000       1.596083        43.4316 
 226   0.0000       1.603940        43.6454 
 227   0.0000       1.629011        44.3276 
 228   0.0000       1.727123        46.9974 
 229   0.0000       1.753318        47.7102 
[...]
 25 H s       :     0.713462  s :     0.713462
 26 H s       :     0.772167  s :     0.772167
 27 H s       :     0.787380  s :     0.787380
 28 C s       :     3.332460  s :     3.332460
      pz      :     0.923453  p :     2.979526
      px      :     1.165907
      py      :     0.890167
      dz2     :     0.013253  d :     0.055042
      dxz     :     0.006615
      dyz     :     0.013456
      dx2y2   :     0.009249
      dxy     :     0.012470
 29 H s       :     0.765721  s :     0.765721
 30 H s       :     0.707537  s :     0.707537
 31 O s       :     3.816437  s :     3.816437
      pz      :     1.479248  p :     4.731080
      px      :     1.606829
      py      :     1.645002
      dz2     :     0.008324  d :     0.025837
      dxz     :     0.006785
      dyz     :     0.004626
      dx2y2   :     0.003501
      dxy     :     0.002600
 32 C s       :     2.959904  s :     2.959904
      pz      :     0.765315  p :     2.342879
      px      :     0.756556
      py      :     0.821008
      dz2     :     0.044809  d :     0.143619
      dxz     :     0.030659
      dyz     :     0.032264
      dx2y2   :     0.017253
      dxy     :     0.018634
 33 O s       :     3.772700  s :     3.772700
      pz      :     1.532785  p :     4.637998
      px      :     1.586492
      py      :     1.518720
      dz2     :     0.007081  d :     0.028737
      dxz     :     0.004960
      dyz     :     0.008205
      dx2y2   :     0.003769
      dxy     :     0.004722
 34 C s       :     3.409076  s :     3.409076
      pz      :     1.165286  p :     3.304284
      px      :     1.114037
      py      :     1.024961
      dz2     :     0.008357  d :     0.033918
      dxz     :     0.008085
      dyz     :     0.003571
      dx2y2   :     0.005316
      dxy     :     0.008590
 35 H s       :     0.774207  s :     0.774207
 36 H s       :     0.754352  s :     0.754352
 37 H s       :     0.758927  s :     0.758927


                     *******************************
                     * LOEWDIN POPULATION ANALYSIS *
                     *******************************

----------------------
LOEWDIN ATOMIC CHARGES
----------------------
   0 Pd:   -0.304059
   1 O :   -0.142905
   2 C :    0.192934
   3 O :   -0.174021
   4 C :   -0.375517
   5 H :    0.154504
   6 H :    0.165997
   7 H :    0.157956
   8 N :   -0.041128
   9 C :   -0.226250
  10 H :    0.158199
  11 H :    0.120402
  12 H :    0.157803
  13 C :   -0.232486
  14 H :    0.163061
  15 H :    0.120583
  16 H :    0.156510
  17 C :   -0.060957
  18 C :   -0.101333
  19 C :   -0.125160
  20 C :   -0.126860
  21 C :   -0.134337
  22 C :   -0.130009
  23 H :    0.138044
  24 H :    0.137646
  25 H :    0.172716
  26 H :    0.141195
  27 H :    0.133662
  28 C :   -0.110055
  29 H :    0.128358
  30 H :    0.164028
  31 O :   -0.211204
  32 C :    0.124828
  33 O :   -0.240893
  34 C :   -0.384755
  35 H :    0.138824
  36 H :    0.152433
  37 H :    0.142246

-------------------------------
LOEWDIN REDUCED ORBITAL CHARGES
-------------------------------
  0 Pds       :     2.505091  s :     2.505091
      pz      :     2.135740  p :     6.722628
      px      :     2.281399
      py      :     2.305489
      dz2     :     2.002104  d :     9.068724
      dxz     :     1.950443
      dyz     :     2.012292
      dx2y2   :     1.559006
      dxy     :     1.544880
      f0      :     0.000613  f :     0.007616
      f+1     :     0.000583
      f-1     :     0.000814
      f+2     :     0.000711
      f-2     :     0.000717
      f+3     :     0.001660
      f-3     :     0.002518
  1 O s       :     3.461301  s :     3.461301
      pz      :     1.563619  p :     4.622942
      px      :     1.613637
      py      :     1.445686
      dz2     :     0.007269  d :     0.058662
      dxz     :     0.006957
      dyz     :     0.008180
      dx2y2   :     0.013911
      dxy     :     0.022345
  2 C s       :     2.800042  s :     2.800042
      pz      :     0.728150  p :     2.689050
      px      :     0.956425
      py      :     1.004474
      dz2     :     0.019639  d :     0.317974
      dxz     :     0.056695
      dyz     :     0.029033
      dx2y2   :     0.107986
      dxy     :     0.104622
  3 O s       :     3.461254  s :     3.461254
      pz      :     1.583775  p :     4.655277
      px      :     1.460714
      py      :     1.610787
      dz2     :     0.007061  d :     0.057490
      dxz     :     0.011916
      dyz     :     0.003405
      dx2y2   :     0.021339
      dxy     :     0.013769
  4 C s       :     2.952688  s :     2.952688
      pz      :     1.142106  p :     3.359831
      px      :     1.136690
      py      :     1.081035
      dz2     :     0.008505  d :     0.062998
      dxz     :     0.014149
      dyz     :     0.012424
      dx2y2   :     0.013335
      dxy     :     0.014585
  5 H s       :     0.845496  s :     0.845496
  6 H s       :     0.834003  s :     0.834003
  7 H s       :     0.842044  s :     0.842044
  8 N s       :     3.095976  s :     3.095976
      pz      :     1.212067  p :     3.834934
      px      :     1.398990
      py      :     1.223877
      dz2     :     0.028530  d :     0.110219
      dxz     :     0.015034
      dyz     :     0.024886
      dx2y2   :     0.017378
      dxy     :     0.024391
  9 C s       :     2.940444  s :     2.940444
      pz      :     0.903577  p :     3.191892
      px      :     1.134711
      py      :     1.153603
      dz2     :     0.031564  d :     0.093914
      dxz     :     0.016459
      dyz     :     0.021263
      dx2y2   :     0.010837
      dxy     :     0.013792
 10 H s       :     0.841801  s :     0.841801
 11 H s       :     0.879598  s :     0.879598
 12 H s       :     0.842197  s :     0.842197
 13 C s       :     2.939877  s :     2.939877
      pz      :     1.156203  p :     3.198891
      px      :     1.017240
      py      :     1.025448
      dz2     :     0.020966  d :     0.093719
      dxz     :     0.006205
      dyz     :     0.018019
      dx2y2   :     0.023847
      dxy     :     0.024682
 14 H s       :     0.836939  s :     0.836939
 15 H s       :     0.879417  s :     0.879417
 16 H s       :     0.843490  s :     0.843490
 17 C s       :     2.838988  s :     2.838988
      pz      :     1.037041  p :     3.112108
      px      :     1.094757
      py      :     0.980311
      dz2     :     0.032067  d :     0.109861
      dxz     :     0.036902
      dyz     :     0.010145
      dx2y2   :     0.015732
      dxy     :     0.015014
 18 C s       :     2.884854  s :     2.884854
      pz      :     1.082979  p :     3.126037
      px      :     1.078753
      py      :     0.964305
      dz2     :     0.025639  d :     0.090442
      dxz     :     0.033738
      dyz     :     0.012827
      dx2y2   :     0.010296
      dxy     :     0.007941
 19 C s       :     2.888596  s :     2.888596
      pz      :     1.088195  p :     3.145520
      px      :     1.077419
      py      :     0.979907
      dz2     :     0.025780  d :     0.091044
      dxz     :     0.034533
      dyz     :     0.012470
      dx2y2   :     0.011256
      dxy     :     0.007005
 20 C s       :     2.891115  s :     2.891115
      pz      :     1.079175  p :     3.144597
      px      :     1.088141
      py      :     0.977280
      dz2     :     0.027495  d :     0.091148
      dxz     :     0.028373
      dyz     :     0.004766
      dx2y2   :     0.015740
      dxy     :     0.014774
 21 C s       :     2.888968  s :     2.888968
      pz      :     1.086012  p :     3.154222
      px      :     1.079888
      py      :     0.988322
      dz2     :     0.026197  d :     0.091147
      dxz     :     0.033954
      dyz     :     0.012713
      dx2y2   :     0.010874
      dxy     :     0.007409
 22 C s       :     2.887003  s :     2.887003
      pz      :     1.086763  p :     3.151654
      px      :     1.070917
      py      :     0.993974
      dz2     :     0.025304  d :     0.091351
      dxz     :     0.034831
      dyz     :     0.013043
      dx2y2   :     0.011235
      dxy     :     0.006939
 23 H s       :     0.861956  s :     0.861956
 24 H s       :     0.862354  s :     0.862354
 25 H s       :     0.827284  s :     0.827284
 26 H s       :     0.858805  s :     0.858805
 27 H s       :     0.866338  s :     0.866338
 28 C s       :     2.889795  s :     2.889795
      pz      :     1.032273  p :     3.106896
      px      :     1.109597
      py      :     0.965027
      dz2     :     0.028853  d :     0.113364
      dxz     :     0.013022
      dyz     :     0.029670
      dx2y2   :     0.018100
      dxy     :     0.023719
 29 H s       :     0.871642  s :     0.871642
 30 H s       :     0.835972  s :     0.835972
 31 O s       :     3.450618  s :     3.450618
      pz      :     1.513801  p :     4.704524
      px      :     1.584493
      py      :     1.606229
      dz2     :     0.016499  d :     0.056062
      dxz     :     0.015468
      dyz     :     0.010727
      dx2y2   :     0.006890
      dxy     :     0.006478
 32 C s       :     2.807242  s :     2.807242
      pz      :     0.935336  p :     2.740371
      px      :     0.825719
      py      :     0.979317
      dz2     :     0.106705  d :     0.327559
      dxz     :     0.069400
      dyz     :     0.073255
      dx2y2   :     0.037356
      dxy     :     0.040842
 33 O s       :     3.501129  s :     3.501129
      pz      :     1.566005  p :     4.684791
      px      :     1.561054
      py      :     1.557733
      dz2     :     0.012490  d :     0.054973
      dxz     :     0.007370
      dyz     :     0.020153
      dx2y2   :     0.007964
      dxy     :     0.006995
 34 C s       :     2.962332  s :     2.962332
      pz      :     1.141459  p :     3.359417
      px      :     1.126936
      py      :     1.091022
      dz2     :     0.014981  d :     0.063006
      dxz     :     0.013404
      dyz     :     0.006535
      dx2y2   :     0.010718
      dxy     :     0.017368
 35 H s       :     0.861176  s :     0.861176
 36 H s       :     0.847567  s :     0.847567
 37 H s       :     0.857754  s :     0.857754


                      *****************************
                      * MAYER POPULATION ANALYSIS *
                      *****************************

  NA   - Mulliken gross atomic population
  ZA   - Total nuclear charge
  QA   - Mulliken gross atomic charge
  VA   - Mayer's total valence
  BVA  - Mayer's bonded valence
  FA   - Mayer's free valence

  ATOM       NA         ZA         QA         VA         BVA        FA
  0 Pd    17.4634    18.0000     0.5366     2.3923     2.3923    -0.0000
  1 O      8.4785     8.0000    -0.4785     2.1743     2.1743     0.0000
  2 C      5.3195     6.0000     0.6805     3.8457     3.8457     0.0000
  3 O      8.5168     8.0000    -0.5168     2.1376     2.1376     0.0000
  4 C      6.7724     6.0000    -0.7724     3.6807     3.6807    -0.0000
  5 H      0.7460     1.0000     0.2540     0.9001     0.9001    -0.0000
  6 H      0.7366     1.0000     0.2634     0.8950     0.8950    -0.0000
  7 H      0.7398     1.0000     0.2602     0.8982     0.8982    -0.0000
  8 N      7.4953     7.0000    -0.4953     3.1801     3.1801     0.0000
  9 C      6.5218     6.0000    -0.5218     3.6064     3.6064     0.0000
 10 H      0.7203     1.0000     0.2797     0.8906     0.8906    -0.0000
 11 H      0.7789     1.0000     0.2211     0.9078     0.9078    -0.0000
 12 H      0.7191     1.0000     0.2809     0.8933     0.8933    -0.0000
 13 C      6.5271     6.0000    -0.5271     3.5943     3.5943    -0.0000
 14 H      0.7041     1.0000     0.2959     0.8824     0.8824     0.0000
 15 H      0.7828     1.0000     0.2172     0.9128     0.9128     0.0000
 16 H      0.7220     1.0000     0.2780     0.8910     0.8910    -0.0000
 17 C      5.8846     6.0000     0.1154     3.7242     3.7242    -0.0000
 18 C      6.2855     6.0000    -0.2855     3.7933     3.7933    -0.0000
 19 C      6.2064     6.0000    -0.2064     3.8035     3.8035     0.0000
 20 C      6.2285     6.0000    -0.2285     3.8189     3.8189    -0.0000
 21 C      6.2081     6.0000    -0.2081     3.8214     3.8214    -0.0000
 22 C      6.2804     6.0000    -0.2804     3.8312     3.8312    -0.0000
 23 H      0.7764     1.0000     0.2236     0.9104     0.9104    -0.0000
 24 H      0.7786     1.0000     0.2214     0.9108     0.9108     0.0000
 25 H      0.7135     1.0000     0.2865     0.8982     0.8982    -0.0000
 26 H      0.7722     1.0000     0.2278     0.9096     0.9096    -0.0000
 27 H      0.7874     1.0000     0.2126     0.9178     0.9178    -0.0000
 28 C      6.3670     6.0000    -0.3670     3.5904     3.5904    -0.0000
 29 H      0.7657     1.0000     0.2343     0.9034     0.9034    -0.0000
 30 H      0.7075     1.0000     0.2925     0.8930     0.8930     0.0000
 31 O      8.5734     8.0000    -0.5734     2.0535     2.0535     0.0000
 32 C      5.4464     6.0000     0.5536     4.0626     4.0626     0.0000
 33 O      8.4394     8.0000    -0.4394     2.1489     2.1489     0.0000
 34 C      6.7473     6.0000    -0.7473     3.6978     3.6978    -0.0000
 35 H      0.7742     1.0000     0.2258     0.9098     0.9098    -0.0000
 36 H      0.7544     1.0000     0.2456     0.9025     0.9025    -0.0000
 37 H      0.7589     1.0000     0.2411     0.9061     0.9061    -0.0000

  Mayer bond orders larger than 0.100000
B(  0-Pd,  1-O ) :   0.5345 B(  0-Pd,  3-O ) :   0.5343 B(  0-Pd,  8-N ) :   0.4376 
B(  0-Pd, 31-O ) :   0.6067 B(  0-Pd, 33-O ) :   0.1029 B(  1-O ,  2-C ) :   1.4678 
B(  1-O ,  3-O ) :   0.1041 B(  2-C ,  3-O ) :   1.4245 B(  2-C ,  4-C ) :   0.9598 
B(  4-C ,  5-H ) :   0.9091 B(  4-C ,  6-H ) :   0.9004 B(  4-C ,  7-H ) :   0.9072 
B(  8-N ,  9-C ) :   0.9165 B(  8-N , 13-C ) :   0.9161 B(  8-N , 28-C ) :   0.8869 
B(  9-C , 10-H ) :   0.8983 B(  9-C , 11-H ) :   0.9021 B(  9-C , 12-H ) :   0.8939 
B( 13-C , 14-H ) :   0.8860 B( 13-C , 15-H ) :   0.9060 B( 13-C , 16-H ) :   0.8985 
B( 17-C , 18-C ) :   1.4110 B( 17-C , 22-C ) :   1.3968 B( 17-C , 28-C ) :   0.9474 
B( 18-C , 19-C ) :   1.4209 B( 18-C , 25-H ) :   0.8761 B( 19-C , 20-C ) :   1.4196 
B( 19-C , 26-H ) :   0.9179 B( 20-C , 21-C ) :   1.4248 B( 20-C , 23-H ) :   0.9185 
B( 21-C , 22-C ) :   1.4338 B( 21-C , 24-H ) :   0.9189 B( 22-C , 27-H ) :   0.9207 
B( 28-C , 29-H ) :   0.9058 B( 28-C , 30-H ) :   0.8847 B( 31-O , 32-C ) :   1.2336 
B( 32-C , 33-O ) :   1.9022 B( 32-C , 34-C ) :   0.9380 B( 34-C , 35-H ) :   0.9174 
B( 34-C , 36-H ) :   0.9116 B( 34-C , 37-H ) :   0.9193 

-------
TIMINGS
-------

Total SCF time: 0 days 0 hours 0 min 56 sec 

Total time                  ....      56.668 sec
Sum of individual times     ....      56.306 sec  ( 99.4%)

Fock matrix formation       ....      54.107 sec  ( 95.5%)
  Split-RI-J                ....       4.658 sec  (  8.6% of F)
  Chain of spheres X        ....      46.352 sec  ( 85.7% of F)
  XC integration            ....       3.021 sec  (  5.6% of F)
    Basis function eval.    ....       1.387 sec  ( 45.9% of XC)
    Density eval.           ....       0.748 sec  ( 24.8% of XC)
    XC-Functional eval.     ....       0.259 sec  (  8.6% of XC)
    XC-Potential eval.      ....       0.440 sec  ( 14.6% of XC)
Diagonalization             ....       0.246 sec  (  0.4%)
Density matrix formation    ....       0.015 sec  (  0.0%)
Population analysis         ....       0.039 sec  (  0.1%)
Initial guess               ....       0.027 sec  (  0.0%)
Orbital Transformation      ....       0.000 sec  (  0.0%)
Orbital Orthonormalization  ....       0.018 sec  (  0.0%)
DIIS solution               ....       0.145 sec  (  0.3%)
Grid generation             ....       1.726 sec  (  3.0%)

Maximum memory used throughout the entire SCF-calculation: 91.5 MB


-------------------------------------------------------------------------------
                          DFT DISPERSION CORRECTION                            
                                                                               
                              DFTD3 V3.1  Rev 1                                
                          USING Becke-Johnson damping                          
-------------------------------------------------------------------------------
The PBEh-3c composite method is recognized
Using three-body term ABC
Active option DFTDOPT                   ...         4   

molecular C6(AA) [au] = 16207.198538 


            DFT-D V3
 parameters
 s6 scaling factor         :     1.0000 
 a1 scaling factor         :     0.4860 
 s8 scaling factor         :     0.0000 
 a2 scaling factor         :     4.5000 
 Damping factor alpha9(ATM):    16.0000 
 ad hoc parameters k1-k3   :    16.0000     1.3333    -4.0000 

 Edisp/kcal,au: -16.674187314778  -0.026572006042 
 E6   /kcal   : -16.887279202 
 E8   /kcal   :  -0.000000000 
 E6(ABC)      :   0.213091888 
 % E8         :   0.000000000 
 % E6(ABC)    :  -1.277974654 

-------------------------   ----------------
Dispersion correction           -0.026572006
-------------------------   ----------------

 ** NOTE ** -> element pd will be treated as ni
------------------   -----------------
gCP correction             0.079434645
------------------   -----------------

-------------------------   --------------------
FINAL SINGLE POINT ENERGY      -988.574439071143
-------------------------   --------------------

                                *** OPTIMIZATION RUN DONE ***

                            ***************************************
                            *     ORCA property calculations      *
                            ***************************************

                                    ---------------------
                                    Active property flags
                                    ---------------------
   (+) Dipole Moment


------------------------------------------------------------------------------
                       ORCA ELECTRIC PROPERTIES CALCULATION
------------------------------------------------------------------------------

Dipole Moment Calculation                       ... on
Quadrupole Moment Calculation                   ... off
Polarizability Calculation                      ... off
GBWName                                         ... reaction-1-rct-pbeh3c-orca_opt.gbw
Electron density                                ... reaction-1-rct-pbeh3c-orca_opt.scfp
The origin for moment calculation is the CENTER OF MASS  = ( 0.733799,  0.457392 -0.279271)

-------------
DIPOLE MOMENT
-------------
                                X             Y             Z
Electronic contribution:     37.83201      36.79111     -30.79841
Nuclear contribution   :    -39.70015     -36.66245      31.57025
                        -----------------------------------------
Total Dipole Moment    :     -1.86814       0.12866       0.77184
                        -----------------------------------------
Magnitude (a.u.)       :      2.02540
Magnitude (Debye)      :      5.14816



--------------------
Rotational spectrum 
--------------------
 
Rotational constants in cm-1:     0.013175     0.008562     0.007148 
Rotational constants in MHz :   394.989018   256.669881   214.281374 

 Dipole components along the rotational axes: 
x,y,z [a.u.] :    -1.732459    -0.317705     0.999954 
x,y,z [Debye]:    -4.403560    -0.807541     2.541680 

 

Timings for individual modules:

Sum of individual times         ...     3462.161 sec (=  57.703 min)
GTO integral calculation        ...       35.874 sec (=   0.598 min)   1.0 %
SCF iterations                  ...     2675.452 sec (=  44.591 min)  77.3 %
SCF Gradient evaluation         ...      745.315 sec (=  12.422 min)  21.5 %
Geometry relaxation             ...        5.521 sec (=   0.092 min)   0.2 %
                             ****ORCA TERMINATED NORMALLY****
TOTAL RUN TIME: 0 days 0 hours 57 minutes 57 seconds 421 msec
