
                                 *****************
                                 * O   R   C   A *
                                 *****************

                                            #,                                       
                                            ###                                      
                                            ####                                     
                                            #####                                    
                                            ######                                   
                                           ########,                                 
                                     ,,################,,,,,                         
                               ,,#################################,,                 
                          ,,##########################################,,             
                       ,#########################################, ''#####,          
                    ,#############################################,,   '####,        
                  ,##################################################,,,,####,       
                ,###########''''           ''''###############################       
              ,#####''   ,,,,##########,,,,          '''####'''          '####       
            ,##' ,,,,###########################,,,                        '##       
           ' ,,###''''                  '''############,,,                           
         ,,##''                                '''############,,,,        ,,,,,,###''
      ,#''                                            '''#######################'''  
     '                                                          ''''####''''         
             ,#######,   #######,   ,#######,      ##                                
            ,#'     '#,  ##    ##  ,#'     '#,    #''#        ######   ,####,        
            ##       ##  ##   ,#'  ##            #'  '#       #        #'  '#        
            ##       ##  #######   ##           ,######,      #####,   #    #        
            '#,     ,#'  ##    ##  '#,     ,#' ,#      #,         ##   #,  ,#        
             '#######'   ##     ##  '#######'  #'      '#     #####' # '####'        



                  #######################################################
                  #                        -***-                        #
                  #          Department of theory and spectroscopy      #
                  #    Directorship and core code : Frank Neese         #
                  #        Max Planck Institute fuer Kohlenforschung    #
                  #                Kaiser Wilhelm Platz 1               #
                  #                 D-45470 Muelheim/Ruhr               #
                  #                      Germany                        #
                  #                                                     #
                  #                  All rights reserved                #
                  #                        -***-                        #
                  #######################################################


                         Program Version 5.0.3 -  RELEASE  -


 With contributions from (in alphabetic order):
   Daniel Aravena         : Magnetic Suceptibility
   Michael Atanasov       : Ab Initio Ligand Field Theory (pilot matlab implementation)
   Alexander A. Auer      : GIAO ZORA, VPT2 properties, NMR spectrum
   Ute Becker             : Parallelization
   Giovanni Bistoni       : ED, misc. LED, open-shell LED, HFLD
   Martin Brehm           : Molecular dynamics
   Dmytro Bykov           : SCF Hessian
   Vijay G. Chilkuri      : MRCI spin determinant printing, contributions to CSF-ICE
   Dipayan Datta          : RHF DLPNO-CCSD density
   Achintya Kumar Dutta   : EOM-CC, STEOM-CC
   Dmitry Ganyushin       : Spin-Orbit,Spin-Spin,Magnetic field MRCI
   Miquel Garcia          : C-PCM and meta-GGA Hessian, CC/C-PCM, Gaussian charge scheme
   Yang Guo               : DLPNO-NEVPT2, F12-NEVPT2, CIM, IAO-localization
   Andreas Hansen         : Spin unrestricted coupled pair/coupled cluster methods
   Benjamin Helmich-Paris : MC-RPA, TRAH-SCF, COSX integrals
   Lee Huntington         : MR-EOM, pCC
   Robert Izsak           : Overlap fitted RIJCOSX, COSX-SCS-MP3, EOM
   Marcus Kettner         : VPT2
   Christian Kollmar      : KDIIS, OOCD, Brueckner-CCSD(T), CCSD density, CASPT2, CASPT2-K
   Simone Kossmann        : Meta GGA functionals, TD-DFT gradient, OOMP2, MP2 Hessian
   Martin Krupicka        : Initial AUTO-CI
   Lucas Lang             : DCDCAS
   Marvin Lechner         : AUTO-CI (C++ implementation), FIC-MRCC
   Dagmar Lenk            : GEPOL surface, SMD
   Dimitrios Liakos       : Extrapolation schemes; Compound Job, initial MDCI parallelization
   Dimitrios Manganas     : Further ROCIS development; embedding schemes
   Dimitrios Pantazis     : SARC Basis sets
   Anastasios Papadopoulos: AUTO-CI, single reference methods and gradients
   Taras Petrenko         : DFT Hessian,TD-DFT gradient, ASA, ECA, R-Raman, ABS, FL, XAS/XES, NRVS
   Peter Pinski           : DLPNO-MP2, DLPNO-MP2 Gradient
   Christoph Reimann      : Effective Core Potentials
   Marius Retegan         : Local ZFS, SOC
   Christoph Riplinger    : Optimizer, TS searches, QM/MM, DLPNO-CCSD(T), (RO)-DLPNO pert. Triples
   Tobias Risthaus        : Range-separated hybrids, TD-DFT gradient, RPA, STAB
   Michael Roemelt        : Original ROCIS implementation
   Masaaki Saitow         : Open-shell DLPNO-CCSD energy and density
   Barbara Sandhoefer     : DKH picture change effects
   Avijit Sen             : IP-ROCIS
   Kantharuban Sivalingam : CASSCF convergence, NEVPT2, FIC-MRCI
   Bernardo de Souza      : ESD, SOC TD-DFT
   Georgi Stoychev        : AutoAux, RI-MP2 NMR, DLPNO-MP2 response
   Willem Van den Heuvel  : Paramagnetic NMR
   Boris Wezisla          : Elementary symmetry handling
   Frank Wennmohs         : Technical directorship


 We gratefully acknowledge several colleagues who have allowed us to
 interface, adapt or use parts of their codes:
   Stefan Grimme, W. Hujo, H. Kruse, P. Pracht,  : VdW corrections, initial TS optimization,
                  C. Bannwarth, S. Ehlert          DFT functionals, gCP, sTDA/sTD-DF
   Ed Valeev, F. Pavosevic, A. Kumar             : LibInt (2-el integral package), F12 methods
   Garnet Chan, S. Sharma, J. Yang, R. Olivares  : DMRG
   Ulf Ekstrom                                   : XCFun DFT Library
   Mihaly Kallay                                 : mrcc  (arbitrary order and MRCC methods)
   Jiri Pittner, Ondrej Demel                    : Mk-CCSD
   Frank Weinhold                                : gennbo (NPA and NBO analysis)
   Christopher J. Cramer and Donald G. Truhlar   : smd solvation model
   Lars Goerigk                                  : TD-DFT with DH, B97 family of functionals
   V. Asgeirsson, H. Jonsson                     : NEB implementation
   FAccTs GmbH                                   : IRC, NEB, NEB-TS, DLPNO-Multilevel, CI-OPT
                                                   MM, QMMM, 2- and 3-layer-ONIOM, Crystal-QMMM,
                                                   LR-CPCM, SF, NACMEs, symmetry and pop. for TD-DFT,
                                                   nearIR, NL-DFT gradient (VV10), updates on ESD,
                                                   ML-optimized integration grids
   S Lehtola, MJT Oliveira, MAL Marques          : LibXC Library
   Liviu Ungur et al                             : ANISO software


 Your calculation uses the libint2 library for the computation of 2-el integrals
 For citations please refer to: http://libint.valeyev.net

 Your ORCA version has been built with support for libXC version: 5.1.0
 For citations please refer to: https://tddft.org/programs/libxc/

 This ORCA versions uses:
   CBLAS   interface :  Fast vector & matrix operations
   LAPACKE interface :  Fast linear algebra routines
   SCALAPACK package :  Parallel linear algebra routines
   Shared memory     :  Shared parallel matrices
   BLAS/LAPACK       :  OpenBLAS 0.3.15  USE64BITINT DYNAMIC_ARCH NO_AFFINITY SkylakeX SINGLE_THREADED
        Core in use  :  SkylakeX
   Copyright (c) 2011-2014, The OpenBLAS Project


Your calculation utilizes the geometrical counterpoise correction gCP
Please cite in your paper:
H.Kruse, S. Grimme J.Chem.Phys., 136, (2012), 154101 
   

Your calculation utilizes the atom-pairwise dispersion correction
with the Becke-Johnson damping scheme (D3BJ)
Cite in your paper:
S.Grimme, S.Ehrlich, L.Goerigk, J Comput Chem, (2011), 32, 1456–1465 
S.Grimme, J.Antony, S.Ehrlich and H.Krieg, J.Chem.Phys., 132, (2010), 154104 
   

Your calculation employs the composite approach PBEh-3c.
Please cite in your paper:
S. Grimme, J. G. Brandenburg, C. Bannwarth, A. Hansen J.Chem.Phys., 143, (2015), 054107 
   

================================================================================

cite the ECPs for Ir [Def2-ECP] as follows:
Ce-Yb(ecp-28): M. Dolg, H. Stoll, H.Preuss, J. Chem. Phys., 1989, 90, 1730-1734.
Y-Cd(ecp-28), Hf-Hg(ecp-46): D. Andrae,U. Haeussermann, M. Dolg, H. Stoll, H. Preuss, Theor. Chim. Acta, 1990, 77, 123-141.
In-Sb(ecp-28), Tl-Bi(ecp-46): B. Metz, H. Stoll, M. Dolg, J. Chem. Phys., 2000, 113, 2563-2569.
Te-Xe(ecp-28), Po-Rn(ecp-46): K. A. Peterson, D. Figgen, E. Goll, H. Stoll, M. Dolg, J. Chem. Phys., 2003, 119, 11113-11123.
Rb(ecp-28), Cs(ecp-46): T. Leininger, A. Nicklass, W. Kuechle, H. Stoll, M. Dolg, A. Bergner, Chem. Phys. Lett., 1996, 255, 274-280.
Sr(ecp-28), Ba(ecp-46): M. Kaupp, P. V. Schleyer, H. Stoll and H. Preuss, J. Chem. Phys., 1991, 94, 1360-1366.
La(ecp-46): M. Dolg, H. Stoll, A. Savin, H. Preuss, Theor. Chim. Acta, 1989, 75, 173-194.
Lu(ecp-28): X. Cao, M. Dolg, J. Chem. Phys., 2001, 115, 7348-7355.

ECP parameters for Ir [Def2-ECP] have been obtained from:
TURBOMOLE (7.0.2)

----- Orbital basis set information -----
Your calculation utilizes the basis: def2-mSVP

----- AuxJ basis set information -----
Your calculation utilizes the auxiliary basis: def2/J
   F. Weigend, Phys. Chem. Chem. Phys. 8, 1057 (2006).

================================================================================
                                        WARNINGS
                       Please study these warnings very carefully!
================================================================================


WARNING: Geometry Optimization
  ===> : Switching off AutoStart
         For restart on a previous wavefunction, please use MOREAD

WARNING: No Hueckel Guess possible with ECP basis!
  ===> : Switching to HCORE guess!

INFO   : the flag for use of the SHARK integral package has been found!

================================================================================
                                       INPUT FILE
================================================================================
NAME = reaction4-IEIP_ts_guess_scan_0-0_orca.inp
|  1> ! Opt PBEh-3c
|  2> %geom Constraints
|  3> { B 0 20 2.6 C }
|  4> { B 24 30 1.5 C }
|  5>     end
|  6> end
|  7> %output 
|  8> xyzfile=True 
|  9> end 
| 10> %scf 
| 11> maxiter 250 
| 12> end
| 13> %output
| 14> Print[P_Hirshfeld] = 1
| 15> end
| 16> % maxcore
| 17> 4000
| 18> %pal nprocs 8
| 19> end
| 20> *xyz 1 1
| 21> Ir   0.58647000  -0.72605000   0.67088000 
| 22> C   -0.03532000  -2.66547000   1.28626000 
| 23> C    0.54903000  -1.99193000   2.40125000 
| 24> C    2.15034000  -2.20377000   0.77386000 
| 25> C    0.95465000  -2.79712000   0.26295000 
| 26> C    1.91512000  -1.70980000   2.08138000 
| 27> N   -1.03979000  -0.11902000  -0.49958000 
| 28> C   -2.42468000  -0.07143000   0.01446000 
| 29> C   -2.81354000   1.32885000   0.47253000 
| 30> H   -3.84911000   1.31439000   0.81124000 
| 31> H   -2.74425000   2.04559000  -0.34715000 
| 32> H   -2.19835000   1.68013000   1.29543000 
| 33> C   -3.42136000  -0.60629000  -1.00840000 
| 34> H   -2.43383000  -0.73247000   0.88084000 
| 35> H   -4.38089000  -0.76336000  -0.52069000 
| 36> H   -3.60043000   0.09879000  -1.82124000 
| 37> H   -3.10326000  -1.55627000  -1.43905000 
| 38> C   -0.82053000   0.20253000  -1.71954000 
| 39> C    0.50570000   0.18582000  -2.23635000 
| 40> H   -1.64285000   0.46384000  -2.37833000 
| 41> C    1.64818000   0.17371000  -1.45195000 
| 42> C    2.78663000  -0.02136000  -2.29616000 
| 43> S    0.80691000   0.02436000  -3.91455000 
| 44> C    2.47738000  -0.09910000  -3.62752000 
| 45> H    1.78238000   0.89277000  -0.43425000 
| 46> H    3.81569000  -0.03746000  -1.96710000 
| 47> H    3.15103000  -0.20251000  -4.46779000 
| 48> H   -1.05660000  -3.01727000   1.24136000 
| 49> H    0.05439000  -1.76025000   3.33499000 
| 50> H    2.63311000  -1.22371000   2.72467000 
| 51> O    1.86922000   1.90132000   0.57338000 
| 52> O    0.16502000   1.02749000   1.67688000 
| 53> C    0.94424000   2.00026000   1.38963000 
| 54> C    0.73164000   3.32081000   2.06139000 
| 55> H    0.73103000   4.09199000   1.29258000 
| 56> H    1.58118000   3.52911000   2.71209000 
| 57> H   -0.18296000   3.38040000   2.64257000 
| 58> H    3.07574000  -2.08904000   0.22776000 
| 59> H    0.83204000  -3.26929000  -0.69799000 
| 60> *
| 61> 
| 62>                          ****END OF INPUT****
================================================================================

                       *****************************
                       * Geometry Optimization Run *
                       *****************************

Geometry optimization settings:
Update method            Update   .... BFGS
Choice of coordinates    CoordSys .... Z-matrix Internals
Initial Hessian          InHess   .... Almoef's Model

Convergence Tolerances:
Energy Change            TolE     ....  5.0000e-06 Eh
Max. Gradient            TolMAXG  ....  3.0000e-04 Eh/bohr
RMS Gradient             TolRMSG  ....  1.0000e-04 Eh/bohr
Max. Displacement        TolMAXD  ....  4.0000e-03 bohr
RMS Displacement         TolRMSD  ....  2.0000e-03 bohr
Strict Convergence                ....  False
------------------------------------------------------------------------------
                        ORCA OPTIMIZATION COORDINATE SETUP
------------------------------------------------------------------------------

The optimization will be done in new redundant internal coordinates
Making redundant internal coordinates   ...  (new redundants) done
Evaluating the initial hessian          ...  (Almloef) done
Evaluating the coordinates              ...  done
Calculating the B-matrix                .... done
Calculating the G-matrix                .... done
Diagonalizing the G-matrix              .... done
Imposing constraints:
 Iter   0:  RMS(Cart)=    0.0395404133 RMS(Int)=    0.0019162560
 Iter   1:  RMS(Cart)=    0.0007607767 RMS(Int)=    0.0001386557
 Iter   2:  RMS(Cart)=    0.0000438395 RMS(Int)=    0.0000105706
 Iter   3:  RMS(Cart)=    0.0000032309 RMS(Int)=    0.0000007769
 Iter   4:  RMS(Cart)=    0.0000002368 RMS(Int)=    0.0000000569
 Iter   5:  RMS(Cart)=    0.0000000173 RMS(Int)=    0.0000000042
CONVERGED
Small eigenvalue found = 1.380e-02
Small eigenvalue found = 1.810e-02
Small eigenvalue found = 2.205e-02
Small eigenvalue found = 2.485e-02
The first mode is                       ....  227
The number of degrees of freedom        ....  111
Storing new coordinates                 .... done

    -----------------------------------------------------------------
                    Redundant Internal Coordinates


    -----------------------------------------------------------------
         Definition                    Initial Value    Approx d2E/dq
    -----------------------------------------------------------------
      1. B(C   1,Ir  0)                  2.1276         0.096806   
      2. B(C   2,C   1)                  1.4277         0.543992   
      3. B(C   2,Ir  0)                  2.1444         0.091043   
      4. B(C   3,Ir  0)                  2.1541         0.087839   
      5. B(C   4,Ir  0)                  2.1427         0.091570   
      6. B(C   4,C   3)                  1.4293         0.540892   
      7. B(C   4,C   1)                  1.4300         0.539665   
      8. B(C   5,Ir  0)                  2.1732         0.081888   
      9. B(C   5,C   2)                  1.4312         0.537190   
     10. B(C   5,C   3)                  1.4175         0.565026   
     11. B(N   6,Ir  0)                  2.0944         0.098235   
     12. B(C   7,N   6)                  1.4780         0.405052   
     13. B(C   8,C   7)                  1.5238         0.382247   
     14. B(H   9,C   8)                  1.0897         0.360562   
     15. B(H  10,C   8)                  1.0911         0.358712   
     16. B(H  11,C   8)                  1.0858         0.365663   
     17. B(C  12,C   7)                  1.5250         0.380471   
     18. B(H  13,C   7)                  1.0898         0.360360   
     19. B(H  14,C  12)                  1.0878         0.363071   
     20. B(H  15,C  12)                  1.0908         0.359002   
     21. B(H  16,C  12)                  1.0905         0.359488   
     22. B(C  17,N   6)                  1.2827         0.836602   
     23. B(C  18,C  17)                  1.4250         0.552515   
     24. B(H  19,C  17)                  1.0856         0.365987   
     25. B(C  20,C  18)                  1.3858         0.634302   
     26. B(C  20,Ir  0)                  2.6000         0.021408 C 
     27. B(C  21,C  20)                  1.4309         0.538090   
     28. B(S  22,C  18)                  1.7133         0.514929   
     29. B(C  23,C  21)                  1.3689         0.674871   
     30. B(C  23,S  22)                  1.6995         0.540522   
     31. B(H  24,C  20)                  1.2522         0.197643   
     32. B(H  25,C  21)                  1.0807         0.372874   
     33. B(H  26,C  23)                  1.0821         0.370949   
     34. B(H  27,C   1)                  1.0811         0.372059   
     35. B(H  28,C   2)                  1.0818         0.371161   
     36. B(H  29,C   5)                  1.0797         0.374074   
     37. B(O  30,H  24)                  1.5000         0.093074 C 
     38. B(O  31,Ir  0)                  2.0662         0.109088   
     39. B(C  32,O  30)                  1.2372         0.979553   
     40. B(C  32,O  31)                  1.2797         0.841170   
     41. B(C  33,C  32)                  1.4969         0.422083   
     42. B(H  34,C  33)                  1.0890         0.361507   
     43. B(H  35,C  33)                  1.0903         0.359847   
     44. B(H  36,C  33)                  1.0854         0.366410   
     45. B(H  37,C   3)                  1.0807         0.372716   
     46. B(H  38,C   4)                  1.0777         0.376779   
     47. A(C   2,Ir  0,O  31)           95.9683         0.257343   
     48. A(C   1,Ir  0,O  31)          124.9578         0.259698   
     49. A(C   5,Ir  0,N   6)          165.6897         0.249501   
     50. A(C   1,Ir  0,C   3)           64.7287         0.252701   
     51. A(C   1,Ir  0,C   5)           65.0600         0.250122   
     52. A(C   3,Ir  0,O  31)          135.0113         0.255983   
     53. A(C   3,Ir  0,N   6)          142.1496         0.252070   
     54. A(C   2,Ir  0,C   5)           38.7102         0.247899   
     55. A(C   3,Ir  0,C   4)           38.8580         0.250653   
     56. A(C   2,Ir  0,C   4)           65.5492         0.251970   
     57. A(C   5,Ir  0,O  31)          101.1033         0.253353   
     58. A(C   4,Ir  0,N   6)          107.8916         0.253612   
     59. A(C   1,Ir  0,C   2)           39.0468         0.254033   
     60. A(C   4,Ir  0,C   5)           65.2283         0.248107   
     61. A(C   4,Ir  0,O  31)          161.5082         0.257563   
     62. A(C   1,Ir  0,N   6)          101.4641         0.255697   
     63. A(C   2,Ir  0,C   3)           64.4800         0.250442   
     64. A(C   2,Ir  0,N   6)          127.4831         0.253397   
     65. A(C   1,Ir  0,C   4)           39.1283         0.254249   
     66. A(N   6,Ir  0,O  31)           82.4075         0.259040   
     67. A(C   3,Ir  0,C   5)           38.2383         0.246616   
     68. A(Ir  0,C   1,H  27)          124.1035         0.274147   
     69. A(C   2,C   1,C   4)          108.5996         0.413643   
     70. A(Ir  0,C   1,C   4)           71.0063         0.321869   
     71. A(C   4,C   1,H  27)          126.4707         0.346647   
     72. A(Ir  0,C   1,C   2)           71.1112         0.322291   
     73. A(C   2,C   1,H  27)          124.9285         0.347113   
     74. A(C   5,C   2,H  28)          125.9592         0.346238   
     75. A(Ir  0,C   2,C   5)           71.7347         0.318418   
     76. A(C   1,C   2,C   5)          108.0073         0.413305   
     77. A(Ir  0,C   2,C   1)           69.8420         0.319072   
     78. A(Ir  0,C   2,H  28)          125.3187         0.271493   
     79. A(C   1,C   2,H  28)          126.0129         0.346972   
     80. A(Ir  0,C   3,H  37)          121.6521         0.270191   
     81. A(C   4,C   3,C   5)          109.6060         0.416611   
     82. A(C   4,C   3,H  37)          125.4426         0.346882   
     83. A(Ir  0,C   3,C   4)           70.1399         0.316920   
     84. A(Ir  0,C   3,C   5)           71.6109         0.319182   
     85. A(C   5,C   3,H  37)          124.8414         0.349443   
     86. A(Ir  0,C   4,C   1)           69.8654         0.318957   
     87. A(Ir  0,C   4,H  38)          125.0070         0.272354   
     88. A(C   1,C   4,H  38)          126.8502         0.347383   
     89. A(C   3,C   4,H  38)          126.5688         0.347516   
     90. A(Ir  0,C   4,C   3)           71.0020         0.319076   
     91. A(C   1,C   4,C   3)          106.5695         0.413223   
     92. A(Ir  0,C   5,H  29)          126.1250         0.267483   
     93. A(C   3,C   5,H  29)          126.5969         0.349657   
     94. A(C   2,C   5,H  29)          126.1827         0.346694   
     95. A(Ir  0,C   5,C   3)           70.1508         0.315556   
     96. A(C   2,C   5,C   3)          107.2152         0.416102   
     97. A(Ir  0,C   5,C   2)           69.5551         0.312981   
     98. A(Ir  0,N   6,C  17)          118.8355         0.343062   
     99. A(C   7,N   6,C  17)          118.6025         0.418862   
    100. A(Ir  0,N   6,C   7)          122.5515         0.304597   
    101. A(N   6,C   7,C   8)          111.9178         0.367565   
    102. A(N   6,C   7,C  12)          111.5812         0.367272   
    103. A(C   8,C   7,C  12)          110.9248         0.365924   
    104. A(N   6,C   7,H  13)          105.3569         0.326734   
    105. A(C   8,C   7,H  13)          108.4383         0.325583   
    106. A(C  12,C   7,H  13)          108.3604         0.325334   
    107. A(C   7,C   8,H  11)          112.3667         0.326366   
    108. A(H   9,C   8,H  11)          107.8882         0.291600   
    109. A(H  10,C   8,H  11)          108.7149         0.291364   
    110. A(C   7,C   8,H   9)          108.8922         0.325613   
    111. A(C   7,C   8,H  10)          111.2007         0.325338   
    112. A(H   9,C   8,H  10)          107.6139         0.290722   
    113. A(C   7,C  12,H  14)          109.0518         0.325735   
    114. A(C   7,C  12,H  15)          112.3576         0.325132   
    115. A(H  14,C  12,H  15)          106.4169         0.291075   
    116. A(C   7,C  12,H  16)          112.3194         0.325204   
    117. A(H  14,C  12,H  16)          107.9750         0.291137   
    118. A(H  15,C  12,H  16)          108.4637         0.290622   
    119. A(N   6,C  17,C  18)          120.8737         0.445811   
    120. A(N   6,C  17,H  19)          120.2356         0.370133   
    121. A(C  18,C  17,H  19)          118.8673         0.347060   
    122. A(C  17,C  18,C  20)          124.5995         0.426922   
    123. A(C  17,C  18,S  22)          121.1234         0.433975   
    124. A(C  20,C  18,S  22)          114.0280         0.444924   
    125. A(C  18,C  20,C  21)          108.9327         0.424905   
    126. A(C  18,C  20,H  24)          122.8602         0.320593   
    127. A(C  21,C  20,H  24)          118.1407         0.312129   
    128. A(C  20,C  21,H  25)          125.4658         0.346604   
    129. A(C  23,C  21,H  25)          120.6974         0.360154   
    130. A(C  20,C  21,C  23)          113.6881         0.429651   
    131. A(C  18,S  22,C  23)           90.8770         0.456364   
    132. A(C  21,C  23,H  26)          128.3362         0.359837   
    133. A(S  22,C  23,H  26)          119.2122         0.364647   
    134. A(C  21,C  23,S  22)          112.4364         0.453938   
    135. A(Ir  0,O  31,C  32)          114.8530         0.349481   
    136. A(O  30,C  32,O  31)          123.0342         0.492341   
    137. A(O  30,C  32,C  33)          118.1265         0.436917   
    138. A(O  31,C  32,C  33)          118.8390         0.425128   
    139. A(C  32,C  33,H  34)          107.9352         0.331125   
    140. A(C  32,C  33,H  35)          109.0159         0.330873   
    141. A(H  34,C  33,H  35)          106.6481         0.290985   
    142. A(C  32,C  33,H  36)          114.1099         0.331865   
    143. A(H  34,C  33,H  36)          109.8028         0.291813   
    144. A(H  35,C  33,H  36)          109.0614         0.291602   
    145. D(C   2,C   1,Ir  0,C   4)    118.3132         0.001757   
    146. D(C   2,C   1,Ir  0,C   5)     37.5552         0.001757   
    147. D(H  27,C   1,Ir  0,O  31)     71.2806         0.001757   
    148. D(C   4,C   1,Ir  0,C   2)   -118.3132         0.001757   
    149. D(C   2,C   1,Ir  0,O  31)    -48.6621         0.001757   
    150. D(H  27,C   1,Ir  0,C   3)   -160.0937         0.001757   
    151. D(C   4,C   1,Ir  0,O  31)   -166.9753         0.001757   
    152. D(H  27,C   1,Ir  0,C   2)    119.9428         0.001757   
    153. D(C   4,C   1,Ir  0,C   3)    -38.3496         0.001757   
    154. D(H  27,C   1,Ir  0,N   6)    -17.4178         0.001757   
    155. D(C   2,C   1,Ir  0,C   3)     79.9636         0.001757   
    156. D(C   4,C   1,Ir  0,N   6)    104.3263         0.001757   
    157. D(H  27,C   1,Ir  0,C   4)   -121.7441         0.001757   
    158. D(H  27,C   1,Ir  0,C   5)    157.4980         0.001757   
    159. D(C   4,C   1,Ir  0,C   5)    -80.7579         0.001757   
    160. D(C   2,C   1,Ir  0,N   6)   -137.3605         0.001757   
    161. D(Ir  0,C   2,C   1,H  27)   -118.9376         0.023567   
    162. D(C   1,C   2,Ir  0,C   5)   -117.9007         0.001728   
    163. D(C   1,C   2,Ir  0,C   4)    -37.6110         0.001728   
    164. D(H  28,C   2,C   1,H  27)      0.7002         0.023567   
    165. D(H  28,C   2,C   1,Ir  0)    119.6378         0.023567   
    166. D(C   5,C   2,C   1,H  27)    179.1222         0.023567   
    167. D(C   1,C   2,Ir  0,C   3)    -80.6549         0.001728   
    168. D(H  28,C   2,Ir  0,C   4)   -158.1094         0.001728   
    169. D(H  28,C   2,Ir  0,C   5)    121.6009         0.001728   
    170. D(C   5,C   2,Ir  0,C   3)     37.2458         0.001728   
    171. D(C   5,C   2,Ir  0,C   1)    117.9007         0.001728   
    172. D(H  28,C   2,C   1,C   4)   -178.9230         0.023567   
    173. D(C   5,C   2,Ir  0,C   4)     80.2897         0.001728   
    174. D(C   5,C   2,C   1,Ir  0)    -61.9402         0.023567   
    175. D(H  28,C   2,Ir  0,N   6)    -63.7157         0.001728   
    176. D(H  28,C   2,Ir  0,O  31)     21.2794         0.001728   
    177. D(Ir  0,C   2,C   1,C   4)     61.4392         0.023567   
    178. D(C   5,C   2,C   1,C   4)     -0.5010         0.023567   
    179. D(C   1,C   2,Ir  0,N   6)     56.7827         0.001728   
    180. D(C   5,C   2,Ir  0,O  31)   -100.3215         0.001728   
    181. D(H  28,C   2,Ir  0,C   1)   -120.4984         0.001728   
    182. D(C   1,C   2,Ir  0,O  31)    141.7778         0.001728   
    183. D(H  28,C   2,Ir  0,C   3)    158.8467         0.001728   
    184. D(C   5,C   2,Ir  0,N   6)    174.6834         0.001728   
    185. D(C   4,C   3,Ir  0,C   5)    119.7390         0.001712   
    186. D(C   4,C   3,Ir  0,C   1)     38.6150         0.001712   
    187. D(C   4,C   3,Ir  0,O  31)    153.7004         0.001712   
    188. D(C   4,C   3,Ir  0,C   2)     82.0380         0.001712   
    189. D(C   5,C   3,Ir  0,O  31)     33.9614         0.001712   
    190. D(C   5,C   3,Ir  0,C   2)    -37.7010         0.001712   
    191. D(C   4,C   3,Ir  0,N   6)    -36.9483         0.001712   
    192. D(H  37,C   3,Ir  0,C   4)    120.1077         0.001712   
    193. D(H  37,C   3,Ir  0,C   1)    158.7227         0.001712   
    194. D(C   5,C   3,Ir  0,C   1)    -81.1240         0.001712   
    195. D(C   5,C   3,Ir  0,C   4)   -119.7390         0.001712   
    196. D(C   5,C   3,Ir  0,N   6)   -156.6872         0.001712   
    197. D(H  37,C   3,Ir  0,C   5)   -120.1533         0.001712   
    198. D(H  37,C   3,Ir  0,N   6)     83.1594         0.001712   
    199. D(H  37,C   3,Ir  0,O  31)    -86.1919         0.001712   
    200. D(H  37,C   3,Ir  0,C   2)   -157.8543         0.001712   
    201. D(C   1,C   4,Ir  0,C   3)    116.5812         0.001730   
    202. D(H  38,C   4,C   3,H  37)      4.6778         0.023288   
    203. D(C   1,C   4,Ir  0,C   5)     80.2908         0.001730   
    204. D(C   1,C   4,Ir  0,N   6)    -86.2225         0.001730   
    205. D(C   1,C   4,Ir  0,O  31)     35.6171         0.001730   
    206. D(C   1,C   4,Ir  0,C   2)     37.5338         0.001730   
    207. D(C   3,C   4,Ir  0,C   1)   -116.5812         0.001730   
    208. D(H  38,C   4,C   3,C   5)   -178.9918         0.023288   
    209. D(C   3,C   4,Ir  0,C   5)    -36.2904         0.001730   
    210. D(C   3,C   4,Ir  0,N   6)    157.1963         0.001730   
    211. D(C   3,C   4,Ir  0,O  31)    -80.9641         0.001730   
    212. D(Ir  0,C   4,C   1,C   2)    -61.5054         0.023178   
    213. D(H  38,C   4,Ir  0,C   2)    159.0719         0.001730   
    214. D(H  38,C   4,Ir  0,C   3)   -121.8807         0.001730   
    215. D(H  38,C   4,C   1,C   2)    179.2330         0.023178   
    216. D(H  38,C   4,Ir  0,N   6)     35.3155         0.001730   
    217. D(H  38,C   4,Ir  0,O  31)    157.1551         0.001730   
    218. D(Ir  0,C   4,C   1,H  27)    118.8788         0.023178   
    219. D(C   3,C   4,C   1,Ir  0)     61.9117         0.023178   
    220. D(C   3,C   4,C   1,H  27)   -179.2095         0.023178   
    221. D(H  38,C   4,C   1,Ir  0)   -119.2616         0.023178   
    222. D(H  38,C   4,Ir  0,C   5)   -158.1711         0.001730   
    223. D(H  38,C   4,C   1,H  27)     -0.3828         0.023178   
    224. D(Ir  0,C   4,C   3,C   5)     61.0056         0.023288   
    225. D(Ir  0,C   4,C   3,H  37)   -115.3247         0.023288   
    226. D(C   3,C   4,C   1,C   2)      0.4063         0.023178   
    227. D(C   1,C   4,C   3,C   5)     -0.1608         0.023288   
    228. D(C   1,C   4,C   3,H  37)   -176.4912         0.023288   
    229. D(H  38,C   4,C   3,Ir  0)    120.0026         0.023288   
    230. D(H  38,C   4,Ir  0,C   1)    121.5380         0.001730   
    231. D(C   1,C   4,C   3,Ir  0)    -61.1664         0.023288   
    232. D(C   3,C   4,Ir  0,C   2)    -79.0474         0.001730   
    233. D(C   2,C   5,Ir  0,C   1)    -37.8781         0.001685   
    234. D(H  29,C   5,C   3,C   4)    179.0584         0.025516   
    235. D(C   2,C   5,Ir  0,C   4)    -81.1915         0.001685   
    236. D(C   2,C   5,Ir  0,N   6)    -17.3062         0.001685   
    237. D(C   2,C   5,Ir  0,O  31)     85.6736         0.001685   
    238. D(C   3,C   5,Ir  0,C   1)     80.1811         0.001685   
    239. D(C   3,C   5,Ir  0,C   2)    118.0591         0.001685   
    240. D(C   3,C   5,Ir  0,C   4)     36.8676         0.001685   
    241. D(H  29,C   5,C   2,C   1)   -178.8119         0.022957   
    242. D(C   3,C   5,Ir  0,O  31)   -156.2673         0.001685   
    243. D(H  29,C   5,Ir  0,C   1)   -158.4041         0.001685   
    244. D(C   3,C   5,C   2,Ir  0)    -60.3386         0.022957   
    245. D(H  29,C   5,Ir  0,C   3)    121.4148         0.001685   
    246. D(H  29,C   5,Ir  0,C   4)    158.2824         0.001685   
    247. D(H  29,C   5,Ir  0,N   6)   -137.8322         0.001685   
    248. D(H  29,C   5,Ir  0,O  31)    -34.8525         0.001685   
    249. D(Ir  0,C   5,C   2,C   1)     60.7337         0.022957   
    250. D(H  29,C   5,Ir  0,C   2)   -120.5261         0.001685   
    251. D(Ir  0,C   5,C   2,H  28)   -120.8433         0.022957   
    252. D(C   3,C   5,C   2,C   1)      0.3951         0.022957   
    253. D(C   3,C   5,C   2,H  28)    178.8181         0.022957   
    254. D(C   3,C   5,Ir  0,N   6)    100.7529         0.001685   
    255. D(H  29,C   5,C   2,Ir  0)    120.4545         0.022957   
    256. D(H  29,C   5,C   2,H  28)     -0.3889         0.022957   
    257. D(Ir  0,C   5,C   3,C   4)    -60.1020         0.025516   
    258. D(Ir  0,C   5,C   3,H  37)    116.2554         0.025516   
    259. D(C   2,C   5,C   3,Ir  0)     59.9578         0.025516   
    260. D(C   2,C   5,C   3,C   4)     -0.1443         0.025516   
    261. D(C   2,C   5,C   3,H  37)    176.2131         0.025516   
    262. D(C   2,C   5,Ir  0,C   3)   -118.0591         0.001685   
    263. D(H  29,C   5,C   3,Ir  0)   -120.8395         0.025516   
    264. D(H  29,C   5,C   3,H  37)     -4.5842         0.025516   
    265. D(C  17,N   6,Ir  0,C   1)   -122.1670         0.001786   
    266. D(C   7,N   6,Ir  0,C   2)     24.1082         0.001786   
    267. D(C   7,N   6,Ir  0,C   3)    119.9639         0.001786   
    268. D(C   7,N   6,Ir  0,C   4)     96.6177         0.001786   
    269. D(C   7,N   6,Ir  0,C   5)     37.6669         0.001786   
    270. D(C   7,N   6,Ir  0,C   1)     56.6387         0.001786   
    271. D(C   7,N   6,Ir  0,O  31)    -67.6093         0.001786   
    272. D(C  17,N   6,Ir  0,C   2)   -154.6975         0.001786   
    273. D(C  17,N   6,Ir  0,C   3)    -58.8418         0.001786   
    274. D(C  17,N   6,Ir  0,C   4)    -82.1881         0.001786   
    275. D(C  17,N   6,Ir  0,C   5)   -141.1388         0.001786   
    276. D(C  17,N   6,Ir  0,O  31)    113.5849         0.001786   
    277. D(C   8,C   7,N   6,Ir  0)     96.9318         0.014001   
    278. D(C   8,C   7,N   6,C  17)    -84.2598         0.014001   
    279. D(C  12,C   7,N   6,Ir  0)   -138.0986         0.014001   
    280. D(C  12,C   7,N   6,C  17)     40.7098         0.014001   
    281. D(H  13,C   7,N   6,Ir  0)    -20.7170         0.014001   
    282. D(H  13,C   7,N   6,C  17)    158.0914         0.014001   
    283. D(H   9,C   8,C   7,N   6)    178.2448         0.011638   
    284. D(H   9,C   8,C   7,C  12)     52.9127         0.011638   
    285. D(H   9,C   8,C   7,H  13)    -65.9663         0.011638   
    286. D(H  10,C   8,C   7,N   6)     59.8338         0.011638   
    287. D(H  10,C   8,C   7,C  12)    -65.4983         0.011638   
    288. D(H  10,C   8,C   7,H  13)    175.6227         0.011638   
    289. D(H  11,C   8,C   7,N   6)    -62.2908         0.011638   
    290. D(H  11,C   8,C   7,C  12)    172.3771         0.011638   
    291. D(H  11,C   8,C   7,H  13)     53.4982         0.011638   
    292. D(H  14,C  12,C   7,N   6)    167.3958         0.011536   
    293. D(H  14,C  12,C   7,C   8)    -67.0833         0.011536   
    294. D(H  14,C  12,C   7,H  13)     51.8426         0.011536   
    295. D(H  15,C  12,C   7,N   6)    -74.8716         0.011536   
    296. D(H  15,C  12,C   7,C   8)     50.6493         0.011536   
    297. D(H  15,C  12,C   7,H  13)    169.5752         0.011536   
    298. D(H  16,C  12,C   7,N   6)     47.7460         0.011536   
    299. D(H  16,C  12,C   7,C   8)    173.2670         0.011536   
    300. D(H  16,C  12,C   7,H  13)    -67.8072         0.011536   
    301. D(C  18,C  17,N   6,Ir  0)     -1.9496         0.060347   
    302. D(C  18,C  17,N   6,C   7)    179.1970         0.060347   
    303. D(H  19,C  17,N   6,Ir  0)    176.2718         0.060347   
    304. D(H  19,C  17,N   6,C   7)     -2.5816         0.060347   
    305. D(C  20,C  18,C  17,N   6)    -17.1515         0.020890   
    306. D(C  20,C  18,C  17,H  19)    164.6031         0.020890   
    307. D(S  22,C  18,C  17,N   6)    156.7658         0.020890   
    308. D(S  22,C  18,C  17,H  19)    -21.4796         0.020890   
    309. D(C  21,C  20,C  18,C  17)    172.3415         0.030347   
    310. D(C  21,C  20,C  18,S  22)     -1.9586         0.030347   
    311. D(H  24,C  20,C  18,C  17)    -43.0557         0.030347   
    312. D(H  24,C  20,C  18,S  22)    142.6442         0.030347   
    313. D(C  23,C  21,C  20,C  18)      2.0379         0.021459   
    314. D(C  23,C  21,C  20,H  24)   -144.4724         0.021459   
    315. D(H  25,C  21,C  20,C  18)    177.6051         0.021459   
    316. D(H  25,C  21,C  20,H  24)     31.0947         0.021459   
    317. D(C  23,S  22,C  18,C  17)   -173.3945         0.005442   
    318. D(C  23,S  22,C  18,C  20)      1.1255         0.005442   
    319. D(S  22,C  23,C  21,C  20)     -1.2650         0.031888   
    320. D(S  22,C  23,C  21,H  25)   -177.0667         0.031888   
    321. D(H  26,C  23,C  21,C  20)    177.2882         0.031888   
    322. D(H  26,C  23,C  21,H  25)      1.4866         0.031888   
    323. D(C  21,C  23,S  22,C  18)      0.1014         0.005865   
    324. D(H  26,C  23,S  22,C  18)   -178.5984         0.005865   
    325. D(C  32,O  31,Ir  0,C   1)    159.6261         0.001833   
    326. D(C  32,O  31,Ir  0,C   2)    131.2299         0.001833   
    327. D(C  32,O  31,Ir  0,C   3)     71.7697         0.001833   
    328. D(C  32,O  31,Ir  0,C   4)    132.9842         0.001833   
    329. D(C  32,O  31,Ir  0,C   5)     92.4009         0.001833   
    330. D(C  32,O  31,Ir  0,N   6)   -101.6620         0.001833   
    331. D(O  30,C  32,O  31,Ir  0)      0.2491         0.055212   
    332. D(C  33,C  32,O  31,Ir  0)   -179.9768         0.055212   
    333. D(H  34,C  33,C  32,O  30)     48.6310         0.013170   
    334. D(H  34,C  33,C  32,O  31)   -131.1543         0.013170   
    335. D(H  35,C  33,C  32,O  30)    -66.8401         0.013170   
    336. D(H  35,C  33,C  32,O  31)    113.3746         0.013170   
    337. D(H  36,C  33,C  32,O  30)    170.9730         0.013170   
    338. D(H  36,C  33,C  32,O  31)     -8.8122         0.013170   
    -----------------------------------------------------------------

Number of atoms                         .... 39
Number of degrees of freedom            .... 338

         *************************************************************
         *                GEOMETRY OPTIMIZATION CYCLE   1            *
         *************************************************************
---------------------------------
CARTESIAN COORDINATES (ANGSTROEM)
---------------------------------
  Ir     0.588714   -0.729541    0.688930
  C     -0.043901   -2.666119    1.302222
  C      0.532050   -1.992060    2.421318
  C      2.147771   -2.211139    0.808923
  C      0.955161   -2.802290    0.288156
  C      1.901835   -1.714145    2.113419
  N     -1.026105   -0.120466   -0.497589
  C     -2.412710   -0.070262    0.011588
  C     -2.801380    1.331279    0.465967
  H     -3.838138    1.318697    0.801125
  H     -2.728353    2.046556   -0.354676
  H     -2.188587    1.683161    1.290402
  C     -3.406534   -0.605576   -1.013816
  H     -2.425688   -0.729837    0.879046
  H     -4.367947   -0.760614   -0.529156
  H     -3.581905    0.098367   -1.828457
  H     -3.088149   -1.556681   -1.441774
  C     -0.808955    0.200561   -1.720297
  C      0.511059    0.185683   -2.256849
  H     -1.636856    0.461280   -2.372356
  C      1.669527    0.173930   -1.496381
  C      2.791721   -0.019541   -2.362834
  S      0.780584    0.025555   -3.941181
  C      2.456644   -0.096632   -3.687822
  H      1.823562    0.891508   -0.481749
  H      3.827200   -0.035005   -2.053815
  H      3.113750   -0.198880   -4.541499
  H     -1.065714   -3.015267    1.248668
  H      0.029464   -1.757335    3.350093
  H      2.615203   -1.228756    2.762398
  O      1.877858    1.916319    0.612241
  O      0.162174    1.027311    1.689388
  C      0.941413    2.004798    1.415873
  C      0.713260    3.320909    2.091437
  H      0.718973    4.095943    1.326487
  H      1.553119    3.530217    2.754453
  H     -0.209351    3.372985    2.660781
  H      3.078490   -2.099824    0.271119
  H      0.840109   -3.275899   -0.673042

----------------------------
CARTESIAN COORDINATES (A.U.)
----------------------------
  NO LB      ZA    FRAG     MASS         X           Y           Z
   0 Ir   17.0000*   0   192.220    1.112509   -1.378633    1.301888
   1 C     6.0000    0    12.011   -0.082960   -5.038235    2.460842
   2 C     6.0000    0    12.011    1.005430   -3.764448    4.575628
   3 C     6.0000    0    12.011    4.058699   -4.178446    1.528643
   4 C     6.0000    0    12.011    1.804992   -5.295561    0.544535
   5 C     6.0000    0    12.011    3.593947   -3.239265    3.993783
   6 N     7.0000    0    14.007   -1.939057   -0.227648   -0.940308
   7 C     6.0000    0    12.011   -4.559361   -0.132775    0.021899
   8 C     6.0000    0    12.011   -5.293841    2.515752    0.880550
   9 H     1.0000    0     1.008   -7.253029    2.491976    1.513907
  10 H     1.0000    0     1.008   -5.155839    3.867431   -0.670240
  11 H     1.0000    0     1.008   -4.135830    3.180712    2.438507
  12 C     6.0000    0    12.011   -6.437417   -1.144373   -1.915835
  13 H     1.0000    0     1.008   -4.583886   -1.379192    1.661155
  14 H     1.0000    0     1.008   -8.254224   -1.437352   -0.999960
  15 H     1.0000    0     1.008   -6.768820    0.185887   -3.455283
  16 H     1.0000    0     1.008   -5.835757   -2.941700   -2.724559
  17 C     6.0000    0    12.011   -1.528704    0.379006   -3.250889
  18 C     6.0000    0    12.011    0.965761    0.350890   -4.264826
  19 H     1.0000    0     1.008   -3.093209    0.871693   -4.483102
  20 C     6.0000    0    12.011    3.154949    0.328680   -2.827750
  21 C     6.0000    0    12.011    5.275589   -0.036928   -4.465110
  22 S    16.0000    0    32.060    1.475091    0.048293   -7.447753
  23 C     6.0000    0    12.011    4.642384   -0.182608   -6.968973
  24 H     1.0000    0     1.008    3.446033    1.684705   -0.910374
  25 H     1.0000    0     1.008    7.232359   -0.066149   -3.881148
  26 H     1.0000    0     1.008    5.884134   -0.375829   -8.582188
  27 H     1.0000    0     1.008   -2.013908   -5.698028    2.359640
  28 H     1.0000    0     1.008    0.055680   -3.320881    6.330759
  29 H     1.0000    0     1.008    4.942017   -2.322013    5.220175
  30 O     8.0000    0    15.999    3.548637    3.621317    1.156968
  31 O     8.0000    0    15.999    0.306465    1.941336    3.192480
  32 C     6.0000    0    12.011    1.779013    3.788519    2.675612
  33 C     6.0000    0    12.011    1.347866    6.275609    3.952242
  34 H     1.0000    0     1.008    1.358663    7.740210    2.506697
  35 H     1.0000    0     1.008    2.934970    6.671143    5.205162
  36 H     1.0000    0     1.008   -0.395615    6.374018    5.028146
  37 H     1.0000    0     1.008    5.817503   -3.968093    0.512342
  38 H     1.0000    0     1.008    1.587577   -6.190551   -1.271865
* core charge reduced due to ECP

--------------------------------
INTERNAL COORDINATES (ANGSTROEM)
--------------------------------
 Ir     0   0   0     0.000000000000     0.00000000     0.00000000
 C      1   0   0     2.127596128240     0.00000000     0.00000000
 C      2   1   0     1.427698761714    71.10883728     0.00000000
 C      1   2   3     2.154054469065    64.72309506    79.96372205
 C      4   1   2     1.429254290426    70.14376631    38.61278187
 C      4   1   2     1.417371990587    71.61092716   278.87178119
 N      1   2   3     2.093605411748   101.47791802   222.63064297
 C      7   1   2     1.477979107362   122.87065309    56.60105270
 C      8   7   1     1.523753360259   111.91747471    96.93081148
 H      9   8   7     1.089650760840   108.89188051   178.24476371
 H      9   8   7     1.091051160166   111.20086833    59.83380964
 H      9   8   7     1.085827235107   112.36703923   297.70939966
 C      8   7   1     1.525020924971   111.58122492   221.90069396
 H      8   7   1     1.089803610060   105.35697332   339.28198194
 H     13   8   7     1.087763692123   109.05198952   167.39574097
 H     13   8   7     1.090831213754   112.35723812   285.12834373
 H     13   8   7     1.090462760896   112.31972337    47.74612674
 C      7   1   2     1.280535728397   118.19157353   237.78316461
 C     18   7   1     1.423466828943   120.16359374   357.90080333
 H     18   7   1     1.085586183866   120.58970962   176.20453565
 C     19  18   7     1.385889808931   124.24030983   342.85385155
 C     21  19  18     1.430668106690   108.85643793   172.36120887
 S     19  18   7     1.712644748831   121.38118331   156.77819267
 C     22  21  19     1.369013703255   113.69328744     2.03371629
 H     21  19  18     1.253303719615   122.87780482   316.93558956
 H     22  21  19     1.080511072225   125.46344982   177.59560498
 H     24  22  21     1.081920340644   128.32072762   177.28683183
 H      2   1   3     1.081106881118   124.10362072   119.94500210
 H      3   2   1     1.081764641500   126.01458695   119.63677214
 H      6   4   1     1.079636583439   126.59867971   239.16256345
 O     25  21  19     1.428297064689   169.89591630   308.23542939
 O      1   2   3     2.065080781495   124.99405019   311.32704522
 C     31  25  21     1.237594920198   118.44422745   102.15559581
 C     33  31  25     1.496767370068   118.20986094   204.36613826
 H     34  33  31     1.088938832350   107.94059330    48.61863980
 H     34  33  31     1.090191538951   109.01197623   293.14454769
 H     34  33  31     1.085271542288   114.10994660   170.96013616
 H      4   1   2     1.080626366003   121.65007926   158.71870022
 H      5   4   1     1.077674999524   126.57087119   120.00263863

---------------------------
INTERNAL COORDINATES (A.U.)
---------------------------
 Ir     0   0   0     0.000000000000     0.00000000     0.00000000
 C      1   0   0     4.020574005964     0.00000000     0.00000000
 C      2   1   0     2.697959661378    71.10883728     0.00000000
 C      1   2   3     4.070573024082    64.72309506    79.96372205
 C      4   1   2     2.700899184636    70.14376631    38.61278187
 C      4   1   2     2.678444892100    71.61092716   278.87178119
 N      1   2   3     3.956340860699   101.47791802   222.63064297
 C      7   1   2     2.792975744572   122.87065309    56.60105270
 C      8   7   1     2.879476546531   111.91747471    96.93081148
 H      9   8   7     2.059141519607   108.89188051   178.24476371
 H      9   8   7     2.061787890811   111.20086833    59.83380964
 H      9   8   7     2.051916103105   112.36703923   297.70939966
 C      8   7   1     2.881871896695   111.58122492   221.90069396
 H      8   7   1     2.059430362772   105.35697332   339.28198194
 H     13   8   7     2.055575476535   109.05198952   167.39574097
 H     13   8   7     2.061372252328   112.35723812   285.12834373
 H     13   8   7     2.060675977332   112.31972337    47.74612674
 C      7   1   2     2.419861831371   118.19157353   237.78316461
 C     18   7   1     2.689962467423   120.16359374   357.90080333
 H     18   7   1     2.051460582275   120.58970962   176.20453565
 C     19  18   7     2.618952190673   124.24030983   342.85385155
 C     21  19  18     2.703570910180   108.85643793   172.36120887
 S     19  18   7     3.236429539990   121.38118331   156.77819267
 C     22  21  19     2.587060972737   113.69328744     2.03371629
 H     21  19  18     2.368400792697   122.87780482   316.93558956
 H     22  21  19     2.041870011174   125.46344982   177.59560498
 H     24  22  21     2.044533142537   128.32072762   177.28683183
 H      2   1   3     2.042995926810   124.10362072   119.94500210
 H      3   2   1     2.044238913795   126.01458695   119.63677214
 H      6   4   1     2.040217466862   126.59867971   239.16256345
 O     25  21  19     2.699090290146   169.89591630   308.23542939
 O      1   2   3     3.902437121450   124.99405019   311.32704522
 C     31  25  21     2.338715463906   118.44422745   102.15559581
 C     33  31  25     2.828480415618   118.20986094   204.36613826
 H     34  33  31     2.057796169734   107.94059330    48.61863980
 H     34  33  31     2.060163442135   109.01197623   293.14454769
 H     34  33  31     2.050865995863   114.10994660   170.96013616
 H      4   1   2     2.042087884839   121.65007926   158.71870022
 H      5   4   1     2.036510610475   126.57087119   120.00263863

---------------------
BASIS SET INFORMATION
---------------------
There are 6 groups of distinct atoms

 Group   1 Type Ir  : 7s6p5d1f contracted to 6s3p2d1f pattern {211111/411/41/1}
 Group   2 Type C   : 8s4p1d contracted to 4s2p1d pattern {5111/31/1}
 Group   3 Type N   : 8s4p1d contracted to 4s2p1d pattern {5111/31/1}
 Group   4 Type H   : 4s contracted to 2s pattern {31}
 Group   5 Type S   : 10s7p1d contracted to 4s3p1d pattern {5311/511/1}
 Group   6 Type O   : 8s4p1d contracted to 4s2p1d pattern {5111/31/1}

Atom   0Ir   basis set group =>   1
Atom   1C    basis set group =>   2
Atom   2C    basis set group =>   2
Atom   3C    basis set group =>   2
Atom   4C    basis set group =>   2
Atom   5C    basis set group =>   2
Atom   6N    basis set group =>   3
Atom   7C    basis set group =>   2
Atom   8C    basis set group =>   2
Atom   9H    basis set group =>   4
Atom  10H    basis set group =>   4
Atom  11H    basis set group =>   4
Atom  12C    basis set group =>   2
Atom  13H    basis set group =>   4
Atom  14H    basis set group =>   4
Atom  15H    basis set group =>   4
Atom  16H    basis set group =>   4
Atom  17C    basis set group =>   2
Atom  18C    basis set group =>   2
Atom  19H    basis set group =>   4
Atom  20C    basis set group =>   2
Atom  21C    basis set group =>   2
Atom  22S    basis set group =>   5
Atom  23C    basis set group =>   2
Atom  24H    basis set group =>   4
Atom  25H    basis set group =>   4
Atom  26H    basis set group =>   4
Atom  27H    basis set group =>   4
Atom  28H    basis set group =>   4
Atom  29H    basis set group =>   4
Atom  30O    basis set group =>   6
Atom  31O    basis set group =>   6
Atom  32C    basis set group =>   2
Atom  33C    basis set group =>   2
Atom  34H    basis set group =>   4
Atom  35H    basis set group =>   4
Atom  36H    basis set group =>   4
Atom  37H    basis set group =>   4
Atom  38H    basis set group =>   4
---------------------------------
AUXILIARY/J BASIS SET INFORMATION
---------------------------------
There are 6 groups of distinct atoms

 Group   1 Type Ir  : 11s5p5d3f3g contracted to 8s5p5d2f3g pattern {41111111/11111/11111/21/111}
 Group   2 Type C   : 12s5p4d2f1g contracted to 6s4p3d1f1g pattern {711111/2111/211/2/1}
 Group   3 Type N   : 12s5p4d2f1g contracted to 6s4p3d1f1g pattern {711111/2111/211/2/1}
 Group   4 Type H   : 5s2p1d contracted to 3s1p1d pattern {311/2/1}
 Group   5 Type S   : 14s5p5d2f1g contracted to 8s4p3d1f1g pattern {71111111/2111/311/2/1}
 Group   6 Type O   : 12s5p4d2f1g contracted to 6s4p3d1f1g pattern {711111/2111/211/2/1}

Atom   0Ir   basis set group =>   1
Atom   1C    basis set group =>   2
Atom   2C    basis set group =>   2
Atom   3C    basis set group =>   2
Atom   4C    basis set group =>   2
Atom   5C    basis set group =>   2
Atom   6N    basis set group =>   3
Atom   7C    basis set group =>   2
Atom   8C    basis set group =>   2
Atom   9H    basis set group =>   4
Atom  10H    basis set group =>   4
Atom  11H    basis set group =>   4
Atom  12C    basis set group =>   2
Atom  13H    basis set group =>   4
Atom  14H    basis set group =>   4
Atom  15H    basis set group =>   4
Atom  16H    basis set group =>   4
Atom  17C    basis set group =>   2
Atom  18C    basis set group =>   2
Atom  19H    basis set group =>   4
Atom  20C    basis set group =>   2
Atom  21C    basis set group =>   2
Atom  22S    basis set group =>   5
Atom  23C    basis set group =>   2
Atom  24H    basis set group =>   4
Atom  25H    basis set group =>   4
Atom  26H    basis set group =>   4
Atom  27H    basis set group =>   4
Atom  28H    basis set group =>   4
Atom  29H    basis set group =>   4
Atom  30O    basis set group =>   6
Atom  31O    basis set group =>   6
Atom  32C    basis set group =>   2
Atom  33C    basis set group =>   2
Atom  34H    basis set group =>   4
Atom  35H    basis set group =>   4
Atom  36H    basis set group =>   4
Atom  37H    basis set group =>   4
Atom  38H    basis set group =>   4
-------------------------
ECP PARAMETER INFORMATION
-------------------------

 Group 1, Type Ir ECP Def2-ECP (replacing 60 core electrons, lmax=3)

Atom   0Ir   ECP group =>   1



           ************************************************************
           *        Program running with 8 parallel MPI-processes     *
           *              working on a common directory               *
           ************************************************************
------------------------------------------------------------------------------
                           ORCA GTO INTEGRAL CALCULATION
                           -- RI-GTO INTEGRALS CHOSEN --
------------------------------------------------------------------------------
------------------------------------------------------------------------------
                   ___                                                        
                  /   \      - P O W E R E D   B Y -                         
                 /     \                                                     
                 |  |  |   _    _      __       _____    __    __             
                 |  |  |  | |  | |    /  \     |  _  \  |  |  /  |          
                  \  \/   | |  | |   /    \    | | | |  |  | /  /          
                 / \  \   | |__| |  /  /\  \   | |_| |  |  |/  /          
                |  |  |   |  __  | /  /__\  \  |    /   |      \           
                |  |  |   | |  | | |   __   |  |    \   |  |\   \          
                \     /   | |  | | |  |  |  |  | |\  \  |  | \   \       
                 \___/    |_|  |_| |__|  |__|  |_| \__\ |__|  \__/        
                                                                              
                      - O R C A' S   B I G   F R I E N D -                    
                                      &                                       
                       - I N T E G R A L  F E E D E R -                       
                                                                              
 v1 FN, 2020, v2 2021                                                         
------------------------------------------------------------------------------


Reading SHARK input file reaction4-IEIP_ts_guess_scan_0-0_orca.SHARKINP.tmp ... ok
----------------------
SHARK INTEGRAL PACKAGE
----------------------

Number of atoms                             ...     39
Number of basis functions                   ...    358
Number of shells                            ...    184
Maximum angular momentum                    ...      3
Integral batch strategy                     ... SHARK/LIBINT Hybrid
RI-J (if used) integral strategy            ... SPLIT-RIJ (Revised 2003 algorithm where possible)
Printlevel                                  ...      1
Contraction scheme used                     ... SEGMENTED contraction
Coulomb Range Separation                    ... NOT USED
Exchange Range Separation                   ... NOT USED
Finite Nucleus Model                        ... NOT USED
Auxiliary Coulomb fitting basis             ... AVAILABLE
   # of basis functions in Aux-J            ...   1231
   # of shells in Aux-J                     ...    405
   Maximum angular momentum in Aux-J        ...      4
Auxiliary J/K fitting basis                 ... NOT available
Auxiliary Correlation fitting basis         ... NOT available
Auxiliary 'external' fitting basis          ... NOT available
Integral threshold                          ...     2.500000e-11
Primitive cut-off                           ...     2.500000e-12
Primitive pair pre-selection threshold      ...     2.500000e-12

Calculating pre-screening integrals         ... done (  0.0 sec) Dimension = 184
Organizing shell pair data                  ... done (  0.1 sec)
Shell pair information
Total number of shell pairs                 ...     17020
Shell pairs after pre-screening             ...     12841
Total number of primitive shell pairs       ...     60705
Primitive shell pairs kept                  ...     28804
          la=0 lb=0:   4915 shell pairs
          la=1 lb=0:   4228 shell pairs
          la=1 lb=1:    852 shell pairs
          la=2 lb=0:   1718 shell pairs
          la=2 lb=1:    782 shell pairs
          la=2 lb=2:    173 shell pairs
          la=3 lb=0:    110 shell pairs
          la=3 lb=1:     41 shell pairs
          la=3 lb=2:     21 shell pairs
          la=3 lb=3:      1 shell pairs

Calculating one electron integrals          ... done (  0.0 sec)
Calculating ECP integrals                   ... done (  0.8 sec)
Calculating RI/J V-Matrix + Cholesky decomp.... done (  0.1 sec)
Calculating Nuclear repulsion               ... done (  0.0 sec) ENN=   2012.092740506369 Eh

SHARK setup successfully completed in   1.3 seconds

Maximum memory used throughout the entire GTOINT-calculation: 27.0 MB


           ************************************************************
           *        Program running with 8 parallel MPI-processes     *
           *              working on a common directory               *
           ************************************************************
-------------------------------------------------------------------------------
                                 ORCA SCF
-------------------------------------------------------------------------------

------------
SCF SETTINGS
------------
Hamiltonian:
 Density Functional     Method          .... DFT(GTOs)
 Exchange Functional    Exchange        .... PBE
   PBE kappa parameter   XKappa         ....  1.024500
   PBE mue parameter    XMuePBE         ....  0.123457
 Correlation Functional Correlation     .... PBE
   PBE beta parameter  CBetaPBE         ....  0.030000
 LDA part of GGA corr.  LDAOpt          .... PW91-LDA
 Gradients option       PostSCFGGA      .... off
 Hybrid DFT is turned on
   Fraction HF Exchange ScalHFX         ....  0.420000
   Scaling of DF-GGA-X  ScalDFX         ....  0.580000
   Scaling of DF-GGA-C  ScalDFC         ....  1.000000
   Scaling of DF-LDA-C  ScalLDAC        ....  1.000000
   Perturbative correction              ....  0.000000
   Density functional embedding theory  .... OFF
 RI-approximation to the Coulomb term is turned on
   Number of AuxJ basis functions       .... 1231
   RIJ-ON(X) (HFX calculated with O(N)) .... on
   Number of AuxJ basis functions       .... 1231
   RIJ-COSX (HFX calculated with COS-X)).... on


General Settings:
 Integral files         IntName         .... reaction4-IEIP_ts_guess_scan_0-0_orca
 Hartree-Fock type      HFTyp           .... RHF
 Total Charge           Charge          ....    1
 Multiplicity           Mult            ....    1
 Number of Electrons    NEL             ....  164
 Basis Dimension        Dim             ....  358
 Nuclear Repulsion      ENuc            ....   2012.0927405064 Eh

Convergence Acceleration:
 DIIS                   CNVDIIS         .... on
   Start iteration      DIISMaxIt       ....    12
   Startup error        DIISStart       ....  0.200000
   # of expansion vecs  DIISMaxEq       ....     5
   Bias factor          DIISBfac        ....   1.050
   Max. coefficient     DIISMaxC        ....  10.000
 Trust-Rad. Augm. Hess. CNVTRAH         .... auto
   Auto Start mean grad. ratio tolernc. ....  1.125000
   Auto Start start iteration           ....    20
   Auto Start num. interpolation iter.  ....    10
   Max. Number of Micro iterations      ....    16
   Max. Number of Macro iterations      .... Maxiter - #DIIS iter
   Number of Davidson start vectors     ....     2
   Converg. threshold I  (grad. norm)   ....   1.000e-05
   Converg. threshold II (energy diff.) ....   1.000e-08
   Grad. Scal. Fac. for Micro threshold ....   0.100
   Minimum threshold for Micro iter.    ....   0.010
   NR start threshold (gradient norm)   ....   0.001
   Initial trust radius                 ....   0.400
   Minimum AH scaling param. (alpha)    ....   1.000
   Maximum AH scaling param. (alpha)    .... 1000.000
   Orbital update algorithm             .... Taylor
   White noise on init. David. guess    .... on
   Maximum white noise                  ....   0.010
   Quad. conv. algorithm                .... NR
   COSX micro iterations for RIJONX calc.... off
 SOSCF                  CNVSOSCF        .... off
 Level Shifting         CNVShift        .... on
   Level shift para.    LevelShift      ....    0.2500
   Turn off err/grad.   ShiftErr        ....    0.0010
 Zerner damping         CNVZerner       .... off
 Static damping         CNVDamp         .... on
   Fraction old density DampFac         ....    0.7000
   Max. Damping (<1)    DampMax         ....    0.9800
   Min. Damping (>=0)   DampMin         ....    0.0000
   Turn off err/grad.   DampErr         ....    0.1000
 Fernandez-Rico         CNVRico         .... off

SCF Procedure:
 Maximum # iterations   MaxIter         ....   250
 SCF integral mode      SCFMode         .... Direct
   Integral package                     .... SHARK and LIBINT hybrid scheme
 Reset frequency        DirectResetFreq ....    20
 Integral Threshold     Thresh          ....  2.500e-11 Eh
 Primitive CutOff       TCut            ....  2.500e-12 Eh

Convergence Tolerance:
 Convergence Check Mode ConvCheckMode   .... Total+1el-Energy
 Convergence forced     ConvForced      .... 0
 Energy Change          TolE            ....  1.000e-08 Eh
 1-El. energy change                    ....  1.000e-05 Eh
 DIIS Error             TolErr          ....  5.000e-07


Diagonalization of the overlap matrix:
Smallest eigenvalue                        ... 1.119e-03
Time for diagonalization                   ...    0.021 sec
Threshold for overlap eigenvalues          ... 1.000e-08
Number of eigenvalues below threshold      ... 0
Time for construction of square roots      ...    0.014 sec
Total time needed                          ...    0.037 sec

--------------------
INITIAL GUESS: HCORE
--------------------
                      -----------------
                      INTIAL GUESS DONE 
                      -----------------
-------------------
DFT GRID GENERATION
-------------------

General Integration Accuracy     IntAcc      ... 4.159
Radial Grid Type                 RadialGrid  ... OptM3 with GC (2021)
Angular Grid (max. ang.)         AngularGrid ... 3 (Lebedev-194)
Angular grid pruning method      GridPruning ... 4 (adaptive)
Weight generation scheme         WeightScheme... Becke
Basis function cutoff            BFCut       ... 1.0000e-11
Integration weight cutoff        WCut        ... 1.0000e-14
Angular grids for H and He will be reduced by one unit
Partially contracted basis set               ... off
Rotationally invariant grid construction     ... off

Total number of grid points                  ...    93412
Total number of batches                      ...     1479
Average number of points per batch           ...       63
Average number of grid points per atom       ...     2395
Time for grid setup =    0.417 sec

--------------------
COSX GRID GENERATION
--------------------

GRIDX 1
-------
General Integration Accuracy     IntAcc      ... 3.816
Radial Grid Type                 RadialGrid  ... OptM3 with GC (2021)
Angular Grid (max. ang.)         AngularGrid ... 1 (Lebedev-50)
Angular grid pruning method      GridPruning ... 4 (adaptive)
Weight generation scheme         WeightScheme... Becke
Basis function cutoff            BFCut       ... 1.0000e-11
Integration weight cutoff        WCut        ... 1.0000e-14
Angular grids for H and He will be reduced by one unit
Partially contracted basis set               ... on
Rotationally invariant grid construction     ... off

Total number of grid points                  ...    23190
Total number of batches                      ...      381
Average number of points per batch           ...       60
Average number of grid points per atom       ...      595
UseSFitting                                  ... on

GRIDX 2
-------
General Integration Accuracy     IntAcc      ... 4.020
Radial Grid Type                 RadialGrid  ... OptM3 with GC (2021)
Angular Grid (max. ang.)         AngularGrid ... 2 (Lebedev-110)
Angular grid pruning method      GridPruning ... 4 (adaptive)
Weight generation scheme         WeightScheme... Becke
Basis function cutoff            BFCut       ... 1.0000e-11
Integration weight cutoff        WCut        ... 1.0000e-14
Angular grids for H and He will be reduced by one unit
Partially contracted basis set               ... on
Rotationally invariant grid construction     ... off

Total number of grid points                  ...    50382
Total number of batches                      ...      804
Average number of points per batch           ...       62
Average number of grid points per atom       ...     1292
UseSFitting                                  ... on

GRIDX 3
-------
General Integration Accuracy     IntAcc      ... 4.338
Radial Grid Type                 RadialGrid  ... OptM3 with GC (2021)
Angular Grid (max. ang.)         AngularGrid ... 3 (Lebedev-194)
Angular grid pruning method      GridPruning ... 4 (adaptive)
Weight generation scheme         WeightScheme... Becke
Basis function cutoff            BFCut       ... 1.0000e-11
Integration weight cutoff        WCut        ... 1.0000e-14
Angular grids for H and He will be reduced by one unit
Partially contracted basis set               ... on
Rotationally invariant grid construction     ... off

Total number of grid points                  ...   109025
Total number of batches                      ...     1724
Average number of points per batch           ...       63
Average number of grid points per atom       ...     2796
UseSFitting                                  ... on

Time for X-Grid setup             =    1.005 sec

--------------
SCF ITERATIONS
--------------
ITER       Energy         Delta-E        Max-DP      RMS-DP      [F,P]     Damp
               ***  Starting incremental Fock matrix formation  ***
  0   -871.7010744134   0.00000000000013.12265721  0.13966282  3.0549386 0.7000
  1  -1104.3662871926-232.66521277914313.60313673  0.14823665  1.5006940 0.7000
  2  -1168.5740736255 -64.207786432901 5.08704632  0.06691404  0.9873862 0.7000
  3  -1195.9800361709 -27.405962545382 3.54596682  0.04418586  0.7016940 0.7000
  4  -1215.8974989334 -19.917462762514 2.48454366  0.03852561  0.4617025 0.7000
  5  -1228.4272856381 -12.529786704751 1.87022634  0.02977025  0.3345676 0.7000
  6  -1238.9020929055 -10.474807267380 1.84684726  0.02899016  0.2675701 0.7000
  7  -1244.5517634105  -5.649670504992 1.57718918  0.02529353  0.2598872 0.7000
  8  -1250.6164591128  -6.064695702305 1.66444302  0.02533075  0.2728882 0.7000
  9  -1252.8987356280  -2.282276515182 1.60314632  0.02433061  0.3085978 0.7000
 10  -1256.5347466559  -3.636011027900 1.50868535  0.02384638  0.2848712 0.7000
 11  -1257.2865897938  -0.751843137894 1.57343980  0.02405742  0.3330935 0.7000
                               ***Turning on DIIS***
 12  -1259.6125126651  -2.325922871274 1.41845199  0.02320904  0.3027945 0.7000
 13  -1259.5927403760   0.019772289028 1.36624596  0.02043500  0.3457767 0.7000
 14  -1267.2780563367  -7.685315960649 1.03569350  0.01462677  0.2780296 0.7000
 15  -1274.0210359670  -6.742979630277 0.73651983  0.01032754  0.2015364 0.7000
 16  -1278.6637982253  -4.642762258356 0.51646139  0.00727282  0.1343538 0.7000
 17  -1281.7570222869  -3.093224061550 1.20877310  0.01706029  0.0834220 0.0000
 18  -1288.3979721612  -6.640949874305 0.05017096  0.00066491  0.0313323 0.0000
 19  -1288.4194206661  -0.021448504892 0.04188731  0.00050081  0.0243327 0.0000
               *** Restarting incremental Fock matrix formation ***
                                   *** Resetting DIIS ***
 20  -1288.4256208266  -0.006200160511 0.05062158  0.00061307  0.0215212 0.0000
 21  -1288.4263845068  -0.000763680243 0.02554399  0.00026888  0.0279555 0.0000
 22  -1288.4301765745  -0.003792067713 0.00467667  0.00008762  0.0048025 0.0000
 23  -1288.4304568080  -0.000280233518 0.00447842  0.00004508  0.0026797 0.0000
 24  -1288.4305186667  -0.000061858707 0.00385716  0.00004154  0.0007324 0.0000
               *** Restarting incremental Fock matrix formation ***
                                   *** Resetting DIIS ***
 25  -1288.4301497299   0.000368936849 0.00464758  0.00009465  0.0005134 0.0000
 26  -1288.4301689758  -0.000019245923 0.00115072  0.00001404  0.0006084 0.0000
 27  -1288.4301695349  -0.000000559068 0.00091291  0.00000836  0.0006703 0.0000
 28  -1288.4301719484  -0.000002413498 0.00038467  0.00000325  0.0001706 0.0000
 29  -1288.4301720837  -0.000000135292 0.00029204  0.00000210  0.0001015 0.0000
 30  -1288.4301721945  -0.000000110781 0.00014523  0.00000111  0.0000519 0.0000
 31  -1288.4301722183  -0.000000023796 0.00008008  0.00000064  0.0000174 0.0000
 32  -1288.4301722233  -0.000000005002 0.00003317  0.00000032  0.0000100 0.0000
 33  -1288.4301722217   0.000000001598 0.00002402  0.00000018  0.0000053 0.0000
 34  -1288.4301722315  -0.000000009872 0.00001064  0.00000008  0.0000044 0.0000
 35  -1288.4301722288   0.000000002779 0.00000647  0.00000005  0.0000029 0.0000
 36  -1288.4301722420  -0.000000013245 0.00000480  0.00000004  0.0000020 0.0000
                            ***DIIS convergence achieved***

               *****************************************************
               *                     SUCCESS                       *
               *           SCF CONVERGED AFTER  37 CYCLES          *
               *****************************************************

Old exchange energy                            =    -59.644529395 Eh
New exchange energy                            =    -59.644556275 Eh
Exchange energy change after final integration =     -0.000026880 Eh
Total energy after final integration           =  -1288.430199124 Eh
Final COS-X integration done in                =     7.208 sec

----------------
TOTAL SCF ENERGY
----------------

Total Energy       :        -1288.43019912 Eh          -35059.96813 eV

Components:
Nuclear Repulsion  :         2012.09274051 Eh           54751.82700 eV
Electronic Energy  :        -3300.52293963 Eh          -89811.79513 eV
One Electron Energy:        -5779.92389400 Eh         -157279.72510 eV
Two Electron Energy:         2479.40095437 Eh           67467.92997 eV
Max COSX asymmetry :            0.00002065 Eh               0.00056 eV

Virial components:
Potential Energy   :        -2501.45593570 Eh          -68068.07652 eV
Kinetic Energy     :         1213.02573657 Eh           33008.10839 eV
Virial Ratio       :            2.06216229


DFT components:
N(Alpha)           :       82.000653775505 electrons
N(Beta)            :       82.000653775505 electrons
N(Total)           :      164.001307551009 electrons
E(X)               :      -79.577216284951 Eh       
E(C)               :       -7.449899695590 Eh       
E(XC)              :      -87.027115980541 Eh       
DFET-embed. en.    :        0.000000000000 Eh       

---------------
SCF CONVERGENCE
---------------

  Last Energy change         ...   -2.3103e-09  Tolerance :   1.0000e-08
  Last MAX-Density change    ...    0.0000e+00  Tolerance :   1.0000e-07
  Last RMS-Density change    ...    0.0000e+00  Tolerance :   5.0000e-09
  Last DIIS Error            ...    7.5405e-07  Tolerance :   5.0000e-07

             **** THE GBW FILE WAS UPDATED (reaction4-IEIP_ts_guess_scan_0-0_orca.gbw) ****
             **** DENSITY reaction4-IEIP_ts_guess_scan_0-0_orca.scfp WAS UPDATED ****
             **** ENERGY FILE WAS UPDATED (reaction4-IEIP_ts_guess_scan_0-0_orca.en.tmp) ****
             **** THE GBW FILE WAS UPDATED (reaction4-IEIP_ts_guess_scan_0-0_orca.gbw) ****
             **** DENSITY reaction4-IEIP_ts_guess_scan_0-0_orca.scfp WAS UPDATED ****
----------------
ORBITAL ENERGIES
----------------

  NO   OCC          E(Eh)            E(eV) 
   0   2.0000     -89.755514     -2442.3717 
   1   2.0000     -19.625081      -534.0256 
   2   2.0000     -19.585115      -532.9381 
   3   2.0000     -14.831848      -403.5951 
   4   2.0000     -10.678654      -290.5809 
   5   2.0000     -10.653811      -289.9049 
   6   2.0000     -10.647624      -289.7366 
   7   2.0000     -10.643891      -289.6350 
   8   2.0000     -10.643365      -289.6207 
   9   2.0000     -10.627352      -289.1850 
  10   2.0000     -10.626414      -289.1594 
  11   2.0000     -10.618388      -288.9410 
  12   2.0000     -10.613596      -288.8106 
  13   2.0000     -10.606810      -288.6260 
  14   2.0000     -10.592668      -288.2412 
  15   2.0000     -10.583318      -287.9867 
  16   2.0000     -10.552408      -287.1456 
  17   2.0000     -10.540950      -286.8338 
  18   2.0000     -10.533605      -286.6340 
  19   2.0000      -8.395340      -228.4488 
  20   2.0000      -6.285280      -171.0312 
  21   2.0000      -6.281744      -170.9350 
  22   2.0000      -6.280147      -170.8915 
  23   2.0000      -4.035144      -109.8019 
  24   2.0000      -2.355066       -64.0846 
  25   2.0000      -2.319331       -63.1122 
  26   2.0000      -2.318532       -63.0905 
  27   2.0000      -1.307029       -35.5661 
  28   2.0000      -1.206772       -32.8379 
  29   2.0000      -1.202843       -32.7310 
  30   2.0000      -1.177853       -32.0510 
  31   2.0000      -1.121856       -30.5273 
  32   2.0000      -1.018190       -27.7064 
  33   2.0000      -0.990079       -26.9414 
  34   2.0000      -0.985130       -26.8067 
  35   2.0000      -0.962273       -26.1848 
  36   2.0000      -0.956274       -26.0216 
  37   2.0000      -0.928122       -25.2555 
  38   2.0000      -0.895255       -24.3611 
  39   2.0000      -0.867940       -23.6179 
  40   2.0000      -0.797998       -21.7146 
  41   2.0000      -0.792681       -21.5699 
  42   2.0000      -0.791235       -21.5306 
  43   2.0000      -0.777618       -21.1601 
  44   2.0000      -0.774439       -21.0735 
  45   2.0000      -0.748258       -20.3611 
  46   2.0000      -0.738410       -20.0932 
  47   2.0000      -0.717379       -19.5209 
  48   2.0000      -0.685721       -18.6594 
  49   2.0000      -0.669001       -18.2044 
  50   2.0000      -0.659302       -17.9405 
  51   2.0000      -0.652679       -17.7603 
  52   2.0000      -0.647302       -17.6140 
  53   2.0000      -0.642355       -17.4794 
  54   2.0000      -0.640779       -17.4365 
  55   2.0000      -0.630770       -17.1641 
  56   2.0000      -0.621902       -16.9228 
  57   2.0000      -0.613386       -16.6911 
  58   2.0000      -0.611766       -16.6470 
  59   2.0000      -0.603824       -16.4309 
  60   2.0000      -0.593713       -16.1557 
  61   2.0000      -0.586465       -15.9585 
  62   2.0000      -0.573383       -15.6025 
  63   2.0000      -0.568460       -15.4686 
  64   2.0000      -0.560194       -15.2436 
  65   2.0000      -0.554497       -15.0886 
  66   2.0000      -0.550447       -14.9784 
  67   2.0000      -0.545716       -14.8497 
  68   2.0000      -0.537639       -14.6299 
  69   2.0000      -0.530524       -14.4363 
  70   2.0000      -0.528772       -14.3886 
  71   2.0000      -0.522777       -14.2255 
  72   2.0000      -0.509436       -13.8624 
  73   2.0000      -0.505876       -13.7656 
  74   2.0000      -0.492078       -13.3901 
  75   2.0000      -0.477976       -13.0064 
  76   2.0000      -0.464299       -12.6342 
  77   2.0000      -0.450433       -12.2569 
  78   2.0000      -0.432657       -11.7732 
  79   2.0000      -0.427820       -11.6416 
  80   2.0000      -0.417102       -11.3499 
  81   2.0000      -0.401688       -10.9305 
  82   0.0000      -0.208909        -5.6847 
  83   0.0000      -0.170663        -4.6440 
  84   0.0000      -0.144803        -3.9403 
  85   0.0000      -0.084837        -2.3085 
  86   0.0000      -0.073821        -2.0088 
  87   0.0000      -0.071733        -1.9520 
  88   0.0000      -0.061557        -1.6751 
  89   0.0000      -0.054217        -1.4753 
  90   0.0000      -0.040690        -1.1072 
  91   0.0000      -0.039519        -1.0754 
  92   0.0000      -0.006908        -0.1880 
  93   0.0000      -0.001433        -0.0390 
  94   0.0000       0.011460         0.3118 
  95   0.0000       0.023485         0.6391 
  96   0.0000       0.027944         0.7604 
  97   0.0000       0.036853         1.0028 
  98   0.0000       0.051357         1.3975 
  99   0.0000       0.059963         1.6317 
 100   0.0000       0.067406         1.8342 
 101   0.0000       0.072030         1.9600 
 102   0.0000       0.077375         2.1055 
 103   0.0000       0.080494         2.1904 
 104   0.0000       0.083466         2.2712 
 105   0.0000       0.089965         2.4481 
 106   0.0000       0.092028         2.5042 
 107   0.0000       0.097893         2.6638 
 108   0.0000       0.107869         2.9353 
 109   0.0000       0.110025         2.9939 
 110   0.0000       0.112683         3.0663 
 111   0.0000       0.119430         3.2499 
 112   0.0000       0.124084         3.3765 
 113   0.0000       0.130205         3.5431 
 114   0.0000       0.133680         3.6376 
 115   0.0000       0.139024         3.7830 
 116   0.0000       0.145342         3.9550 
 117   0.0000       0.151599         4.1252 
 118   0.0000       0.161485         4.3942 
 119   0.0000       0.168285         4.5793 
 120   0.0000       0.176730         4.8091 
 121   0.0000       0.186562         5.0766 
 122   0.0000       0.189777         5.1641 
 123   0.0000       0.190109         5.1731 
 124   0.0000       0.208435         5.6718 
 125   0.0000       0.229349         6.2409 
 126   0.0000       0.251510         6.8439 
 127   0.0000       0.257937         7.0188 
 128   0.0000       0.282264         7.6808 
 129   0.0000       0.297737         8.1018 
 130   0.0000       0.303554         8.2601 
 131   0.0000       0.317018         8.6265 
 132   0.0000       0.328454         8.9377 
 133   0.0000       0.336783         9.1643 
 134   0.0000       0.343491         9.3469 
 135   0.0000       0.351787         9.5726 
 136   0.0000       0.362484         9.8637 
 137   0.0000       0.376797        10.2532 
 138   0.0000       0.385446        10.4885 
 139   0.0000       0.405079        11.0228 
 140   0.0000       0.414281        11.2732 
 141   0.0000       0.418113        11.3774 
 142   0.0000       0.425749        11.5852 
 143   0.0000       0.434427        11.8214 
 144   0.0000       0.439556        11.9609 
 145   0.0000       0.443673        12.0729 
 146   0.0000       0.453800        12.3485 
 147   0.0000       0.461229        12.5507 
 148   0.0000       0.469991        12.7891 
 149   0.0000       0.478725        13.0268 
 150   0.0000       0.488049        13.2805 
 151   0.0000       0.495855        13.4929 
 152   0.0000       0.498803        13.5731 
[...]

----------------------
LOEWDIN ATOMIC CHARGES
----------------------
   0 Ir:   -0.202837
   1 C :   -0.039879
   2 C :   -0.049360
   3 C :   -0.044261
   4 C :   -0.054622
   5 C :   -0.026086
   6 N :   -0.005358
   7 C :   -0.067921
   8 C :   -0.365125
   9 H :    0.158070
  10 H :    0.134163
  11 H :    0.147717
  12 C :   -0.343222
  13 H :    0.157024
  14 H :    0.153668
  15 H :    0.137365
  16 H :    0.134795
  17 C :    0.038008
  18 C :   -0.189892
  19 H :    0.163963
  20 C :   -0.168061
  21 C :   -0.146483
  22 S :    0.453663
  23 C :   -0.262433
  24 H :    0.261347
  25 H :    0.163145
  26 H :    0.167759
  27 H :    0.186569
  28 H :    0.187430
  29 H :    0.195125
  30 O :   -0.276180
  31 O :   -0.215952
  32 C :    0.147098
  33 C :   -0.378596
  34 H :    0.158242
  35 H :    0.165336
  36 H :    0.151159
  37 H :    0.188941
  38 H :    0.185682

-------------------------------
LOEWDIN REDUCED ORBITAL CHARGES
-------------------------------
  0 Irs       :     2.455315  s :     2.455315
      pz      :     2.235612  p :     6.737032
      px      :     2.231549
      py      :     2.269871
      dz2     :     1.858960  d :     7.920656
      dxz     :     1.763177
      dyz     :     1.237446
      dx2y2   :     1.645203
      dxy     :     1.415871
      f0      :     0.011663  f :     0.089834
      f+1     :     0.002949
      f-1     :     0.012774
      f+2     :     0.017791
      f-2     :     0.016433
      f+3     :     0.011100
      f-3     :     0.017123
  1 C s       :     2.876017  s :     2.876017
      pz      :     1.046193  p :     3.059881
      px      :     1.089003
      py      :     0.924684
      dz2     :     0.026637  d :     0.103982
      dxz     :     0.027114
      dyz     :     0.017297
      dx2y2   :     0.018312
      dxy     :     0.014622
  2 C s       :     2.875139  s :     2.875139
      pz      :     1.047091  p :     3.070635
      px      :     1.074180
      py      :     0.949365
      dz2     :     0.025961  d :     0.103585
      dxz     :     0.027723
      dyz     :     0.017909
      dx2y2   :     0.018576
      dxy     :     0.013416
  3 C s       :     2.875955  s :     2.875955
      pz      :     1.037940  p :     3.065733
      px      :     1.074577
      py      :     0.953216
      dz2     :     0.024488  d :     0.102573
      dxz     :     0.032334
      dyz     :     0.016486
      dx2y2   :     0.014843
      dxy     :     0.014423
  4 C s       :     2.874836  s :     2.874836
      pz      :     1.095608  p :     3.077700
      px      :     1.035788
      py      :     0.946304
      dz2     :     0.022739  d :     0.102086
      dxz     :     0.032004
      dyz     :     0.012814
      dx2y2   :     0.017455
      dxy     :     0.017074
  5 C s       :     2.877152  s :     2.877152
      pz      :     1.067009  p :     3.044986
      px      :     1.031305
      py      :     0.946672
      dz2     :     0.025765  d :     0.103949
      dxz     :     0.029985
      dyz     :     0.015580
      dx2y2   :     0.015446
      dxy     :     0.017172
  6 N s       :     3.123149  s :     3.123149
      pz      :     1.273065  p :     3.783461
      px      :     1.288894
      py      :     1.221503
      dz2     :     0.029721  d :     0.098748
      dxz     :     0.027842
      dyz     :     0.019410
      dx2y2   :     0.011521
      dxy     :     0.010255
  7 C s       :     2.861995  s :     2.861995
      pz      :     1.061173  p :     3.071512
      px      :     0.937028
      py      :     1.073312
      dz2     :     0.021415  d :     0.134414
      dxz     :     0.029492
      dyz     :     0.022473
      dx2y2   :     0.028388
      dxy     :     0.032645
  8 C s       :     2.953009  s :     2.953009
      pz      :     1.126992  p :     3.344697
      px      :     1.122919
      py      :     1.094786
      dz2     :     0.010092  d :     0.067419
      dxz     :     0.018284
      dyz     :     0.012913
      dx2y2   :     0.008167
      dxy     :     0.017962
  9 H s       :     0.841930  s :     0.841930
 10 H s       :     0.865837  s :     0.865837
 11 H s       :     0.852283  s :     0.852283
 12 C s       :     2.952764  s :     2.952764
      pz      :     1.136733  p :     3.322589
      px      :     1.112965
      py      :     1.072891
      dz2     :     0.008052  d :     0.067868
      dxz     :     0.013904
      dyz     :     0.018109
      dx2y2   :     0.010311
      dxy     :     0.017493
 13 H s       :     0.842976  s :     0.842976
 14 H s       :     0.846332  s :     0.846332
 15 H s       :     0.862635  s :     0.862635
 16 H s       :     0.865205  s :     0.865205
 17 C s       :     2.878981  s :     2.878981
      pz      :     1.025518  p :     2.941977
      px      :     1.057736
      py      :     0.858723
      dz2     :     0.041122  d :     0.141034
      dxz     :     0.051396
      dyz     :     0.024419
      dx2y2   :     0.011623
      dxy     :     0.012474
 18 C s       :     2.896700  s :     2.896700
      pz      :     1.035416  p :     3.182595
      px      :     1.087240
      py      :     1.059939
      dz2     :     0.027567  d :     0.110596
      dxz     :     0.026495
      dyz     :     0.016396
      dx2y2   :     0.024311
      dxy     :     0.015827
 19 H s       :     0.836037  s :     0.836037
 20 C s       :     2.920619  s :     2.920619
      pz      :     1.065828  p :     3.158142
      px      :     1.042260
      py      :     1.050054
      dz2     :     0.009739  d :     0.089301
      dxz     :     0.030138
      dyz     :     0.009666
      dx2y2   :     0.017963
      dxy     :     0.021794
 21 C s       :     2.898894  s :     2.898894
      pz      :     1.054517  p :     3.154095
      px      :     1.090146
      py      :     1.009432
      dz2     :     0.021256  d :     0.093494
      dxz     :     0.024561
      dyz     :     0.014764
      dx2y2   :     0.019117
      dxy     :     0.013797
 22 S s       :     5.506957  s :     5.506957
      pz      :     3.316814  p :     9.888026
      px      :     3.086714
      py      :     3.484498
      dz2     :     0.033530  d :     0.151354
      dxz     :     0.029102
      dyz     :     0.027130
      dx2y2   :     0.036423
      dxy     :     0.025168
 23 C s       :     2.964699  s :     2.964699
      pz      :     1.110062  p :     3.211728
      px      :     1.020587
      py      :     1.081079
      dz2     :     0.018256  d :     0.086007
      dxz     :     0.024125
      dyz     :     0.012765
      dx2y2   :     0.016593
      dxy     :     0.014268
 24 H s       :     0.738653  s :     0.738653
 25 H s       :     0.836855  s :     0.836855
 26 H s       :     0.832241  s :     0.832241
 27 H s       :     0.813431  s :     0.813431
 28 H s       :     0.812570  s :     0.812570
 29 H s       :     0.804875  s :     0.804875
 30 O s       :     3.505495  s :     3.505495
      pz      :     1.475556  p :     4.716421
      px      :     1.500462
      py      :     1.740404
      dz2     :     0.018715  d :     0.054264
      dxz     :     0.012495
      dyz     :     0.016543
      dx2y2   :     0.003173
      dxy     :     0.003339
 31 O s       :     3.448030  s :     3.448030
      pz      :     1.694083  p :     4.709473
      px      :     1.643346
      py      :     1.372044
      dz2     :     0.009533  d :     0.058450
      dxz     :     0.003154
      dyz     :     0.016517
      dx2y2   :     0.016274
      dxy     :     0.012972
 32 C s       :     2.814786  s :     2.814786
      pz      :     1.020019  p :     2.714255
      px      :     0.749050
      py      :     0.945186
      dz2     :     0.079096  d :     0.323861
      dxz     :     0.042500
      dyz     :     0.111602
      dx2y2   :     0.044566
      dxy     :     0.046097
 33 C s       :     2.960644  s :     2.960644
      pz      :     1.094362  p :     3.355242
      px      :     1.148697
      py      :     1.112183
      dz2     :     0.006937  d :     0.062710
      dxz     :     0.017145
      dyz     :     0.018343
      dx2y2   :     0.017713
      dxy     :     0.002573
 34 H s       :     0.841758  s :     0.841758
 35 H s       :     0.834664  s :     0.834664
 36 H s       :     0.848841  s :     0.848841
 37 H s       :     0.811059  s :     0.811059
 38 H s       :     0.814318  s :     0.814318


                      *****************************
                      * MAYER POPULATION ANALYSIS *
                      *****************************

  NA   - Mulliken gross atomic population
  ZA   - Total nuclear charge
  QA   - Mulliken gross atomic charge
  VA   - Mayer's total valence
  BVA  - Mayer's bonded valence
  FA   - Mayer's free valence

  ATOM       NA         ZA         QA         VA         BVA        FA
  0 Ir    16.3739    17.0000     0.6261     3.7578     3.7578    -0.0000
  1 C      6.2079     6.0000    -0.2079     3.6937     3.6937    -0.0000
  2 C      6.2982     6.0000    -0.2982     3.7444     3.7444     0.0000
  3 C      6.2302     6.0000    -0.2302     3.7270     3.7270    -0.0000
  4 C      6.2447     6.0000    -0.2447     3.7174     3.7174     0.0000
  5 C      6.1638     6.0000    -0.1638     3.6858     3.6858    -0.0000
  6 N      7.4219     7.0000    -0.4219     3.2161     3.2161    -0.0000
  7 C      6.1159     6.0000    -0.1159     3.6972     3.6972     0.0000
  8 C      6.6969     6.0000    -0.6969     3.6866     3.6866    -0.0000
  9 H      0.7261     1.0000     0.2739     0.8960     0.8960    -0.0000
 10 H      0.7738     1.0000     0.2262     0.9091     0.9091    -0.0000
 11 H      0.7378     1.0000     0.2622     0.8967     0.8967    -0.0000
 12 C      6.6406     6.0000    -0.6406     3.6724     3.6724    -0.0000
 13 H      0.7184     1.0000     0.2816     0.8752     0.8752    -0.0000
 14 H      0.7339     1.0000     0.2661     0.8959     0.8959    -0.0000
 15 H      0.7690     1.0000     0.2310     0.9092     0.9092    -0.0000
 16 H      0.7666     1.0000     0.2334     0.9049     0.9049    -0.0000
 17 C      5.9333     6.0000     0.0667     3.6328     3.6328    -0.0000
 18 C      6.2421     6.0000    -0.2421     3.7149     3.7149     0.0000
 19 H      0.7059     1.0000     0.2941     0.8854     0.8854    -0.0000
 20 C      6.3693     6.0000    -0.3693     3.4650     3.4650    -0.0000
 21 C      6.1456     6.0000    -0.1456     3.7438     3.7438    -0.0000
 22 S     15.7124    16.0000     0.2876     2.5513     2.5513     0.0000
 23 C      6.4283     6.0000    -0.4283     3.7389     3.7389    -0.0000
 24 H      0.5180     1.0000     0.4820     0.7659     0.7659    -0.0000
 25 H      0.7308     1.0000     0.2692     0.9011     0.9011    -0.0000
 26 H      0.7026     1.0000     0.2974     0.8975     0.8975    -0.0000
 27 H      0.7066     1.0000     0.2934     0.9010     0.9010    -0.0000
 28 H      0.7042     1.0000     0.2958     0.9032     0.9032    -0.0000
 29 H      0.6907     1.0000     0.3093     0.8904     0.8904    -0.0000
 30 O      8.4750     8.0000    -0.4750     2.1180     2.1180     0.0000
 31 O      8.5500     8.0000    -0.5500     2.0628     2.0628     0.0000
 32 C      5.3936     6.0000     0.6064     3.9354     3.9354    -0.0000
 33 C      6.7466     6.0000    -0.7466     3.6712     3.6712    -0.0000
 34 H      0.7327     1.0000     0.2673     0.8962     0.8962     0.0000
 35 H      0.7362     1.0000     0.2638     0.8966     0.8966     0.0000
 36 H      0.7506     1.0000     0.2494     0.9024     0.9024     0.0000
 37 H      0.7022     1.0000     0.2978     0.8990     0.8990     0.0000
 38 H      0.7039     1.0000     0.2961     0.9036     0.9036    -0.0000

  Mayer bond orders larger than 0.100000
B(  0-Ir,  1-C ) :   0.4185 B(  0-Ir,  2-C ) :   0.5674 B(  0-Ir,  3-C ) :   0.4674 
B(  0-Ir,  4-C ) :   0.4488 B(  0-Ir,  5-C ) :   0.4028 B(  0-Ir,  6-N ) :   0.4620 
B(  0-Ir, 20-C ) :   0.1839 B(  0-Ir, 31-O ) :   0.6101 B(  1-C ,  2-C ) :   1.1089 
B(  1-C ,  4-C ) :   1.2523 B(  1-C , 27-H ) :   0.9029 B(  2-C ,  5-C ) :   1.1267 
B(  2-C , 28-H ) :   0.9054 B(  3-C ,  4-C ) :   1.1012 B(  3-C ,  5-C ) :   1.2366 
B(  3-C , 37-H ) :   0.9016 B(  4-C , 38-H ) :   0.8957 B(  5-C , 29-H ) :   0.8966 
B(  6-N ,  7-C ) :   0.8897 B(  6-N , 17-C ) :   1.7103 B(  7-C ,  8-C ) :   0.9930 
B(  7-C , 12-C ) :   0.9698 B(  7-C , 13-H ) :   0.8705 B(  8-C ,  9-H ) :   0.9029 
B(  8-C , 10-H ) :   0.9121 B(  8-C , 11-H ) :   0.9071 B( 12-C , 14-H ) :   0.9059 
B( 12-C , 15-H ) :   0.9151 B( 12-C , 16-H ) :   0.9102 B( 17-C , 18-C ) :   1.0359 
B( 17-C , 19-H ) :   0.8735 B( 18-C , 20-C ) :   1.3234 B( 18-C , 22-S ) :   1.2100 
B( 20-C , 21-C ) :   1.2595 B( 20-C , 24-H ) :   0.5598 B( 21-C , 23-C ) :   1.5475 
B( 21-C , 25-H ) :   0.9032 B( 22-S , 23-C ) :   1.2001 B( 23-C , 26-H ) :   0.8926 
B( 24-H , 30-O ) :   0.1914 B( 30-O , 32-C ) :   1.7509 B( 31-O , 32-C ) :   1.2357 
B( 32-C , 33-C ) :   0.9452 B( 33-C , 34-H ) :   0.9066 B( 33-C , 35-H ) :   0.9004 
B( 33-C , 36-H ) :   0.9106 


------------------
HIRSHFELD ANALYSIS
------------------

Total integrated alpha density =     82.000231635
Total integrated beta density  =     82.000231635

  ATOM     CHARGE      SPIN    
   0 Ir   0.216571    0.000000
   1 C    0.008062    0.000000
   2 C    0.007646    0.000000
   3 C    0.006139    0.000000
   4 C   -0.003579    0.000000
   5 C    0.018958    0.000000
   6 N   -0.065528    0.000000
   7 C    0.055050    0.000000
   8 C   -0.070463    0.000000
   9 H    0.054582    0.000000
  10 H    0.038078    0.000000
  11 H    0.044781    0.000000
  12 C   -0.069922    0.000000
  13 H    0.047979    0.000000
  14 H    0.052124    0.000000
  15 H    0.036657    0.000000
  16 H    0.030817    0.000000
  17 C    0.104402    0.000000
  18 C   -0.006166    0.000000
  19 H    0.079273    0.000000
  20 C   -0.052190    0.000000
  21 C   -0.034934    0.000000
  22 S    0.114095    0.000000
  23 C   -0.027166    0.000000
  24 H    0.052658    0.000000
  25 H    0.070266    0.000000
  26 H    0.077453    0.000000
  27 H    0.085158    0.000000
  28 H    0.087494    0.000000
  29 H    0.096158    0.000000
  30 O   -0.271834    0.000000
  31 O   -0.265432    0.000000
  32 C    0.235869    0.000000
  33 C   -0.070104    0.000000
  34 H    0.052775    0.000000
  35 H    0.057352    0.000000
  36 H    0.046177    0.000000
  37 H    0.086841    0.000000
  38 H    0.073439    0.000000

  TOTAL   0.999537    0.000000

-------
TIMINGS
-------

Total SCF time: 0 days 0 hours 0 min 38 sec 

Total time                  ....      38.561 sec
Sum of individual times     ....      37.925 sec  ( 98.4%)

Fock matrix formation       ....      35.431 sec  ( 91.9%)
  Split-RI-J                ....       3.660 sec  ( 10.3% of F)
  Chain of spheres X        ....      29.645 sec  ( 83.7% of F)
  XC integration            ....       2.035 sec  (  5.7% of F)
    Basis function eval.    ....       0.891 sec  ( 43.8% of XC)
    Density eval.           ....       0.527 sec  ( 25.9% of XC)
    XC-Functional eval.     ....       0.147 sec  (  7.2% of XC)
    XC-Potential eval.      ....       0.290 sec  ( 14.3% of XC)
Diagonalization             ....       0.327 sec  (  0.8%)
Density matrix formation    ....       0.018 sec  (  0.0%)
Population analysis         ....       0.441 sec  (  1.1%)
Initial guess               ....       0.034 sec  (  0.1%)
Orbital Transformation      ....       0.000 sec  (  0.0%)
Orbital Orthonormalization  ....       0.024 sec  (  0.1%)
DIIS solution               ....       0.234 sec  (  0.6%)
Grid generation             ....       1.441 sec  (  3.7%)

Maximum memory used throughout the entire SCF-calculation: 94.8 MB


-------------------------------------------------------------------------------
                          DFT DISPERSION CORRECTION                            
                                                                               
                              DFTD3 V3.1  Rev 1                                
                          USING Becke-Johnson damping                          
-------------------------------------------------------------------------------
The PBEh-3c composite method is recognized
Using three-body term ABC
Active option DFTDOPT                   ...         4   

molecular C6(AA) [au] = 19598.000278 


            DFT-D V3
 parameters
 s6 scaling factor         :     1.0000 
 a1 scaling factor         :     0.4860 
 s8 scaling factor         :     0.0000 
 a2 scaling factor         :     4.5000 
 Damping factor alpha9(ATM):    16.0000 
 ad hoc parameters k1-k3   :    16.0000     1.3333    -4.0000 

 Edisp/kcal,au: -19.432153435627  -0.030967104348 
 E6   /kcal   : -19.785966257 
 E8   /kcal   :  -0.000000000 
 E6(ABC)      :   0.353812821 
 % E8         :   0.000000000 
 % E6(ABC)    :  -1.820759714 

-------------------------   ----------------
Dispersion correction           -0.030967104
-------------------------   ----------------

 ** NOTE ** -> element ir will be treated as co
NOTIFICATION: Different basis set in ORCA and otool_gcp:
ORCA: 358  gCP: 357 
If you are NOT using ECPs, check your basis set inputs!
------------------   -----------------
gCP correction             0.077126376
------------------   -----------------

-------------------------   --------------------
FINAL SINGLE POINT ENERGY     -1288.397927258516
-------------------------   --------------------

                                *** OPTIMIZATION RUN DONE ***

                            ***************************************
                            *     ORCA property calculations      *
                            ***************************************

                                    ---------------------
                                    Active property flags
                                    ---------------------
   (+) Dipole Moment


------------------------------------------------------------------------------
                       ORCA ELECTRIC PROPERTIES CALCULATION
------------------------------------------------------------------------------

Dipole Moment Calculation                       ... on
Quadrupole Moment Calculation                   ... off
Polarizability Calculation                      ... off
GBWName                                         ... reaction4-IEIP_ts_guess_scan_0-0_orca.gbw
Electron density                                ... reaction4-IEIP_ts_guess_scan_0-0_orca.scfp
The origin for moment calculation is the CENTER OF MASS  = ( 0.841840, -0.654735 -0.112102)

-------------
DIPOLE MOMENT
-------------
                                X             Y             Z
Electronic contribution:     34.48430     -67.27166      73.71783
Nuclear contribution   :    -35.11069      65.87637     -73.98736
                        -----------------------------------------
Total Dipole Moment    :     -0.62639      -1.39530      -0.26953
                        -----------------------------------------
Magnitude (a.u.)       :      1.55302
Magnitude (Debye)      :      3.94746



--------------------
Rotational spectrum 
--------------------
 
Rotational constants in cm-1:     0.010847     0.009096     0.008236 
Rotational constants in MHz :   325.178645   272.686830   246.898371 

 Dipole components along the rotational axes: 
x,y,z [a.u.] :    -0.374486    -0.565183     1.397208 
x,y,z [Debye]:    -0.951868    -1.436582     3.551420 

 

Timings for individual modules:

Sum of individual times         ...     2915.865 sec (=  48.598 min)
GTO integral calculation        ...       67.612 sec (=   1.127 min)   2.3 %
SCF iterations                  ...     2140.994 sec (=  35.683 min)  73.4 %
SCF Gradient evaluation         ...      697.904 sec (=  11.632 min)  23.9 %
Geometry relaxation             ...        9.356 sec (=   0.156 min)   0.3 %
                             ****ORCA TERMINATED NORMALLY****
TOTAL RUN TIME: 0 days 0 hours 48 minutes 58 seconds 735 msec
