
                                 *****************
                                 * O   R   C   A *
                                 *****************

                                            #,                                       
                                            ###                                      
                                            ####                                     
                                            #####                                    
                                            ######                                   
                                           ########,                                 
                                     ,,################,,,,,                         
                               ,,#################################,,                 
                          ,,##########################################,,             
                       ,#########################################, ''#####,          
                    ,#############################################,,   '####,        
                  ,##################################################,,,,####,       
                ,###########''''           ''''###############################       
              ,#####''   ,,,,##########,,,,          '''####'''          '####       
            ,##' ,,,,###########################,,,                        '##       
           ' ,,###''''                  '''############,,,                           
         ,,##''                                '''############,,,,        ,,,,,,###''
      ,#''                                            '''#######################'''  
     '                                                          ''''####''''         
             ,#######,   #######,   ,#######,      ##                                
            ,#'     '#,  ##    ##  ,#'     '#,    #''#        ######   ,####,        
            ##       ##  ##   ,#'  ##            #'  '#       #        #'  '#        
            ##       ##  #######   ##           ,######,      #####,   #    #        
            '#,     ,#'  ##    ##  '#,     ,#' ,#      #,         ##   #,  ,#        
             '#######'   ##     ##  '#######'  #'      '#     #####' # '####'        



                  #######################################################
                  #                        -***-                        #
                  #          Department of theory and spectroscopy      #
                  #    Directorship and core code : Frank Neese         #
                  #        Max Planck Institute fuer Kohlenforschung    #
                  #                Kaiser Wilhelm Platz 1               #
                  #                 D-45470 Muelheim/Ruhr               #
                  #                      Germany                        #
                  #                                                     #
                  #                  All rights reserved                #
                  #                        -***-                        #
                  #######################################################


                         Program Version 5.0.3 -  RELEASE  -


 With contributions from (in alphabetic order):
   Daniel Aravena         : Magnetic Suceptibility
   Michael Atanasov       : Ab Initio Ligand Field Theory (pilot matlab implementation)
   Alexander A. Auer      : GIAO ZORA, VPT2 properties, NMR spectrum
   Ute Becker             : Parallelization
   Giovanni Bistoni       : ED, misc. LED, open-shell LED, HFLD
   Martin Brehm           : Molecular dynamics
   Dmytro Bykov           : SCF Hessian
   Vijay G. Chilkuri      : MRCI spin determinant printing, contributions to CSF-ICE
   Dipayan Datta          : RHF DLPNO-CCSD density
   Achintya Kumar Dutta   : EOM-CC, STEOM-CC
   Dmitry Ganyushin       : Spin-Orbit,Spin-Spin,Magnetic field MRCI
   Miquel Garcia          : C-PCM and meta-GGA Hessian, CC/C-PCM, Gaussian charge scheme
   Yang Guo               : DLPNO-NEVPT2, F12-NEVPT2, CIM, IAO-localization
   Andreas Hansen         : Spin unrestricted coupled pair/coupled cluster methods
   Benjamin Helmich-Paris : MC-RPA, TRAH-SCF, COSX integrals
   Lee Huntington         : MR-EOM, pCC
   Robert Izsak           : Overlap fitted RIJCOSX, COSX-SCS-MP3, EOM
   Marcus Kettner         : VPT2
   Christian Kollmar      : KDIIS, OOCD, Brueckner-CCSD(T), CCSD density, CASPT2, CASPT2-K
   Simone Kossmann        : Meta GGA functionals, TD-DFT gradient, OOMP2, MP2 Hessian
   Martin Krupicka        : Initial AUTO-CI
   Lucas Lang             : DCDCAS
   Marvin Lechner         : AUTO-CI (C++ implementation), FIC-MRCC
   Dagmar Lenk            : GEPOL surface, SMD
   Dimitrios Liakos       : Extrapolation schemes; Compound Job, initial MDCI parallelization
   Dimitrios Manganas     : Further ROCIS development; embedding schemes
   Dimitrios Pantazis     : SARC Basis sets
   Anastasios Papadopoulos: AUTO-CI, single reference methods and gradients
   Taras Petrenko         : DFT Hessian,TD-DFT gradient, ASA, ECA, R-Raman, ABS, FL, XAS/XES, NRVS
   Peter Pinski           : DLPNO-MP2, DLPNO-MP2 Gradient
   Christoph Reimann      : Effective Core Potentials
   Marius Retegan         : Local ZFS, SOC
   Christoph Riplinger    : Optimizer, TS searches, QM/MM, DLPNO-CCSD(T), (RO)-DLPNO pert. Triples
   Tobias Risthaus        : Range-separated hybrids, TD-DFT gradient, RPA, STAB
   Michael Roemelt        : Original ROCIS implementation
   Masaaki Saitow         : Open-shell DLPNO-CCSD energy and density
   Barbara Sandhoefer     : DKH picture change effects
   Avijit Sen             : IP-ROCIS
   Kantharuban Sivalingam : CASSCF convergence, NEVPT2, FIC-MRCI
   Bernardo de Souza      : ESD, SOC TD-DFT
   Georgi Stoychev        : AutoAux, RI-MP2 NMR, DLPNO-MP2 response
   Willem Van den Heuvel  : Paramagnetic NMR
   Boris Wezisla          : Elementary symmetry handling
   Frank Wennmohs         : Technical directorship


 We gratefully acknowledge several colleagues who have allowed us to
 interface, adapt or use parts of their codes:
   Stefan Grimme, W. Hujo, H. Kruse, P. Pracht,  : VdW corrections, initial TS optimization,
                  C. Bannwarth, S. Ehlert          DFT functionals, gCP, sTDA/sTD-DF
   Ed Valeev, F. Pavosevic, A. Kumar             : LibInt (2-el integral package), F12 methods
   Garnet Chan, S. Sharma, J. Yang, R. Olivares  : DMRG
   Ulf Ekstrom                                   : XCFun DFT Library
   Mihaly Kallay                                 : mrcc  (arbitrary order and MRCC methods)
   Jiri Pittner, Ondrej Demel                    : Mk-CCSD
   Frank Weinhold                                : gennbo (NPA and NBO analysis)
   Christopher J. Cramer and Donald G. Truhlar   : smd solvation model
   Lars Goerigk                                  : TD-DFT with DH, B97 family of functionals
   V. Asgeirsson, H. Jonsson                     : NEB implementation
   FAccTs GmbH                                   : IRC, NEB, NEB-TS, DLPNO-Multilevel, CI-OPT
                                                   MM, QMMM, 2- and 3-layer-ONIOM, Crystal-QMMM,
                                                   LR-CPCM, SF, NACMEs, symmetry and pop. for TD-DFT,
                                                   nearIR, NL-DFT gradient (VV10), updates on ESD,
                                                   ML-optimized integration grids
   S Lehtola, MJT Oliveira, MAL Marques          : LibXC Library
   Liviu Ungur et al                             : ANISO software


 Your calculation uses the libint2 library for the computation of 2-el integrals
 For citations please refer to: http://libint.valeyev.net

 Your ORCA version has been built with support for libXC version: 5.1.0
 For citations please refer to: https://tddft.org/programs/libxc/

 This ORCA versions uses:
   CBLAS   interface :  Fast vector & matrix operations
   LAPACKE interface :  Fast linear algebra routines
   SCALAPACK package :  Parallel linear algebra routines
   Shared memory     :  Shared parallel matrices
   BLAS/LAPACK       :  OpenBLAS 0.3.15  USE64BITINT DYNAMIC_ARCH NO_AFFINITY SkylakeX SINGLE_THREADED
        Core in use  :  SkylakeX
   Copyright (c) 2011-2014, The OpenBLAS Project


Your calculation utilizes the geometrical counterpoise correction gCP
Please cite in your paper:
H.Kruse, S. Grimme J.Chem.Phys., 136, (2012), 154101 
   

Your calculation utilizes the atom-pairwise dispersion correction
with the Becke-Johnson damping scheme (D3BJ)
Cite in your paper:
S.Grimme, S.Ehrlich, L.Goerigk, J Comput Chem, (2011), 32, 1456–1465 
S.Grimme, J.Antony, S.Ehrlich and H.Krieg, J.Chem.Phys., 132, (2010), 154104 
   

Your calculation employs the composite approach PBEh-3c.
Please cite in your paper:
S. Grimme, J. G. Brandenburg, C. Bannwarth, A. Hansen J.Chem.Phys., 143, (2015), 054107 
   

================================================================================

cite the ECPs for Ir [Def2-ECP] as follows:
Ce-Yb(ecp-28): M. Dolg, H. Stoll, H.Preuss, J. Chem. Phys., 1989, 90, 1730-1734.
Y-Cd(ecp-28), Hf-Hg(ecp-46): D. Andrae,U. Haeussermann, M. Dolg, H. Stoll, H. Preuss, Theor. Chim. Acta, 1990, 77, 123-141.
In-Sb(ecp-28), Tl-Bi(ecp-46): B. Metz, H. Stoll, M. Dolg, J. Chem. Phys., 2000, 113, 2563-2569.
Te-Xe(ecp-28), Po-Rn(ecp-46): K. A. Peterson, D. Figgen, E. Goll, H. Stoll, M. Dolg, J. Chem. Phys., 2003, 119, 11113-11123.
Rb(ecp-28), Cs(ecp-46): T. Leininger, A. Nicklass, W. Kuechle, H. Stoll, M. Dolg, A. Bergner, Chem. Phys. Lett., 1996, 255, 274-280.
Sr(ecp-28), Ba(ecp-46): M. Kaupp, P. V. Schleyer, H. Stoll and H. Preuss, J. Chem. Phys., 1991, 94, 1360-1366.
La(ecp-46): M. Dolg, H. Stoll, A. Savin, H. Preuss, Theor. Chim. Acta, 1989, 75, 173-194.
Lu(ecp-28): X. Cao, M. Dolg, J. Chem. Phys., 2001, 115, 7348-7355.

ECP parameters for Ir [Def2-ECP] have been obtained from:
TURBOMOLE (7.0.2)

----- Orbital basis set information -----
Your calculation utilizes the basis: def2-mSVP

----- AuxJ basis set information -----
Your calculation utilizes the auxiliary basis: def2/J
   F. Weigend, Phys. Chem. Chem. Phys. 8, 1057 (2006).

================================================================================
                                        WARNINGS
                       Please study these warnings very carefully!
================================================================================


WARNING: Geometry Optimization
  ===> : Switching off AutoStart
         For restart on a previous wavefunction, please use MOREAD

WARNING: No Hueckel Guess possible with ECP basis!
  ===> : Switching to HCORE guess!

INFO   : the flag for use of the SHARK integral package has been found!

================================================================================
                                       INPUT FILE
================================================================================
NAME = reaction4-IEIP_ts_guess_scan_11-12_orca.inp
|  1> ! Opt PBEh-3c
|  2> %geom Constraints
|  3> { B 0 20 2.1285714285714286 C }
|  4> { B 24 30 1.3285714285714287 C }
|  5>     end
|  6> end
|  7> %output 
|  8> xyzfile=True 
|  9> end 
| 10> %scf 
| 11> maxiter 250 
| 12> end
| 13> %output
| 14> Print[P_Hirshfeld] = 1
| 15> end
| 16> % maxcore
| 17> 4000
| 18> *xyz 1 1
| 19> Ir   0.60640051  -0.73351626   0.44045555 
| 20> C    0.13862217  -2.84486855   0.35227736 
| 21> C   -0.09905720  -2.38558545   1.69664258 
| 22> C    2.13982790  -2.06606684   1.20754230 
| 23> C    1.50834384  -2.65889497   0.06096454 
| 24> C    1.14022286  -1.92970833   2.20877264 
| 25> N   -1.07022278   0.10819497  -0.50764465 
| 26> C   -2.34878447   0.29922293   0.19507263 
| 27> C   -3.13935523   1.50734808  -0.28719306 
| 28> H   -3.97413057   1.67522245   0.39145117 
| 29> H   -3.56891503   1.36559996  -1.27980190 
| 30> H   -2.53421599   2.41416992  -0.29274355 
| 31> C   -3.17322032  -0.97981968   0.10121223 
| 32> H   -2.07740015   0.46805775   1.23824308 
| 33> H   -4.08358866  -0.88003486   0.69097310 
| 34> H   -3.46439933  -1.18440294  -0.92988139 
| 35> H   -2.63118661  -1.84550262   0.47849870 
| 36> C   -0.91775077   0.45918278  -1.73175222 
| 37> C    0.39862179   0.30080854  -2.27141828 
| 38> H   -1.73214339   0.87936734  -2.31353010 
| 39> C    1.45041024   0.08174213  -1.38659214 
| 40> C    2.65637239  -0.14958497  -2.11146119 
| 41> S    0.86790418   0.25741587  -3.90416623 
| 42> C    2.48696008  -0.07733990  -3.46212161 
| 43> H    1.63882858   1.15020947  -0.60164161 
| 44> H    3.62110886  -0.30475797  -1.65053477 
| 45> H    3.23975085  -0.18499754  -4.22825038 
| 46> H   -0.59253548  -3.28116928  -0.31248408 
| 47> H   -1.02967664  -2.43474135   2.24110860 
| 48> H    1.28720864  -1.48200075   3.18159331 
| 49> O    1.77298891   2.27350994   0.12186538 
| 50> O    0.56435900   1.03508539   1.51909696 
| 51> C    1.15741570   2.10879627   1.19712135 
| 52> C    1.13210243   3.23406692   2.18745070 
| 53> H    1.01030089   4.18796249   1.67899674 
| 54> H    2.09049193   3.26822503   2.70830595 
| 55> H    0.34628395   3.10028799   2.92520833 
| 56> H    3.18866972  -1.83903918   1.31958138 
| 57> H    1.99275722  -2.91325479  -0.87047741 
| 58> *
| 59> 
| 60>                          ****END OF INPUT****
================================================================================

                       *****************************
                       * Geometry Optimization Run *
                       *****************************

Geometry optimization settings:
Update method            Update   .... BFGS
Choice of coordinates    CoordSys .... Z-matrix Internals
Initial Hessian          InHess   .... Almoef's Model

Convergence Tolerances:
Energy Change            TolE     ....  5.0000e-06 Eh
Max. Gradient            TolMAXG  ....  3.0000e-04 Eh/bohr
RMS Gradient             TolRMSG  ....  1.0000e-04 Eh/bohr
Max. Displacement        TolMAXD  ....  4.0000e-03 bohr
RMS Displacement         TolRMSD  ....  2.0000e-03 bohr
Strict Convergence                ....  False
------------------------------------------------------------------------------
                        ORCA OPTIMIZATION COORDINATE SETUP
------------------------------------------------------------------------------

The optimization will be done in new redundant internal coordinates
Making redundant internal coordinates   ...  (new redundants) done
Evaluating the initial hessian          ...  (Almloef) done
Evaluating the coordinates              ...  done
Calculating the B-matrix                .... done
Calculating the G-matrix                .... done
Diagonalizing the G-matrix              .... done
Imposing constraints:
 Iter   0:  RMS(Cart)=    0.0165087232 RMS(Int)=    0.0110177930
 Iter   1:  RMS(Cart)=    0.0030611606 RMS(Int)=    0.0021844888
 Iter   2:  RMS(Cart)=    0.0006064236 RMS(Int)=    0.0004369937
 Iter   3:  RMS(Cart)=    0.0001212149 RMS(Int)=    0.0000875268
 Iter   4:  RMS(Cart)=    0.0000242713 RMS(Int)=    0.0000175354
 Iter   5:  RMS(Cart)=    0.0000048621 RMS(Int)=    0.0000035133
 Iter   6:  RMS(Cart)=    0.0000009741 RMS(Int)=    0.0000007039
 Iter   7:  RMS(Cart)=    0.0000001952 RMS(Int)=    0.0000001410
 Iter   8:  RMS(Cart)=    0.0000000391 RMS(Int)=    0.0000000283
CONVERGED
Small eigenvalue found = 1.445e-02
Small eigenvalue found = 2.353e-02
The first mode is                       ....  288
The number of degrees of freedom        ....  111
Storing new coordinates                 .... done

    -----------------------------------------------------------------
                    Redundant Internal Coordinates


    -----------------------------------------------------------------
         Definition                    Initial Value    Approx d2E/dq
    -----------------------------------------------------------------
      1. B(C   1,Ir  0)                  2.1640         0.084580   
      2. B(C   2,Ir  0)                  2.1916         0.076401   
      3. B(C   2,C   1)                  1.4406         0.519194   
      4. B(C   3,Ir  0)                  2.1711         0.082379   
      5. B(C   4,C   3)                  1.4367         0.525793   
      6. B(C   4,Ir  0)                  2.1595         0.086015   
      7. B(C   4,C   1)                  1.4134         0.574908   
      8. B(C   5,Ir  0)                  2.1999         0.074024   
      9. B(C   5,C   2)                  1.4176         0.567248   
     10. B(C   5,C   3)                  1.4228         0.556807   
     11. B(N   6,Ir  0)                  2.1023         0.095249   
     12. B(C   7,N   6)                  1.4714         0.414958   
     13. B(C   8,C   7)                  1.5222         0.384408   
     14. B(H   9,C   8)                  1.0889         0.361627   
     15. B(H  10,C   8)                  1.0908         0.359018   
     16. B(H  11,C   8)                  1.0902         0.359827   
     17. B(C  12,C   7)                  1.5246         0.381037   
     18. B(H  13,C   7)                  1.0910         0.358732   
     19. B(H  14,C  12)                  1.0893         0.361045   
     20. B(H  15,C  12)                  1.0908         0.359074   
     21. B(H  16,C  12)                  1.0888         0.361650   
     22. B(C  17,N   6)                  1.2765         0.830499   
     23. B(C  18,C  17)                  1.4259         0.536472   
     24. B(H  19,C  17)                  1.0855         0.366136   
     25. B(C  20,Ir  0)                  2.1286         0.082408 C 
     26. B(C  20,C  18)                  1.3928         0.620630   
     27. B(C  21,C  20)                  1.4265         0.547527   
     28. B(S  22,C  18)                  1.6994         0.540594   
     29. B(C  23,C  21)                  1.3630         0.689543   
     30. B(C  23,S  22)                  1.7108         0.517335   
     31. B(H  24,C  20)                  1.3391         0.144195   
     32. B(H  25,C  21)                  1.0804         0.373036   
     33. B(H  26,C  23)                  1.0795         0.374314   
     34. B(H  27,C   1)                  1.0802         0.373284   
     35. B(H  28,C   2)                  1.0793         0.374522   
     36. B(H  29,C   5)                  1.0809         0.372290   
     37. B(O  30,H  24)                  1.3286         0.127392 C 
     38. B(O  31,Ir  0)                  2.0722         0.106350   
     39. B(C  32,O  30)                  1.2465         0.936278   
     40. B(C  32,O  31)                  1.2654         0.875502   
     41. B(C  33,C  32)                  1.4992         0.418314   
     42. B(H  34,C  33)                  1.0878         0.363041   
     43. B(H  35,C  33)                  1.0913         0.358365   
     44. B(H  36,C  33)                  1.0861         0.365247   
     45. B(H  37,C   3)                  1.0790         0.374999   
     46. B(H  38,C   4)                  1.0803         0.373232   
     47. A(C   3,Ir  0,C  20)          104.4843         0.244566   
     48. A(C   2,Ir  0,N   6)          107.5548         0.245901   
     49. A(C   5,Ir  0,C  20)          141.6809         0.240846   
     50. A(C   2,Ir  0,C   5)           37.6660         0.238266   
     51. A(N   6,Ir  0,O  31)           82.9338         0.256887   
     52. A(N   6,Ir  0,C  20)           77.5027         0.248612   
     53. A(C   4,Ir  0,C   5)           63.6407         0.242325   
     54. A(C   1,Ir  0,C   4)           38.1641         0.247021   
     55. A(C   5,Ir  0,O  31)           92.8324         0.248718   
     56. A(C   3,Ir  0,C   4)           38.7509         0.246081   
     57. A(C   1,Ir  0,O  31)          148.1042         0.253611   
     58. A(C   1,Ir  0,N   6)          101.4591         0.249554   
     59. A(C   4,Ir  0,N   6)          127.6361         0.250167   
     60. A(C   2,Ir  0,C   3)           64.1222         0.241923   
     61. A(C   3,Ir  0,O  31)          110.7434         0.252631   
     62. A(C   1,Ir  0,C   2)           38.6224         0.242838   
     63. A(C   4,Ir  0,C  20)           91.2435         0.246094   
     64. A(C   2,Ir  0,C  20)          152.8051         0.241935   
     65. A(C   1,Ir  0,C  20)          114.4774         0.245497   
     66. A(C   1,Ir  0,C   3)           64.4694         0.245484   
     67. A(C   1,Ir  0,C   5)           63.6159         0.241742   
     68. A(C   2,Ir  0,O  31)          109.7173         0.249865   
     69. A(C   5,Ir  0,N   6)          140.5944         0.244783   
     70. A(C   2,Ir  0,C   4)           64.1504         0.243425   
     71. A(C   4,Ir  0,O  31)          149.4171         0.254239   
     72. A(C   3,Ir  0,C   5)           37.9865         0.240834   
     73. A(C   3,Ir  0,N   6)          165.5123         0.248599   
     74. A(C  20,Ir  0,O  31)           97.3640         0.252644   
     75. A(C   2,C   1,H  27)          126.2465         0.344592   
     76. A(C   4,C   1,H  27)          125.6201         0.350557   
     77. A(Ir  0,C   1,C   2)           71.7247         0.312893   
     78. A(Ir  0,C   1,H  27)          124.4438         0.268708   
     79. A(C   2,C   1,C   4)          108.1146         0.414865   
     80. A(Ir  0,C   1,C   4)           70.7458         0.318118   
     81. A(Ir  0,C   2,C   1)           69.6529         0.307798   
     82. A(C   1,C   2,C   5)          107.1779         0.413877   
     83. A(Ir  0,C   2,H  28)          126.9499         0.264750   
     84. A(C   5,C   2,H  28)          125.9503         0.349959   
     85. A(Ir  0,C   2,C   5)           71.4875         0.312225   
     86. A(C   1,C   2,H  28)          126.7664         0.344783   
     87. A(C   4,C   3,H  37)          126.6336         0.345589   
     88. A(C   5,C   3,H  37)          126.1985         0.348939   
     89. A(C   4,C   3,C   5)          107.0054         0.413440   
     90. A(Ir  0,C   3,C   4)           70.1872         0.312198   
     91. A(Ir  0,C   3,C   5)           72.1050         0.315112   
     92. A(Ir  0,C   3,H  37)          126.4577         0.267825   
     93. A(Ir  0,C   4,C   1)           71.0900         0.318992   
     94. A(C   3,C   4,H  38)          125.9917         0.345315   
     95. A(Ir  0,C   4,C   3)           71.0619         0.314390   
     96. A(Ir  0,C   4,H  38)          123.2947         0.269388   
     97. A(C   1,C   4,H  38)          125.5672         0.350549   
     98. A(C   1,C   4,C   3)          108.4391         0.415798   
     99. A(Ir  0,C   5,H  29)          122.0834         0.263262   
    100. A(C   2,C   5,H  29)          125.3012         0.349607   
    101. A(C   3,C   5,H  29)          125.3240         0.348513   
    102. A(Ir  0,C   5,C   3)           69.9085         0.309705   
    103. A(C   2,C   5,C   3)          109.2346         0.419061   
    104. A(Ir  0,C   5,C   2)           70.8465         0.310635   
    105. A(Ir  0,N   6,C  17)          116.3178         0.340876   
    106. A(C   7,N   6,C  17)          121.6370         0.420122   
    107. A(Ir  0,N   6,C   7)          122.0425         0.304270   
    108. A(C   8,C   7,H  13)          108.0164         0.325642   
    109. A(C  12,C   7,H  13)          108.8557         0.325171   
    110. A(N   6,C   7,C   8)          113.7671         0.369450   
    111. A(N   6,C   7,C  12)          109.3638         0.368892   
    112. A(C   8,C   7,C  12)          111.4370         0.366371   
    113. A(N   6,C   7,H  13)          105.1046         0.327793   
    114. A(C   7,C   8,H   9)          108.8486         0.326073   
    115. A(C   7,C   8,H  10)          112.9348         0.325685   
    116. A(H   9,C   8,H  10)          106.5756         0.290895   
    117. A(C   7,C   8,H  11)          111.9312         0.325806   
    118. A(H   9,C   8,H  11)          107.4866         0.290998   
    119. A(H  10,C   8,H  11)          108.7860         0.290667   
    120. A(C   7,C  12,H  14)          109.9835         0.325515   
    121. A(C   7,C  12,H  15)          111.0934         0.325222   
    122. A(H  14,C  12,H  15)          107.8109         0.290829   
    123. A(C   7,C  12,H  16)          112.1152         0.325604   
    124. A(H  14,C  12,H  16)          107.5340         0.291156   
    125. A(H  15,C  12,H  16)          108.1388         0.290905   
    126. A(N   6,C  17,C  18)          115.3343         0.442853   
    127. A(N   6,C  17,H  19)          122.2362         0.369694   
    128. A(C  18,C  17,H  19)          122.4071         0.345368   
    129. A(C  17,C  18,S  22)          128.1260         0.435476   
    130. A(C  20,C  18,S  22)          113.5544         0.447094   
    131. A(C  17,C  18,C  20)          118.2254         0.423024   
    132. A(C  18,C  20,C  21)          109.7878         0.424570   
    133. A(Ir  0,C  20,H  24)           82.3596         0.233050   
    134. A(C  18,C  20,H  24)          110.6888         0.303581   
    135. A(C  21,C  20,H  24)          107.7591         0.297580   
    136. A(Ir  0,C  20,C  18)          108.0471         0.320753   
    137. A(Ir  0,C  20,C  21)          133.6258         0.314271   
    138. A(C  20,C  21,C  23)          113.0636         0.432663   
    139. A(C  20,C  21,H  25)          124.1167         0.347645   
    140. A(C  23,C  21,H  25)          122.7132         0.361504   
    141. A(C  18,S  22,C  23)           91.0163         0.456763   
    142. A(C  21,C  23,S  22)          112.5683         0.452098   
    143. A(C  21,C  23,H  26)          127.6838         0.361715   
    144. A(S  22,C  23,H  26)          119.7339         0.362484   
    145. L(C  20,H  24,O  30,Ir  0, 1) 182.6569         0.217177   
    146. L(C  20,H  24,O  30,Ir  0, 2) 184.0384         0.217177   
    147. A(H  24,O  30,C  32)          107.3040         0.313466   
    148. A(Ir  0,O  31,C  32)          125.3735         0.350342   
    149. A(O  30,C  32,O  31)          123.6100         0.491868   
    150. A(O  30,C  32,C  33)          118.7662         0.432679   
    151. A(O  31,C  32,C  33)          117.6122         0.427497   
    152. A(C  32,C  33,H  34)          110.5681         0.330866   
    153. A(C  32,C  33,H  35)          108.9010         0.330158   
    154. A(H  34,C  33,H  35)          107.0959         0.290990   
    155. A(C  32,C  33,H  36)          111.6207         0.331198   
    156. A(H  34,C  33,H  36)          110.1509         0.291862   
    157. A(H  35,C  33,H  36)          108.3633         0.291268   
    158. D(C   4,C   1,Ir  0,C   5)    -80.1598         0.001697   
    159. D(H  27,C   1,Ir  0,C   5)    159.2760         0.001697   
    160. D(C   4,C   1,Ir  0,C  20)     57.2703         0.001697   
    161. D(C   2,C   1,Ir  0,N   6)   -103.8465         0.001697   
    162. D(C   2,C   1,Ir  0,C   3)     79.8012         0.001697   
    163. D(H  27,C   1,Ir  0,C   3)   -158.2914         0.001697   
    164. D(C   4,C   1,Ir  0,N   6)    138.6252         0.001697   
    165. D(H  27,C   1,Ir  0,O  31)    113.1190         0.001697   
    166. D(C   2,C   1,Ir  0,C   4)    117.5283         0.001697   
    167. D(H  27,C   1,Ir  0,C  20)    -63.2940         0.001697   
    168. D(C   2,C   1,Ir  0,C  20)    174.7986         0.001697   
    169. D(C   4,C   1,Ir  0,C   3)    -37.7271         0.001697   
    170. D(C   4,C   1,Ir  0,C   2)   -117.5283         0.001697   
    171. D(C   2,C   1,Ir  0,C   5)     37.3685         0.001697   
    172. D(H  27,C   1,Ir  0,C   4)   -120.5642         0.001697   
    173. D(C   4,C   1,Ir  0,O  31)   -126.3168         0.001697   
    174. D(H  27,C   1,Ir  0,C   2)    121.9074         0.001697   
    175. D(C   2,C   1,Ir  0,O  31)     -8.7885         0.001697   
    176. D(H  27,C   1,Ir  0,N   6)     18.0609         0.001697   
    177. D(C   1,C   2,Ir  0,C   5)   -117.1522         0.001661   
    178. D(H  28,C   2,C   1,C   4)   -176.7074         0.021391   
    179. D(C   5,C   2,C   1,H  27)    178.2095         0.021391   
    180. D(C   1,C   2,Ir  0,N   6)     86.4375         0.001661   
    181. D(C   1,C   2,Ir  0,C   3)    -80.7779         0.001661   
    182. D(C   1,C   2,Ir  0,C   4)    -37.5086         0.001661   
    183. D(H  28,C   2,C   1,Ir  0)    121.5490         0.021391   
    184. D(C   5,C   2,Ir  0,C  20)    106.7512         0.001661   
    185. D(H  28,C   2,Ir  0,C   1)   -121.3240         0.001661   
    186. D(H  28,C   2,C   1,H  27)      1.7832         0.021391   
    187. D(H  28,C   2,Ir  0,N   6)    -34.8865         0.001661   
    188. D(C   5,C   2,Ir  0,C   3)     36.3743         0.001661   
    189. D(H  28,C   2,Ir  0,C  20)   -131.7250         0.001661   
    190. D(C   5,C   2,C   1,Ir  0)    -62.0246         0.021391   
    191. D(Ir  0,C   2,C   1,H  27)   -119.7659         0.021391   
    192. D(H  28,C   2,Ir  0,C   3)    157.8981         0.001661   
    193. D(C   5,C   2,Ir  0,N   6)   -156.4103         0.001661   
    194. D(C   5,C   2,Ir  0,C   1)    117.1522         0.001661   
    195. D(C   5,C   2,Ir  0,C   4)     79.6436         0.001661   
    196. D(H  28,C   2,Ir  0,O  31)     53.7565         0.001661   
    197. D(C   5,C   2,Ir  0,O  31)    -67.7673         0.001661   
    198. D(H  28,C   2,Ir  0,C   5)    121.5238         0.001661   
    199. D(C   1,C   2,Ir  0,C  20)    -10.4010         0.001661   
    200. D(C   1,C   2,Ir  0,O  31)    175.0805         0.001661   
    201. D(Ir  0,C   2,C   1,C   4)     61.7436         0.021391   
    202. D(C   5,C   2,C   1,C   4)     -0.2810         0.021391   
    203. D(H  28,C   2,Ir  0,C   4)   -158.8326         0.001661   
    204. D(C   4,C   3,Ir  0,C   2)     80.2233         0.001687   
    205. D(H  37,C   3,Ir  0,C   1)    158.6539         0.001687   
    206. D(H  37,C   3,Ir  0,C   5)   -122.2122         0.001687   
    207. D(C   4,C   3,Ir  0,O  31)   -177.2291         0.001687   
    208. D(H  37,C   3,Ir  0,C   2)   -158.2842         0.001687   
    209. D(C   5,C   3,Ir  0,C   1)    -79.1339         0.001687   
    210. D(C   4,C   3,Ir  0,N   6)     22.7287         0.001687   
    211. D(C   5,C   3,Ir  0,O  31)     66.4756         0.001687   
    212. D(H  37,C   3,Ir  0,C   4)    121.4925         0.001687   
    213. D(C   5,C   3,Ir  0,C   4)   -116.2953         0.001687   
    214. D(H  37,C   3,Ir  0,N   6)    144.2211         0.001687   
    215. D(C   4,C   3,Ir  0,C   1)     37.1614         0.001687   
    216. D(C   4,C   3,Ir  0,C  20)    -73.3784         0.001687   
    217. D(C   5,C   3,Ir  0,C   2)    -36.0720         0.001687   
    218. D(C   5,C   3,Ir  0,N   6)    -93.5666         0.001687   
    219. D(C   4,C   3,Ir  0,C   5)    116.2953         0.001687   
    220. D(C   5,C   3,Ir  0,C  20)    170.3263         0.001687   
    221. D(H  37,C   3,Ir  0,C  20)     48.1141         0.001687   
    222. D(H  37,C   3,Ir  0,O  31)    -55.7367         0.001687   
    223. D(C   1,C   4,Ir  0,C  20)   -130.0213         0.001704   
    224. D(C   1,C   4,Ir  0,C   2)     37.9562         0.001704   
    225. D(C   3,C   4,Ir  0,C   2)    -80.1442         0.001704   
    226. D(C   1,C   4,Ir  0,C   5)     80.0891         0.001704   
    227. D(C   1,C   4,Ir  0,N   6)    -54.8887         0.001704   
    228. D(C   3,C   4,Ir  0,C   5)    -38.0113         0.001704   
    229. D(C   3,C   4,Ir  0,C   1)   -118.1004         0.001704   
    230. D(C   1,C   4,Ir  0,O  31)    123.1982         0.001704   
    231. D(C   1,C   4,Ir  0,C   3)    118.1004         0.001704   
    232. D(H  38,C   4,C   1,Ir  0)   -117.9299         0.026465   
    233. D(C   3,C   4,Ir  0,C  20)    111.8783         0.001704   
    234. D(C   3,C   4,Ir  0,O  31)      5.0978         0.001704   
    235. D(Ir  0,C   4,C   1,C   2)    -62.3705         0.026465   
    236. D(H  38,C   4,Ir  0,C   1)    120.7038         0.001704   
    237. D(H  38,C   4,Ir  0,C   3)   -121.1959         0.001704   
    238. D(H  38,C   4,Ir  0,C   5)   -159.2071         0.001704   
    239. D(H  38,C   4,Ir  0,N   6)     65.8150         0.001704   
    240. D(H  38,C   4,Ir  0,C  20)     -9.3176         0.001704   
    241. D(H  38,C   4,Ir  0,C   2)    158.6599         0.001704   
    242. D(Ir  0,C   4,C   1,H  27)    119.1270         0.026465   
    243. D(H  38,C   4,Ir  0,O  31)   -116.0981         0.001704   
    244. D(C   3,C   4,C   1,Ir  0)     61.5856         0.026465   
    245. D(C   3,C   4,C   1,C   2)     -0.7850         0.026465   
    246. D(H  38,C   4,C   1,C   2)    179.6996         0.026465   
    247. D(C   3,C   4,Ir  0,N   6)   -172.9891         0.001704   
    248. D(C   3,C   4,C   1,H  27)   -179.2874         0.026465   
    249. D(Ir  0,C   4,C   3,H  37)   -121.2788         0.021957   
    250. D(Ir  0,C   4,C   3,C   5)     63.1457         0.021957   
    251. D(H  38,C   4,C   3,C   5)   -178.9449         0.021957   
    252. D(C   1,C   4,C   3,C   5)      1.5423         0.021957   
    253. D(C   1,C   4,C   3,H  37)    177.1178         0.021957   
    254. D(H  38,C   4,C   3,Ir  0)    117.9094         0.021957   
    255. D(H  38,C   4,C   1,H  27)      1.1972         0.026465   
    256. D(H  38,C   4,C   3,H  37)     -3.3694         0.021957   
    257. D(C   1,C   4,C   3,Ir  0)    -61.6034         0.021957   
    258. D(H  29,C   5,C   2,H  28)     -6.4028         0.025728   
    259. D(C   2,C   5,Ir  0,C   4)    -81.1170         0.001652   
    260. D(C   2,C   5,Ir  0,C   3)   -119.8933         0.001652   
    261. D(C   3,C   5,C   2,C   1)      1.2564         0.025728   
    262. D(C   2,C   5,Ir  0,C  20)   -135.1056         0.001652   
    263. D(C   2,C   5,Ir  0,O  31)    119.2555         0.001652   
    264. D(H  29,C   5,Ir  0,O  31)     -1.0273         0.001652   
    265. D(C   3,C   5,Ir  0,C   2)    119.8933         0.001652   
    266. D(C   3,C   5,Ir  0,C   4)     38.7763         0.001652   
    267. D(C   3,C   5,Ir  0,N   6)    156.8382         0.001652   
    268. D(C   3,C   5,Ir  0,C  20)    -15.2123         0.001652   
    269. D(C   3,C   5,Ir  0,O  31)   -120.8512         0.001652   
    270. D(H  29,C   5,Ir  0,C   1)   -158.5974         0.001652   
    271. D(H  29,C   5,Ir  0,C   2)   -120.2828         0.001652   
    272. D(H  29,C   5,Ir  0,C   3)    119.8239         0.001652   
    273. D(H  29,C   5,Ir  0,C   4)    158.6002         0.001652   
    274. D(H  29,C   5,Ir  0,N   6)    -83.3379         0.001652   
    275. D(C   3,C   5,Ir  0,C   1)     81.5787         0.001652   
    276. D(H  29,C   5,Ir  0,C  20)    104.6116         0.001652   
    277. D(Ir  0,C   5,C   2,C   1)     60.8361         0.025728   
    278. D(Ir  0,C   5,C   2,H  28)   -122.7002         0.025728   
    279. D(C   2,C   5,Ir  0,N   6)     36.9449         0.001652   
    280. D(C   3,C   5,C   2,Ir  0)    -59.5797         0.025728   
    281. D(H  29,C   5,C   2,Ir  0)    116.2974         0.025728   
    282. D(C   3,C   5,C   2,H  28)    177.7201         0.025728   
    283. D(C   2,C   5,Ir  0,C   1)    -38.3146         0.001652   
    284. D(H  29,C   5,C   2,C   1)    177.1335         0.025728   
    285. D(H  29,C   5,C   3,H  37)      6.7930         0.024743   
    286. D(Ir  0,C   5,C   3,H  37)    122.5130         0.024743   
    287. D(C   2,C   5,C   3,Ir  0)     60.1559         0.024743   
    288. D(C   2,C   5,C   3,C   4)     -1.7308         0.024743   
    289. D(C   2,C   5,C   3,H  37)   -177.3311         0.024743   
    290. D(H  29,C   5,C   3,Ir  0)   -115.7200         0.024743   
    291. D(Ir  0,C   5,C   3,C   4)    -61.8867         0.024743   
    292. D(H  29,C   5,C   3,C   4)   -177.6067         0.024743   
    293. D(C   7,N   6,Ir  0,C   1)     79.8447         0.001769   
    294. D(C   7,N   6,Ir  0,C   2)     40.3764         0.001769   
    295. D(C   7,N   6,Ir  0,C   3)     93.1111         0.001769   
    296. D(C   7,N   6,Ir  0,C   4)    110.8929         0.001769   
    297. D(C   7,N   6,Ir  0,C   5)     17.7194         0.001769   
    298. D(C   7,N   6,Ir  0,C  20)   -167.3196         0.001769   
    299. D(C   7,N   6,Ir  0,O  31)    -68.1265         0.001769   
    300. D(C  17,N   6,Ir  0,C   1)   -100.7411         0.001769   
    301. D(C  17,N   6,Ir  0,C   2)   -140.2093         0.001769   
    302. D(C  17,N   6,Ir  0,C   3)    -87.4746         0.001769   
    303. D(C  17,N   6,Ir  0,C   4)    -69.6929         0.001769   
    304. D(C  17,N   6,Ir  0,C   5)   -162.8664         0.001769   
    305. D(C  17,N   6,Ir  0,C  20)     12.0947         0.001769   
    306. D(C  17,N   6,Ir  0,O  31)    111.2878         0.001769   
    307. D(C   8,C   7,N   6,Ir  0)    148.4520         0.014685   
    308. D(C   8,C   7,N   6,C  17)    -30.9313         0.014685   
    309. D(C  12,C   7,N   6,Ir  0)    -86.2341         0.014685   
    310. D(C  12,C   7,N   6,C  17)     94.3826         0.014685   
    311. D(H  13,C   7,N   6,Ir  0)     30.4890         0.014685   
    312. D(H  13,C   7,N   6,C  17)   -148.8943         0.014685   
    313. D(H   9,C   8,C   7,N   6)   -170.2708         0.011764   
    314. D(H   9,C   8,C   7,C  12)     65.5265         0.011764   
    315. D(H   9,C   8,C   7,H  13)    -53.9989         0.011764   
    316. D(H  10,C   8,C   7,N   6)     71.5801         0.011764   
    317. D(H  10,C   8,C   7,C  12)    -52.6225         0.011764   
    318. D(H  10,C   8,C   7,H  13)   -172.1479         0.011764   
    319. D(H  11,C   8,C   7,N   6)    -51.6033         0.011764   
    320. D(H  11,C   8,C   7,C  12)   -175.8060         0.011764   
    321. D(H  11,C   8,C   7,H  13)     64.6687         0.011764   
    322. D(H  14,C  12,C   7,N   6)    175.0849         0.011568   
    323. D(H  14,C  12,C   7,C   8)    -58.2651         0.011568   
    324. D(H  14,C  12,C   7,H  13)     60.7612         0.011568   
    325. D(H  15,C  12,C   7,N   6)    -65.6324         0.011568   
    326. D(H  15,C  12,C   7,C   8)     61.0176         0.011568   
    327. D(H  15,C  12,C   7,H  13)   -179.9562         0.011568   
    328. D(H  16,C  12,C   7,N   6)     55.4939         0.011568   
    329. D(H  16,C  12,C   7,C   8)   -177.8561         0.011568   
    330. D(H  16,C  12,C   7,H  13)    -58.8298         0.011568   
    331. D(C  18,C  17,N   6,Ir  0)     -3.2012         0.059358   
    332. D(C  18,C  17,N   6,C   7)    176.2157         0.059358   
    333. D(H  19,C  17,N   6,Ir  0)    178.4840         0.059358   
    334. D(H  19,C  17,N   6,C   7)     -2.0992         0.059358   
    335. D(C  20,C  18,C  17,N   6)    -14.2593         0.019658   
    336. D(C  20,C  18,C  17,H  19)    164.0524         0.019658   
    337. D(S  22,C  18,C  17,N   6)    161.9616         0.019658   
    338. D(S  22,C  18,C  17,H  19)    -19.7267         0.019658   
    339. D(C  18,C  20,Ir  0,C   1)     79.3072         0.001687   
    340. D(H  24,C  20,C  18,C  17)    -65.4493         0.028967   
    341. D(C  18,C  20,Ir  0,C   3)    147.4992         0.001687   
    342. D(C  18,C  20,Ir  0,C   4)    110.6349         0.001687   
    343. D(Ir  0,C  20,C  18,C  17)     23.0364         0.028967   
    344. D(C  18,C  20,Ir  0,N   6)    -17.7397         0.001687   
    345. D(C  18,C  20,Ir  0,O  31)    -98.7826         0.001687   
    346. D(H  24,C  20,Ir  0,C   4)   -140.0239         0.001687   
    347. D(C  21,C  20,Ir  0,C   2)    -56.9446         0.001687   
    348. D(C  21,C  20,Ir  0,C   3)      4.1350         0.001687   
    349. D(C  21,C  20,Ir  0,C   4)    -32.7293         0.001687   
    350. D(C  21,C  20,Ir  0,C   5)     13.7368         0.001687   
    351. D(C  21,C  20,Ir  0,N   6)   -161.1039         0.001687   
    352. D(C  21,C  20,Ir  0,O  31)    117.8532         0.001687   
    353. D(H  24,C  20,Ir  0,C   1)   -171.3516         0.001687   
    354. D(H  24,C  20,Ir  0,C   2)   -164.2392         0.001687   
    355. D(C  21,C  20,Ir  0,C   1)    -64.0570         0.001687   
    356. D(H  24,C  20,Ir  0,C   3)   -103.1596         0.001687   
    357. D(H  24,C  20,Ir  0,C   5)    -93.5578         0.001687   
    358. D(H  24,C  20,Ir  0,N   6)     91.6015         0.001687   
    359. D(C  18,C  20,Ir  0,C   5)    157.1010         0.001687   
    360. D(H  24,C  20,Ir  0,O  31)     10.5586         0.001687   
    361. D(Ir  0,C  20,C  18,S  22)   -153.7212         0.028967   
    362. D(C  21,C  20,C  18,C  17)    175.7104         0.028967   
    363. D(C  18,C  20,Ir  0,C   2)     86.4196         0.001687   
    364. D(C  21,C  20,C  18,S  22)     -1.0472         0.028967   
    365. D(H  24,C  20,C  18,S  22)    117.7932         0.028967   
    366. D(C  23,C  21,C  20,Ir  0)    143.8672         0.022247   
    367. D(C  23,C  21,C  20,C  18)      0.9503         0.022247   
    368. D(C  23,C  21,C  20,H  24)   -119.6789         0.022247   
    369. D(H  25,C  21,C  20,Ir  0)    -39.8036         0.022247   
    370. D(H  25,C  21,C  20,C  18)    177.2795         0.022247   
    371. D(H  25,C  21,C  20,H  24)     56.6503         0.022247   
    372. D(C  23,S  22,C  18,C  17)   -175.6753         0.005866   
    373. D(C  23,S  22,C  18,C  20)      0.6925         0.005866   
    374. D(S  22,C  23,C  21,C  20)     -0.4575         0.033404   
    375. D(S  22,C  23,C  21,H  25)   -176.8456         0.033404   
    376. D(H  26,C  23,C  21,C  20)    178.1622         0.033404   
    377. D(H  26,C  23,C  21,H  25)      1.7740         0.033404   
    378. D(C  21,C  23,S  22,C  18)     -0.1246         0.005480   
    379. D(H  26,C  23,S  22,C  18)   -178.8665         0.005480   
    380. D(C  32,O  30,C  20,Ir  0)    -10.3494         0.001502   
    381. D(C  32,O  30,C  20,C  18)     96.6150         0.001502   
    382. D(C  32,O  30,C  20,C  21)   -144.3155         0.001502   
    383. D(C  32,O  31,Ir  0,C   1)    170.1206         0.001817   
    384. D(C  32,O  31,Ir  0,C   2)    164.3061         0.001817   
    385. D(C  32,O  31,Ir  0,C   3)     95.4088         0.001817   
    386. D(C  32,O  31,Ir  0,C   4)     91.9992         0.001817   
    387. D(C  32,O  31,Ir  0,C   5)    129.8121         0.001817   
    388. D(C  32,O  31,Ir  0,N   6)    -89.5273         0.001817   
    389. D(C  32,O  31,Ir  0,C  20)    -13.1709         0.001817   
    390. D(O  31,C  32,O  30,H  24)      2.1990         0.070418   
    391. D(C  33,C  32,O  30,H  24)   -179.0701         0.070418   
    392. D(O  30,C  32,O  31,Ir  0)      5.3704         0.060438   
    393. D(C  33,C  32,O  31,Ir  0)   -173.3741         0.060438   
    394. D(H  34,C  33,C  32,O  30)     40.0231         0.012943   
    395. D(H  34,C  33,C  32,O  31)   -141.1698         0.012943   
    396. D(H  35,C  33,C  32,O  30)    -77.3875         0.012943   
    397. D(H  35,C  33,C  32,O  31)    101.4197         0.012943   
    398. D(H  36,C  33,C  32,O  30)    163.0150         0.012943   
    399. D(H  36,C  33,C  32,O  31)    -18.1779         0.012943   
    -----------------------------------------------------------------

Number of atoms                         .... 39
Number of degrees of freedom            .... 399

         *************************************************************
         *                GEOMETRY OPTIMIZATION CYCLE   1            *
         *************************************************************
---------------------------------
CARTESIAN COORDINATES (ANGSTROEM)
---------------------------------
  Ir     0.609413   -0.727305    0.429103
  C      0.144305   -2.838635    0.335781
  C     -0.092268   -2.383002    1.681804
  C      2.147087   -2.058665    1.188515
  C      1.513937   -2.649664    0.042190
  C      1.148413   -1.926016    2.193277
  N     -1.072397    0.112850   -0.511835
  C     -2.349411    0.301002    0.194480
  C     -3.143218    1.508394   -0.284320
  H     -3.976471    1.674140    0.396722
  H     -3.575171    1.367079   -1.275955
  H     -2.539565    2.416204   -0.290438
  C     -3.172019   -0.979271    0.101343
  H     -2.075543    0.469090    1.237125
  H     -4.080991   -0.881636    0.693624
  H     -3.465592   -1.183153   -0.929214
  H     -2.627583   -1.844504    0.476211
  C     -0.923137    0.463270   -1.730219
  C      0.391781    0.297285   -2.256124
  H     -1.734690    0.884698   -2.315074
  C      1.435648    0.073756   -1.361555
  C      2.644736   -0.164265   -2.080043
  S      0.871552    0.247900   -3.885647
  C      2.485139   -0.094398   -3.431841
  H      1.628074    1.145218   -0.581811
  H      3.606048   -0.322537   -1.612993
  H      3.242769   -0.207274   -4.192481
  H     -0.587313   -3.274284   -0.328903
  H     -1.022087   -2.434936    2.227386
  H      1.296636   -1.480284    3.166820
  O      1.770760    2.264289    0.119917
  O      0.565417    1.037637    1.514084
  C      1.156881    2.109419    1.193686
  C      1.133317    3.237809    2.180515
  H      1.013214    4.190331    1.669078
  H      2.091681    3.271961    2.701417
  H      0.347154    3.107655    2.918562
  H      3.195858   -1.830246    1.298404
  H      1.997006   -2.900720   -0.890853

----------------------------
CARTESIAN COORDINATES (A.U.)
----------------------------
  NO LB      ZA    FRAG     MASS         X           Y           Z
   0 Ir   17.0000*   0   192.220    1.151624   -1.374407    0.810886
   1 C     6.0000    0    12.011    0.272696   -5.364243    0.634534
   2 C     6.0000    0    12.011   -0.174360   -4.503221    3.178148
   3 C     6.0000    0    12.011    4.057407   -3.890314    2.245968
   4 C     6.0000    0    12.011    2.860926   -5.007139    0.079728
   5 C     6.0000    0    12.011    2.170186   -3.639643    4.144694
   6 N     7.0000    0    14.007   -2.026537    0.213255   -0.967227
   7 C     6.0000    0    12.011   -4.439744    0.568812    0.367514
   8 C     6.0000    0    12.011   -5.939820    2.850451   -0.537287
   9 H     1.0000    0     1.008   -7.514442    3.163667    0.749696
  10 H     1.0000    0     1.008   -6.756095    2.583404   -2.411205
  11 H     1.0000    0     1.008   -4.799082    4.565964   -0.548848
  12 C     6.0000    0    12.011   -5.994248   -1.850555    0.191510
  13 H     1.0000    0     1.008   -3.922208    0.886451    2.337828
  14 H     1.0000    0     1.008   -7.711955   -1.666050    1.310759
  15 H     1.0000    0     1.008   -6.549020   -2.235835   -1.755960
  16 H     1.0000    0     1.008   -4.965413   -3.485608    0.899908
  17 C     6.0000    0    12.011   -1.744477    0.875454   -3.269640
  18 C     6.0000    0    12.011    0.740359    0.561788   -4.263456
  19 H     1.0000    0     1.008   -3.278090    1.671836   -4.374856
  20 C     6.0000    0    12.011    2.712982    0.139378   -2.572965
  21 C     6.0000    0    12.011    4.997826   -0.310416   -3.930712
  22 S    16.0000    0    32.060    1.646994    0.468463   -7.342808
  23 C     6.0000    0    12.011    4.696232   -0.178386   -6.485239
  24 H     1.0000    0     1.008    3.076615    2.164148   -1.099463
  25 H     1.0000    0     1.008    6.814443   -0.609507   -3.048115
  26 H     1.0000    0     1.008    6.127945   -0.391691   -7.922641
  27 H     1.0000    0     1.008   -1.109860   -6.187500   -0.621537
  28 H     1.0000    0     1.008   -1.931465   -4.601362    4.209149
  29 H     1.0000    0     1.008    2.450288   -2.797331    5.984423
  30 O     8.0000    0    15.999    3.346252    4.278887    0.226610
  31 O     8.0000    0    15.999    1.068484    1.960849    2.861204
  32 C     6.0000    0    12.011    2.186189    3.986224    2.255739
  33 C     6.0000    0    12.011    2.141659    6.118572    4.120576
  34 H     1.0000    0     1.008    1.914698    7.918579    3.154100
  35 H     1.0000    0     1.008    3.952705    6.183109    5.104939
  36 H     1.0000    0     1.008    0.656026    5.872616    5.515283
  37 H     1.0000    0     1.008    6.039296   -3.458663    2.453627
  38 H     1.0000    0     1.008    3.773795   -5.481567   -1.683467
* core charge reduced due to ECP

--------------------------------
INTERNAL COORDINATES (ANGSTROEM)
--------------------------------
 Ir     0   0   0     0.000000000000     0.00000000     0.00000000
 C      1   0   0     2.164347583235     0.00000000     0.00000000
 C      2   1   0     1.440399352129    71.73500337     0.00000000
 C      1   2   3     2.171523126906    64.43019293    79.72610194
 C      2   1   3     1.412652393486    70.75645258   242.51464131
 C      3   2   1     1.416303715313   107.20170728   297.94847919
 N      1   2   3     2.102007954438   101.52878356   256.04974015
 C      7   1   2     1.471401798371   121.98304847    79.77312015
 C      8   7   1     1.522218348457   113.76712712   148.44536422
 H      9   8   7     1.088847860487   108.84863044   189.72919898
 H      9   8   7     1.090819169499   112.93455778    71.58025098
 H      9   8   7     1.090206474585   111.93127593   308.39655917
 C      8   7   1     1.524616097137   109.36364386   273.75923616
 H      8   7   1     1.091035853370   105.10454746    30.48260141
 H     13   8   7     1.089286651236   109.98341267   175.08489824
 H     13   8   7     1.090776594607   111.09363690   294.36761182
 H     13   8   7     1.088830829757   112.11528769    55.49395134
 C      7   1   2     1.282528557005   116.43995174   259.17404144
 C     18   7   1     1.431488237092   116.03179266   356.61201679
 H     18   7   1     1.085474967758   121.89027882   178.40280058
 C     19  18   7     1.391821229027   118.20752570   345.74174118
 C     21  19  18     1.425935508386   109.96684236   175.67483687
 S     19  18   7     1.699404234902   128.24117346   162.00342509
 C     22  21  19     1.363159363785   112.95327326     1.03742335
 H     21  19  18     1.339130786011   110.69469042   294.88544394
 H     22  21  19     1.080392651369   124.16813186   177.37390211
 H     24  22  21     1.079461626492   127.68136711   178.15147482
 H      2   1   3     1.080211834902   124.42836711   121.93095317
 H      3   2   1     1.079310933673   126.76817658   121.53230074
 H      6   3   2     1.080937996691   125.29099275   177.14071025
 O     25  21  19     1.342857142300   175.78838232   344.10633614
 O      1   2   3     2.072000621697   148.15684003   351.22201885
 C     31  25  21     1.249894543942   107.70174177   112.32897344
 C     33  31  25     1.499208797620   118.53364762   180.92993488
 H     34  33  31     1.087785733981   110.56800009    39.97346546
 H     34  33  31     1.091314529199   108.90116218   282.56277791
 H     34  33  31     1.086137102876   111.62054746   162.96510216
 H      4   1   2     1.078964075970   126.44141772   158.66909358
 H      5   2   1     1.080249668814   125.56392447   242.08127931

---------------------------
INTERNAL COORDINATES (A.U.)
---------------------------
 Ir     0   0   0     0.000000000000     0.00000000     0.00000000
 C      1   0   0     4.090024190928     0.00000000     0.00000000
 C      2   1   0     2.721960299002    71.73500337     0.00000000
 C      1   2   3     4.103584003328    64.43019293    79.72610194
 C      2   1   3     2.669526146117    70.75645258   242.51464131
 C      3   2   1     2.676426144396   107.20170728   297.94847919
 N      1   2   3     3.972219365211   101.52878356   256.04974015
 C      7   1   2     2.780546431880   121.98304847    79.77312015
 C      8   7   1     2.876575794615   113.76712712   148.44536422
 H      9   8   7     2.057624257827   108.84863044   189.72919898
 H      9   8   7     2.061349491984   112.93455778    71.58025098
 H      9   8   7     2.060191666394   111.93127593   308.39655917
 C      8   7   1     2.881106882957   109.36364386   273.75923616
 H      8   7   1     2.061758965159   105.10454746    30.48260141
 H     13   8   7     2.058453452171   109.98341267   175.08489824
 H     13   8   7     2.061269037098   111.09363690   294.36761182
 H     13   8   7     2.057592074410   112.11528769    55.49395134
 C      7   1   2     2.423627731673   116.43995174   259.17404144
 C     18   7   1     2.705120732033   116.03179266   356.61201679
 H     18   7   1     2.051250414290   121.89027882   178.40280058
 C     19  18   7     2.630160950239   118.20752570   345.74174118
 C     21  19  18     2.694627595483   109.96684236   175.67483687
 S     19  18   7     3.211408594791   128.24117346   162.00342509
 C     22  21  19     2.575997874443   112.95327326     1.03742335
 H     21  19  18     2.530590443063   110.69469042   294.88544394
 H     22  21  19     2.041646228188   124.16813186   177.37390211
 H     24  22  21     2.039886846148   127.68136711   178.15147482
 H      2   1   3     2.041304534586   124.42836711   121.93095317
 H      3   2   1     2.039602077988   126.76817658   121.53230074
 H      6   3   2     2.042676781496   125.29099275   177.14071025
 O     25  21  19     2.537632235928   175.78838232   344.10633614
 O      1   2   3     3.915513724322   148.15684003   351.22201885
 C     31  25  21     2.361958384332   107.70174177   112.32897344
 C     33  31  25     2.833094045067   118.53364762   180.92993488
 H     34  33  31     2.055617129610   110.56800009    39.97346546
 H     34  33  31     2.062285586156   108.90116218   282.56277791
 H     34  33  31     2.052501668327   111.62054746   162.96510216
 H      4   1   2     2.038946611922   126.44141772   158.66909358
 H      5   2   1     2.041376030318   125.56392447   242.08127931

---------------------
BASIS SET INFORMATION
---------------------
There are 6 groups of distinct atoms

 Group   1 Type Ir  : 7s6p5d1f contracted to 6s3p2d1f pattern {211111/411/41/1}
 Group   2 Type C   : 8s4p1d contracted to 4s2p1d pattern {5111/31/1}
 Group   3 Type N   : 8s4p1d contracted to 4s2p1d pattern {5111/31/1}
 Group   4 Type H   : 4s contracted to 2s pattern {31}
 Group   5 Type S   : 10s7p1d contracted to 4s3p1d pattern {5311/511/1}
 Group   6 Type O   : 8s4p1d contracted to 4s2p1d pattern {5111/31/1}

Atom   0Ir   basis set group =>   1
Atom   1C    basis set group =>   2
Atom   2C    basis set group =>   2
Atom   3C    basis set group =>   2
Atom   4C    basis set group =>   2
Atom   5C    basis set group =>   2
Atom   6N    basis set group =>   3
Atom   7C    basis set group =>   2
Atom   8C    basis set group =>   2
Atom   9H    basis set group =>   4
Atom  10H    basis set group =>   4
Atom  11H    basis set group =>   4
Atom  12C    basis set group =>   2
Atom  13H    basis set group =>   4
Atom  14H    basis set group =>   4
Atom  15H    basis set group =>   4
Atom  16H    basis set group =>   4
Atom  17C    basis set group =>   2
Atom  18C    basis set group =>   2
Atom  19H    basis set group =>   4
Atom  20C    basis set group =>   2
Atom  21C    basis set group =>   2
Atom  22S    basis set group =>   5
Atom  23C    basis set group =>   2
Atom  24H    basis set group =>   4
Atom  25H    basis set group =>   4
Atom  26H    basis set group =>   4
Atom  27H    basis set group =>   4
Atom  28H    basis set group =>   4
Atom  29H    basis set group =>   4
Atom  30O    basis set group =>   6
Atom  31O    basis set group =>   6
Atom  32C    basis set group =>   2
Atom  33C    basis set group =>   2
Atom  34H    basis set group =>   4
Atom  35H    basis set group =>   4
Atom  36H    basis set group =>   4
Atom  37H    basis set group =>   4
Atom  38H    basis set group =>   4
---------------------------------
AUXILIARY/J BASIS SET INFORMATION
---------------------------------
There are 6 groups of distinct atoms

 Group   1 Type Ir  : 11s5p5d3f3g contracted to 8s5p5d2f3g pattern {41111111/11111/11111/21/111}
 Group   2 Type C   : 12s5p4d2f1g contracted to 6s4p3d1f1g pattern {711111/2111/211/2/1}
 Group   3 Type N   : 12s5p4d2f1g contracted to 6s4p3d1f1g pattern {711111/2111/211/2/1}
 Group   4 Type H   : 5s2p1d contracted to 3s1p1d pattern {311/2/1}
 Group   5 Type S   : 14s5p5d2f1g contracted to 8s4p3d1f1g pattern {71111111/2111/311/2/1}
 Group   6 Type O   : 12s5p4d2f1g contracted to 6s4p3d1f1g pattern {711111/2111/211/2/1}

Atom   0Ir   basis set group =>   1
Atom   1C    basis set group =>   2
Atom   2C    basis set group =>   2
Atom   3C    basis set group =>   2
Atom   4C    basis set group =>   2
Atom   5C    basis set group =>   2
Atom   6N    basis set group =>   3
Atom   7C    basis set group =>   2
Atom   8C    basis set group =>   2
Atom   9H    basis set group =>   4
Atom  10H    basis set group =>   4
Atom  11H    basis set group =>   4
Atom  12C    basis set group =>   2
Atom  13H    basis set group =>   4
Atom  14H    basis set group =>   4
Atom  15H    basis set group =>   4
Atom  16H    basis set group =>   4
Atom  17C    basis set group =>   2
Atom  18C    basis set group =>   2
Atom  19H    basis set group =>   4
Atom  20C    basis set group =>   2
Atom  21C    basis set group =>   2
Atom  22S    basis set group =>   5
Atom  23C    basis set group =>   2
Atom  24H    basis set group =>   4
Atom  25H    basis set group =>   4
Atom  26H    basis set group =>   4
Atom  27H    basis set group =>   4
Atom  28H    basis set group =>   4
Atom  29H    basis set group =>   4
Atom  30O    basis set group =>   6
Atom  31O    basis set group =>   6
Atom  32C    basis set group =>   2
Atom  33C    basis set group =>   2
Atom  34H    basis set group =>   4
Atom  35H    basis set group =>   4
Atom  36H    basis set group =>   4
Atom  37H    basis set group =>   4
Atom  38H    basis set group =>   4
-------------------------
ECP PARAMETER INFORMATION
-------------------------

 Group 1, Type Ir ECP Def2-ECP (replacing 60 core electrons, lmax=3)

Atom   0Ir   ECP group =>   1

------------------------------------------------------------------------------
                           ORCA GTO INTEGRAL CALCULATION
                           -- RI-GTO INTEGRALS CHOSEN --
------------------------------------------------------------------------------
------------------------------------------------------------------------------
                   ___                                                        
                  /   \      - P O W E R E D   B Y -                         
                 /     \                                                     
                 |  |  |   _    _      __       _____    __    __             
                 |  |  |  | |  | |    /  \     |  _  \  |  |  /  |          
                  \  \/   | |  | |   /    \    | | | |  |  | /  /          
                 / \  \   | |__| |  /  /\  \   | |_| |  |  |/  /          
                |  |  |   |  __  | /  /__\  \  |    /   |      \           
                |  |  |   | |  | | |   __   |  |    \   |  |\   \          
                \     /   | |  | | |  |  |  |  | |\  \  |  | \   \       
                 \___/    |_|  |_| |__|  |__|  |_| \__\ |__|  \__/        
                                                                              
                      - O R C A' S   B I G   F R I E N D -                    
                                      &                                       
                       - I N T E G R A L  F E E D E R -                       
                                                                              
 v1 FN, 2020, v2 2021                                                         
------------------------------------------------------------------------------


Reading SHARK input file reaction4-IEIP_ts_guess_scan_11-12_orca.SHARKINP.tmp ... ok
----------------------
SHARK INTEGRAL PACKAGE
----------------------

Number of atoms                             ...     39
Number of basis functions                   ...    358
Number of shells                            ...    184
Maximum angular momentum                    ...      3
Integral batch strategy                     ... SHARK/LIBINT Hybrid
RI-J (if used) integral strategy            ... SPLIT-RIJ (Revised 2003 algorithm where possible)
Printlevel                                  ...      1
Contraction scheme used                     ... SEGMENTED contraction
Coulomb Range Separation                    ... NOT USED
Exchange Range Separation                   ... NOT USED
Finite Nucleus Model                        ... NOT USED
Auxiliary Coulomb fitting basis             ... AVAILABLE
   # of basis functions in Aux-J            ...   1231
   # of shells in Aux-J                     ...    405
   Maximum angular momentum in Aux-J        ...      4
Auxiliary J/K fitting basis                 ... NOT available
Auxiliary Correlation fitting basis         ... NOT available
Auxiliary 'external' fitting basis          ... NOT available
Integral threshold                          ...     2.500000e-11
Primitive cut-off                           ...     2.500000e-12
Primitive pair pre-selection threshold      ...     2.500000e-12

Calculating pre-screening integrals         ... done (  0.1 sec) Dimension = 184
Organizing shell pair data                  ... done (  0.1 sec)
Shell pair information
Total number of shell pairs                 ...     17020
Shell pairs after pre-screening             ...     12976
Total number of primitive shell pairs       ...     60705
Primitive shell pairs kept                  ...     29189
          la=0 lb=0:   4972 shell pairs
          la=1 lb=0:   4264 shell pairs
          la=1 lb=1:    859 shell pairs
          la=2 lb=0:   1748 shell pairs
          la=2 lb=1:    785 shell pairs
          la=2 lb=2:    174 shell pairs
          la=3 lb=0:    111 shell pairs
          la=3 lb=1:     41 shell pairs
          la=3 lb=2:     21 shell pairs
          la=3 lb=3:      1 shell pairs

Calculating one electron integrals          ... done (  0.1 sec)
Calculating ECP integrals                   ... done (  0.8 sec)
Calculating RI/J V-Matrix + Cholesky decomp.... done (  0.1 sec)
Calculating Nuclear repulsion               ... done (  0.0 sec) ENN=   2035.018077280566 Eh

SHARK setup successfully completed in   1.5 seconds

Maximum memory used throughout the entire GTOINT-calculation: 90.6 MB
-------------------------------------------------------------------------------
                                 ORCA SCF
-------------------------------------------------------------------------------

------------
SCF SETTINGS
------------
Hamiltonian:
 Density Functional     Method          .... DFT(GTOs)
 Exchange Functional    Exchange        .... PBE
   PBE kappa parameter   XKappa         ....  1.024500
   PBE mue parameter    XMuePBE         ....  0.123457
 Correlation Functional Correlation     .... PBE
   PBE beta parameter  CBetaPBE         ....  0.030000
 LDA part of GGA corr.  LDAOpt          .... PW91-LDA
 Gradients option       PostSCFGGA      .... off
 Hybrid DFT is turned on
   Fraction HF Exchange ScalHFX         ....  0.420000
   Scaling of DF-GGA-X  ScalDFX         ....  0.580000
   Scaling of DF-GGA-C  ScalDFC         ....  1.000000
   Scaling of DF-LDA-C  ScalLDAC        ....  1.000000
   Perturbative correction              ....  0.000000
   Density functional embedding theory  .... OFF
 RI-approximation to the Coulomb term is turned on
   Number of AuxJ basis functions       .... 1231
   RIJ-ON(X) (HFX calculated with O(N)) .... on
   Number of AuxJ basis functions       .... 1231
   RIJ-COSX (HFX calculated with COS-X)).... on


General Settings:
 Integral files         IntName         .... reaction4-IEIP_ts_guess_scan_11-12_orca
 Hartree-Fock type      HFTyp           .... RHF
 Total Charge           Charge          ....    1
 Multiplicity           Mult            ....    1
 Number of Electrons    NEL             ....  164
 Basis Dimension        Dim             ....  358
 Nuclear Repulsion      ENuc            ....   2035.0180772806 Eh

Convergence Acceleration:
 DIIS                   CNVDIIS         .... on
   Start iteration      DIISMaxIt       ....    12
   Startup error        DIISStart       ....  0.200000
   # of expansion vecs  DIISMaxEq       ....     5
   Bias factor          DIISBfac        ....   1.050
   Max. coefficient     DIISMaxC        ....  10.000
 Trust-Rad. Augm. Hess. CNVTRAH         .... auto
   Auto Start mean grad. ratio tolernc. ....  1.125000
   Auto Start start iteration           ....    20
   Auto Start num. interpolation iter.  ....    10
   Max. Number of Micro iterations      ....    16
   Max. Number of Macro iterations      .... Maxiter - #DIIS iter
   Number of Davidson start vectors     ....     2
   Converg. threshold I  (grad. norm)   ....   1.000e-05
   Converg. threshold II (energy diff.) ....   1.000e-08
   Grad. Scal. Fac. for Micro threshold ....   0.100
   Minimum threshold for Micro iter.    ....   0.010
   NR start threshold (gradient norm)   ....   0.001
   Initial trust radius                 ....   0.400
   Minimum AH scaling param. (alpha)    ....   1.000
   Maximum AH scaling param. (alpha)    .... 1000.000
   Orbital update algorithm             .... Taylor
   White noise on init. David. guess    .... on
   Maximum white noise                  ....   0.010
   Quad. conv. algorithm                .... NR
   COSX micro iterations for RIJONX calc.... off
 SOSCF                  CNVSOSCF        .... off
 Level Shifting         CNVShift        .... on
   Level shift para.    LevelShift      ....    0.2500
   Turn off err/grad.   ShiftErr        ....    0.0010
 Zerner damping         CNVZerner       .... off
 Static damping         CNVDamp         .... on
   Fraction old density DampFac         ....    0.7000
   Max. Damping (<1)    DampMax         ....    0.9800
   Min. Damping (>=0)   DampMin         ....    0.0000
   Turn off err/grad.   DampErr         ....    0.1000
 Fernandez-Rico         CNVRico         .... off

SCF Procedure:
 Maximum # iterations   MaxIter         ....   250
 SCF integral mode      SCFMode         .... Direct
   Integral package                     .... SHARK and LIBINT hybrid scheme
 Reset frequency        DirectResetFreq ....    20
 Integral Threshold     Thresh          ....  2.500e-11 Eh
 Primitive CutOff       TCut            ....  2.500e-12 Eh

Convergence Tolerance:
 Convergence Check Mode ConvCheckMode   .... Total+1el-Energy
 Convergence forced     ConvForced      .... 0
 Energy Change          TolE            ....  1.000e-08 Eh
 1-El. energy change                    ....  1.000e-05 Eh
 DIIS Error             TolErr          ....  5.000e-07


Diagonalization of the overlap matrix:
Smallest eigenvalue                        ... 1.145e-03
Time for diagonalization                   ...    0.034 sec
Threshold for overlap eigenvalues          ... 1.000e-08
Number of eigenvalues below threshold      ... 0
Time for construction of square roots      ...    0.013 sec
Total time needed                          ...    0.048 sec

--------------------
INITIAL GUESS: HCORE
--------------------
                      -----------------
                      INTIAL GUESS DONE 
                      -----------------
-------------------
DFT GRID GENERATION
-------------------

General Integration Accuracy     IntAcc      ... 4.159
Radial Grid Type                 RadialGrid  ... OptM3 with GC (2021)
Angular Grid (max. ang.)         AngularGrid ... 3 (Lebedev-194)
Angular grid pruning method      GridPruning ... 4 (adaptive)
Weight generation scheme         WeightScheme... Becke
Basis function cutoff            BFCut       ... 1.0000e-11
Integration weight cutoff        WCut        ... 1.0000e-14
Angular grids for H and He will be reduced by one unit
Partially contracted basis set               ... off
Rotationally invariant grid construction     ... off

Total number of grid points                  ...    93293
Total number of batches                      ...     1476
Average number of points per batch           ...       63
Average number of grid points per atom       ...     2392
Time for grid setup =    1.774 sec

--------------------
COSX GRID GENERATION
--------------------

GRIDX 1
-------
General Integration Accuracy     IntAcc      ... 3.816
Radial Grid Type                 RadialGrid  ... OptM3 with GC (2021)
Angular Grid (max. ang.)         AngularGrid ... 1 (Lebedev-50)
Angular grid pruning method      GridPruning ... 4 (adaptive)
Weight generation scheme         WeightScheme... Becke
Basis function cutoff            BFCut       ... 1.0000e-11
Integration weight cutoff        WCut        ... 1.0000e-14
Angular grids for H and He will be reduced by one unit
Partially contracted basis set               ... on
Rotationally invariant grid construction     ... off

Total number of grid points                  ...    23204
Total number of batches                      ...      380
Average number of points per batch           ...       61
Average number of grid points per atom       ...      595
UseSFitting                                  ... on

GRIDX 2
-------
General Integration Accuracy     IntAcc      ... 4.020
Radial Grid Type                 RadialGrid  ... OptM3 with GC (2021)
Angular Grid (max. ang.)         AngularGrid ... 2 (Lebedev-110)
Angular grid pruning method      GridPruning ... 4 (adaptive)
Weight generation scheme         WeightScheme... Becke
Basis function cutoff            BFCut       ... 1.0000e-11
Integration weight cutoff        WCut        ... 1.0000e-14
Angular grids for H and He will be reduced by one unit
Partially contracted basis set               ... on
Rotationally invariant grid construction     ... off

Total number of grid points                  ...    50325
Total number of batches                      ...      806
Average number of points per batch           ...       62
Average number of grid points per atom       ...     1290
UseSFitting                                  ... on

GRIDX 3
-------
General Integration Accuracy     IntAcc      ... 4.338
Radial Grid Type                 RadialGrid  ... OptM3 with GC (2021)
Angular Grid (max. ang.)         AngularGrid ... 3 (Lebedev-194)
Angular grid pruning method      GridPruning ... 4 (adaptive)
Weight generation scheme         WeightScheme... Becke
Basis function cutoff            BFCut       ... 1.0000e-11
Integration weight cutoff        WCut        ... 1.0000e-14
Angular grids for H and He will be reduced by one unit
Partially contracted basis set               ... on
Rotationally invariant grid construction     ... off

Total number of grid points                  ...   108773
Total number of batches                      ...     1717
Average number of points per batch           ...       63
Average number of grid points per atom       ...     2789
UseSFitting                                  ... on

Time for X-Grid setup             =    4.686 sec

--------------
SCF ITERATIONS
--------------
ITER       Energy         Delta-E        Max-DP      RMS-DP      [F,P]     Damp
               ***  Starting incremental Fock matrix formation  ***
  0   -844.5713605828   0.00000000000021.51335567  0.14868978  3.3052424 0.7000
  1  -1090.4062018444-245.83484126158610.14543983  0.13634147  1.5215140 0.7000
  2  -1162.0256022481 -71.619400403687 5.39668934  0.07275674  1.0583781 0.7000
  3  -1187.8072126309 -25.781610382857 3.75168967  0.04812320  0.7666932 0.7000
  4  -1208.3278672300 -20.520654599099 2.64412530  0.03880281  0.4746657 0.7000
  5  -1223.1220237735 -14.794156543521 2.34916266  0.03267439  0.3595412 0.7000
  6  -1234.0436798803 -10.921656106783 1.82778594  0.03049888  0.2936326 0.7000
  7  -1241.2939913886  -7.250311508248 1.63113924  0.02544659  0.2866826 0.7000
  8  -1248.9897871124  -7.695795723798 1.49797852  0.02536477  0.2913718 0.7000
  9  -1252.2232874782  -3.233500365868 1.52568015  0.02412539  0.3128635 0.7000
 10  -1256.3053828209  -4.082095342670 1.40666349  0.02315380  0.3046187 0.7000
 11  -1257.5501848688  -1.244802047868 1.43071124  0.02322852  0.3319220 0.7000
                               ***Turning on DIIS***
 12  -1260.0119391802  -2.461754311464 1.38196755  0.02280872  0.3125795 0.7000
 13  -1260.2242553395  -0.212316159275 1.25006176  0.01931189  0.3414669 0.7000
 14  -1268.1927253711  -7.968470031562 0.87455953  0.01375961  0.2665056 0.7000
 15  -1274.4855730751  -6.292847704061 0.61513467  0.00973980  0.2011686 0.7000
 16  -1278.9208674349  -4.435294359790 0.43383980  0.00689137  0.1430313 0.7000
 17  -1281.9249561508  -3.004088715860 1.01624034  0.01621404  0.0944327 0.0000
 18  -1288.4258804754  -6.500924324588 0.03886289  0.00061535  0.0305213 0.0000
 19  -1288.4469807828  -0.021100307461 0.03432382  0.00048819  0.0199072 0.0000
               *** Restarting incremental Fock matrix formation ***
                                   *** Resetting DIIS ***
 20  -1288.4501594688  -0.003178685986 0.04333244  0.00051130  0.0180823 0.0000
 21  -1288.4503305206  -0.000171051741 0.02037143  0.00022056  0.0235766 0.0000
 22  -1288.4530240591  -0.002693538544 0.00461350  0.00007369  0.0047888 0.0000
 23  -1288.4532314713  -0.000207412165 0.00378098  0.00003648  0.0022727 0.0000
 24  -1288.4532729795  -0.000041508210 0.00284431  0.00003336  0.0006723 0.0000
               *** Restarting incremental Fock matrix formation ***
                                   *** Resetting DIIS ***
 25  -1288.4538447716  -0.000571792081 0.00481617  0.00009804  0.0006405 0.0000
 26  -1288.4538628394  -0.000018067873 0.00150132  0.00001496  0.0005459 0.0000
 27  -1288.4538628456  -0.000000006157 0.00098544  0.00000865  0.0006689 0.0000
 28  -1288.4538655826  -0.000002737015 0.00031670  0.00000311  0.0001543 0.0000
 29  -1288.4538657098  -0.000000127176 0.00023631  0.00000180  0.0000965 0.0000
 30  -1288.4538657973  -0.000000087567 0.00009118  0.00000079  0.0000375 0.0000
 31  -1288.4538658222  -0.000000024896 0.00004792  0.00000050  0.0000141 0.0000
 32  -1288.4538658290  -0.000000006753 0.00002379  0.00000025  0.0000068 0.0000
 33  -1288.4538658312  -0.000000002245 0.00001431  0.00000012  0.0000028 0.0000
 34  -1288.4538658435  -0.000000012212 0.00000441  0.00000004  0.0000019 0.0000
 35  -1288.4538658473  -0.000000003886 0.00000392  0.00000003  0.0000016 0.0000
 36  -1288.4538658564  -0.000000009022 0.00000208  0.00000002  0.0000015 0.0000
                 **** Energy Check signals convergence ****

               *****************************************************
               *                     SUCCESS                       *
               *           SCF CONVERGED AFTER  37 CYCLES          *
               *****************************************************

Old exchange energy                            =    -59.649157226 Eh
New exchange energy                            =    -59.649282729 Eh
Exchange energy change after final integration =     -0.000125503 Eh
Total energy after final integration           =  -1288.453991359 Eh
Final COS-X integration done in                =    59.854 sec

----------------
TOTAL SCF ENERGY
----------------

Total Energy       :        -1288.45399136 Eh          -35060.61555 eV

Components:
Nuclear Repulsion  :         2035.01807728 Eh           55375.65713 eV
Electronic Energy  :        -3323.47206864 Eh          -90436.27268 eV
One Electron Energy:        -5825.66790594 Eh         -158524.48295 eV
Two Electron Energy:         2502.19583730 Eh           68088.21027 eV
Max COSX asymmetry :            0.00002653 Eh               0.00072 eV

Virial components:
Potential Energy   :        -2501.51416852 Eh          -68069.66112 eV
Kinetic Energy     :         1213.06017716 Eh           33009.04557 eV
Virial Ratio       :            2.06215175


DFT components:
N(Alpha)           :       82.000354597248 electrons
N(Beta)            :       82.000354597248 electrons
N(Total)           :      164.000709194496 electrons
E(X)               :      -79.589584300514 Eh       
E(C)               :       -7.460087949600 Eh       
E(XC)              :      -87.049672250114 Eh       
DFET-embed. en.    :        0.000000000000 Eh       

---------------
SCF CONVERGENCE
---------------

  Last Energy change         ...    5.0932e-10  Tolerance :   1.0000e-08
  Last MAX-Density change    ...    0.0000e+00  Tolerance :   1.0000e-07
  Last RMS-Density change    ...    0.0000e+00  Tolerance :   5.0000e-09
  Last DIIS Error            ...    3.4001e-07  Tolerance :   5.0000e-07

             **** THE GBW FILE WAS UPDATED (reaction4-IEIP_ts_guess_scan_11-12_orca.gbw) ****
             **** DENSITY reaction4-IEIP_ts_guess_scan_11-12_orca.scfp WAS UPDATED ****
             **** ENERGY FILE WAS UPDATED (reaction4-IEIP_ts_guess_scan_11-12_orca.en.tmp) ****
             **** THE GBW FILE WAS UPDATED (reaction4-IEIP_ts_guess_scan_11-12_orca.gbw) ****
             **** DENSITY reaction4-IEIP_ts_guess_scan_11-12_orca.scfp WAS UPDATED ****
----------------
ORBITAL ENERGIES
----------------

  NO   OCC          E(Eh)            E(eV) 
   0   2.0000     -89.760248     -2442.5005 
   1   2.0000     -19.638228      -534.3834 
   2   2.0000     -19.628322      -534.1138 
   3   2.0000     -14.831265      -403.5793 
   4   2.0000     -10.700823      -291.1842 
   5   2.0000     -10.652014      -289.8560 
   6   2.0000     -10.626200      -289.1536 
   7   2.0000     -10.624236      -289.1001 
   8   2.0000     -10.623056      -289.0680 
   9   2.0000     -10.620518      -288.9990 
  10   2.0000     -10.615445      -288.8609 
  11   2.0000     -10.612887      -288.7913 
  12   2.0000     -10.611995      -288.7671 
  13   2.0000     -10.608083      -288.6606 
  14   2.0000     -10.587789      -288.1084 
  15   2.0000     -10.586055      -288.0612 
  16   2.0000     -10.552747      -287.1549 
  17   2.0000     -10.550049      -287.0814 
  18   2.0000     -10.547582      -287.0143 
  19   2.0000      -8.399664      -228.5665 
  20   2.0000      -6.289558      -171.1476 
  21   2.0000      -6.286029      -171.0515 
  22   2.0000      -6.284605      -171.0128 
  23   2.0000      -4.021161      -109.4214 
  24   2.0000      -2.338393       -63.6309 
  25   2.0000      -2.307391       -62.7873 
  26   2.0000      -2.304156       -62.6993 
  27   2.0000      -1.333557       -36.2879 
  28   2.0000      -1.232745       -33.5447 
  29   2.0000      -1.207424       -32.8557 
  30   2.0000      -1.160489       -31.5785 
  31   2.0000      -1.124824       -30.6080 
  32   2.0000      -1.023539       -27.8519 
  33   2.0000      -0.973420       -26.4881 
  34   2.0000      -0.967419       -26.3248 
  35   2.0000      -0.966098       -26.2889 
  36   2.0000      -0.957405       -26.0523 
  37   2.0000      -0.943283       -25.6680 
  38   2.0000      -0.899499       -24.4766 
  39   2.0000      -0.870369       -23.6839 
  40   2.0000      -0.797183       -21.6924 
  41   2.0000      -0.780789       -21.2464 
  42   2.0000      -0.777087       -21.1456 
  43   2.0000      -0.776505       -21.1298 
  44   2.0000      -0.766351       -20.8535 
  45   2.0000      -0.761408       -20.7190 
  46   2.0000      -0.742339       -20.2001 
  47   2.0000      -0.722707       -19.6659 
  48   2.0000      -0.695165       -18.9164 
  49   2.0000      -0.684439       -18.6245 
  50   2.0000      -0.664717       -18.0879 
  51   2.0000      -0.663308       -18.0495 
  52   2.0000      -0.650616       -17.7042 
  53   2.0000      -0.639080       -17.3903 
  54   2.0000      -0.631234       -17.1768 
  55   2.0000      -0.628499       -17.1023 
  56   2.0000      -0.621237       -16.9047 
  57   2.0000      -0.609177       -16.5765 
  58   2.0000      -0.597925       -16.2704 
  59   2.0000      -0.597323       -16.2540 
  60   2.0000      -0.596496       -16.2315 
  61   2.0000      -0.590446       -16.0669 
  62   2.0000      -0.578170       -15.7328 
  63   2.0000      -0.570900       -15.5350 
  64   2.0000      -0.565516       -15.3885 
  65   2.0000      -0.561427       -15.2772 
  66   2.0000      -0.557407       -15.1678 
  67   2.0000      -0.545894       -14.8545 
  68   2.0000      -0.542578       -14.7643 
  69   2.0000      -0.535236       -14.5645 
  70   2.0000      -0.529708       -14.4141 
[...]

----------------------
LOEWDIN ATOMIC CHARGES
----------------------
   0 Ir:   -0.261887
   1 C :   -0.059331
   2 C :   -0.098822
   3 C :   -0.098177
   4 C :   -0.039987
   5 C :   -0.017864
   6 N :   -0.007352
   7 C :   -0.069086
   8 C :   -0.362149
   9 H :    0.155819
  10 H :    0.132830
  11 H :    0.142664
  12 C :   -0.344002
  13 H :    0.153422
  14 H :    0.150220
  15 H :    0.138098
  16 H :    0.133072
  17 C :    0.029301
  18 C :   -0.197291
  19 H :    0.159472
  20 C :   -0.218366
  21 C :   -0.132802
  22 S :    0.492867
  23 C :   -0.256944
  24 H :    0.367828
  25 H :    0.161210
  26 H :    0.168880
  27 H :    0.181856
  28 H :    0.178938
  29 H :    0.187093
  30 O :   -0.257067
  31 O :   -0.173447
  32 C :    0.169714
  33 C :   -0.370874
  34 H :    0.165941
  35 H :    0.173339
  36 H :    0.157179
  37 H :    0.181191
  38 H :    0.184513

-------------------------------
LOEWDIN REDUCED ORBITAL CHARGES
-------------------------------
  0 Irs       :     2.451850  s :     2.451850
      pz      :     2.255964  p :     6.778789
      px      :     2.256298
      py      :     2.266526
      dz2     :     1.721848  d :     7.943189
      dxz     :     1.642456
      dyz     :     1.445683
      dx2y2   :     1.605411
      dxy     :     1.527791
      f0      :     0.010291  f :     0.088060
      f+1     :     0.005472
      f-1     :     0.015920
      f+2     :     0.013506
      f-2     :     0.016040
      f+3     :     0.010750
      f-3     :     0.016081
  1 C s       :     2.873481  s :     2.873481
      pz      :     1.052733  p :     3.082729
      px      :     1.074794
      py      :     0.955202
      dz2     :     0.025667  d :     0.103121
      dxz     :     0.025438
      dyz     :     0.016334
      dx2y2   :     0.019083
      dxy     :     0.016599
  2 C s       :     2.875342  s :     2.875342
      pz      :     1.037068  p :     3.125123
      px      :     1.089303
      py      :     0.998753
      dz2     :     0.024077  d :     0.098356
      dxz     :     0.028138
      dyz     :     0.016075
      dx2y2   :     0.017327
      dxy     :     0.012740
  3 C s       :     2.870892  s :     2.870892
      pz      :     1.028849  p :     3.128425
      px      :     1.083543
      py      :     1.016033
      dz2     :     0.022072  d :     0.098861
      dxz     :     0.031157
      dyz     :     0.015301
      dx2y2   :     0.016429
      dxy     :     0.013902
  4 C s       :     2.874350  s :     2.874350
      pz      :     1.079433  p :     3.061104
      px      :     1.043747
      py      :     0.937924
      dz2     :     0.022811  d :     0.104534
      dxz     :     0.028931
      dyz     :     0.013523
      dx2y2   :     0.019920
      dxy     :     0.019349
  5 C s       :     2.881003  s :     2.881003
      pz      :     1.046622  p :     3.032829
      px      :     1.043876
      py      :     0.942331
      dz2     :     0.021442  d :     0.104032
      dxz     :     0.031224
      dyz     :     0.015791
      dx2y2   :     0.015885
      dxy     :     0.019689
  6 N s       :     3.122230  s :     3.122230
      pz      :     1.249870  p :     3.787109
      px      :     1.286699
      py      :     1.250540
      dz2     :     0.029892  d :     0.098013
      dxz     :     0.027028
      dyz     :     0.018153
      dx2y2   :     0.012768
      dxy     :     0.010173
  7 C s       :     2.862216  s :     2.862216
      pz      :     1.056917  p :     3.072175
      px      :     0.937965
      py      :     1.077294
      dz2     :     0.028737  d :     0.134695
      dxz     :     0.028516
      dyz     :     0.013218
      dx2y2   :     0.031030
      dxy     :     0.033194
  8 C s       :     2.953532  s :     2.953532
      pz      :     1.138419  p :     3.341101
      px      :     1.123401
      py      :     1.079281
      dz2     :     0.015148  d :     0.067516
      dxz     :     0.017183
      dyz     :     0.005408
      dx2y2   :     0.010901
      dxy     :     0.018876
  9 H s       :     0.844181  s :     0.844181
 10 H s       :     0.867170  s :     0.867170
 11 H s       :     0.857336  s :     0.857336
 12 C s       :     2.953402  s :     2.953402
      pz      :     1.144852  p :     3.322632
      px      :     1.109337
      py      :     1.068444
      dz2     :     0.015058  d :     0.067968
      dxz     :     0.013692
      dyz     :     0.008503
      dx2y2   :     0.012709
      dxy     :     0.018006
 13 H s       :     0.846578  s :     0.846578
 14 H s       :     0.849780  s :     0.849780
 15 H s       :     0.861902  s :     0.861902
 16 H s       :     0.866928  s :     0.866928
 17 C s       :     2.875955  s :     2.875955
      pz      :     1.004793  p :     2.954371
      px      :     1.063657
      py      :     0.885921
      dz2     :     0.038175  d :     0.140373
      dxz     :     0.047201
      dyz     :     0.026793
      dx2y2   :     0.012891
      dxy     :     0.015313
 18 C s       :     2.889527  s :     2.889527
      pz      :     1.048280  p :     3.195088
      px      :     1.086113
      py      :     1.060696
      dz2     :     0.033719  d :     0.112676
      dxz     :     0.033951
      dyz     :     0.017270
      dx2y2   :     0.015872
      dxy     :     0.011863
 19 H s       :     0.840528  s :     0.840528
 20 C s       :     2.902489  s :     2.902489
      pz      :     1.148695  p :     3.216244
      px      :     1.060448
      py      :     1.007101
      dz2     :     0.014433  d :     0.099633
      dxz     :     0.038321
      dyz     :     0.012876
      dx2y2   :     0.017464
      dxy     :     0.016539
 21 C s       :     2.896107  s :     2.896107
      pz      :     1.075632  p :     3.141920
      px      :     1.084962
      py      :     0.981325
      dz2     :     0.028748  d :     0.094775
      dxz     :     0.031761
      dyz     :     0.014710
      dx2y2   :     0.012203
      dxy     :     0.007353
 22 S s       :     5.499018  s :     5.499018
      pz      :     3.256963  p :     9.852504
      px      :     3.081957
      py      :     3.513583
      dz2     :     0.049143  d :     0.155612
      dxz     :     0.035422
      dyz     :     0.017340
      dx2y2   :     0.026386
      dxy     :     0.027321
 23 C s       :     2.964279  s :     2.964279
      pz      :     1.120224  p :     3.206792
      px      :     1.030424
      py      :     1.056144
      dz2     :     0.023868  d :     0.085874
      dxz     :     0.030607
      dyz     :     0.011448
      dx2y2   :     0.011200
      dxy     :     0.008751
 24 H s       :     0.632172  s :     0.632172
 25 H s       :     0.838790  s :     0.838790
 26 H s       :     0.831120  s :     0.831120
 27 H s       :     0.818144  s :     0.818144
 28 H s       :     0.821062  s :     0.821062
 29 H s       :     0.812907  s :     0.812907
 30 O s       :     3.514204  s :     3.514204
      pz      :     1.445829  p :     4.688211
      px      :     1.587683
      py      :     1.654700
      dz2     :     0.015014  d :     0.054652
      dxz     :     0.015332
      dyz     :     0.013950
      dx2y2   :     0.006515
      dxy     :     0.003840
 31 O s       :     3.441077  s :     3.441077
      pz      :     1.687789  p :     4.671809
      px      :     1.583702
      py      :     1.400318
      dz2     :     0.008959  d :     0.060561
      dxz     :     0.004867
      dyz     :     0.014996
      dx2y2   :     0.014419
      dxy     :     0.017321
 32 C s       :     2.812899  s :     2.812899
      pz      :     0.954647  p :     2.700049
      px      :     0.779972
      py      :     0.965430
      dz2     :     0.069721  d :     0.317339
      dxz     :     0.052849
      dyz     :     0.091173
      dx2y2   :     0.052675
      dxy     :     0.050920
 33 C s       :     2.957823  s :     2.957823
      pz      :     1.104820  p :     3.350483
      px      :     1.155278
      py      :     1.090385
      dz2     :     0.004227  d :     0.062567
      dxz     :     0.016250
      dyz     :     0.021460
      dx2y2   :     0.018308
      dxy     :     0.002323
 34 H s       :     0.834059  s :     0.834059
 35 H s       :     0.826661  s :     0.826661
 36 H s       :     0.842821  s :     0.842821
 37 H s       :     0.818809  s :     0.818809
 38 H s       :     0.815487  s :     0.815487


                      *****************************
                      * MAYER POPULATION ANALYSIS *
                      *****************************

  NA   - Mulliken gross atomic population
  ZA   - Total nuclear charge
  QA   - Mulliken gross atomic charge
  VA   - Mayer's total valence
  BVA  - Mayer's bonded valence
  FA   - Mayer's free valence

  ATOM       NA         ZA         QA         VA         BVA        FA
  0 Ir    16.3936    17.0000     0.6064     3.7576     3.7576    -0.0000
  1 C      6.2480     6.0000    -0.2480     3.7280     3.7280     0.0000
  2 C      6.2589     6.0000    -0.2589     3.7308     3.7308    -0.0000
  3 C      6.2725     6.0000    -0.2725     3.7442     3.7442    -0.0000
  4 C      6.2225     6.0000    -0.2225     3.7169     3.7169    -0.0000
  5 C      6.1537     6.0000    -0.1537     3.7000     3.7000     0.0000
  6 N      7.4374     7.0000    -0.4374     3.2131     3.2131     0.0000
  7 C      6.1250     6.0000    -0.1250     3.7109     3.7109    -0.0000
  8 C      6.6810     6.0000    -0.6810     3.6897     3.6897     0.0000
  9 H      0.7313     1.0000     0.2687     0.8977     0.8977    -0.0000
 10 H      0.7753     1.0000     0.2247     0.9107     0.9107     0.0000
 11 H      0.7477     1.0000     0.2523     0.9010     0.9010    -0.0000
 12 C      6.6333     6.0000    -0.6333     3.6718     3.6718    -0.0000
 13 H      0.7231     1.0000     0.2769     0.8736     0.8736     0.0000
 14 H      0.7422     1.0000     0.2578     0.8990     0.8990     0.0000
 15 H      0.7672     1.0000     0.2328     0.9095     0.9095     0.0000
 16 H      0.7666     1.0000     0.2334     0.9060     0.9060    -0.0000
 17 C      5.9314     6.0000     0.0686     3.6674     3.6674     0.0000
 18 C      6.1245     6.0000    -0.1245     3.6881     3.6881    -0.0000
 19 H      0.7162     1.0000     0.2838     0.8871     0.8871     0.0000
 20 C      6.5501     6.0000    -0.5501     3.5644     3.5644     0.0000
 21 C      6.1081     6.0000    -0.1081     3.7559     3.7559     0.0000
 22 S     15.6601    16.0000     0.3399     2.5928     2.5928    -0.0000
 23 C      6.4247     6.0000    -0.4247     3.7546     3.7546     0.0000
 24 H      0.5234     1.0000     0.4766     0.7419     0.7419    -0.0000
 25 H      0.7347     1.0000     0.2653     0.9023     0.9023    -0.0000
 26 H      0.7029     1.0000     0.2971     0.8975     0.8975    -0.0000
 27 H      0.7151     1.0000     0.2849     0.9062     0.9062    -0.0000
 28 H      0.7192     1.0000     0.2808     0.9096     0.9096    -0.0000
 29 H      0.7040     1.0000     0.2960     0.8964     0.8964     0.0000
 30 O      8.4872     8.0000    -0.4872     2.1299     2.1299    -0.0000
 31 O      8.5003     8.0000    -0.5003     2.1260     2.1260    -0.0000
 32 C      5.3644     6.0000     0.6356     3.8840     3.8840     0.0000
 33 C      6.7440     6.0000    -0.7440     3.6554     3.6554     0.0000
 34 H      0.7254     1.0000     0.2746     0.8925     0.8925     0.0000
 35 H      0.7225     1.0000     0.2775     0.8903     0.8903     0.0000
 36 H      0.7359     1.0000     0.2641     0.8964     0.8964    -0.0000
 37 H      0.7190     1.0000     0.2810     0.9094     0.9094    -0.0000
 38 H      0.7074     1.0000     0.2926     0.9031     0.9031     0.0000

  Mayer bond orders larger than 0.100000
B(  0-Ir,  1-C ) :   0.4511 B(  0-Ir,  2-C ) :   0.3999 B(  0-Ir,  3-C ) :   0.4687 
B(  0-Ir,  4-C ) :   0.4277 B(  0-Ir,  5-C ) :   0.3695 B(  0-Ir,  6-N ) :   0.4660 
B(  0-Ir, 20-C ) :   0.5020 B(  0-Ir, 31-O ) :   0.5059 B(  1-C ,  2-C ) :   1.1277 
B(  1-C ,  4-C ) :   1.2189 B(  1-C , 27-H ) :   0.9084 B(  2-C ,  5-C ) :   1.2206 
B(  2-C , 28-H ) :   0.9105 B(  3-C ,  4-C ) :   1.1424 B(  3-C ,  5-C ) :   1.1707 
B(  3-C , 37-H ) :   0.9136 B(  4-C , 38-H ) :   0.9002 B(  5-C , 29-H ) :   0.9019 
B(  6-N ,  7-C ) :   0.8967 B(  6-N , 17-C ) :   1.6436 B(  7-C ,  8-C ) :   0.9903 
B(  7-C , 12-C ) :   0.9672 B(  7-C , 13-H ) :   0.8782 B(  8-C ,  9-H ) :   0.9050 
B(  8-C , 10-H ) :   0.9130 B(  8-C , 11-H ) :   0.9128 B( 12-C , 14-H ) :   0.9080 
B( 12-C , 15-H ) :   0.9153 B( 12-C , 16-H ) :   0.9121 B( 17-C , 18-C ) :   1.1182 
B( 17-C , 19-H ) :   0.8766 B( 18-C , 20-C ) :   1.2338 B( 18-C , 22-S ) :   1.2294 
B( 20-C , 21-C ) :   1.2770 B( 20-C , 24-H ) :   0.3053 B( 21-C , 23-C ) :   1.5344 
B( 21-C , 25-H ) :   0.9030 B( 22-S , 23-C ) :   1.2247 B( 23-C , 26-H ) :   0.8917 
B( 24-H , 30-O ) :   0.3747 B( 30-O , 32-C ) :   1.5262 B( 31-O , 32-C ) :   1.4083 
B( 32-C , 33-C ) :   0.9459 B( 33-C , 34-H ) :   0.8987 B( 33-C , 35-H ) :   0.8919 
B( 33-C , 36-H ) :   0.9074 


------------------
HIRSHFELD ANALYSIS
------------------

Total integrated alpha density =     82.000219966
Total integrated beta density  =     82.000219966

  ATOM     CHARGE      SPIN    
   0 Ir   0.168154    0.000000
   1 C   -0.004021    0.000000
   2 C   -0.017863    0.000000
   3 C   -0.022162    0.000000
   4 C    0.003343    0.000000
   5 C    0.018397    0.000000
   6 N   -0.071726    0.000000
   7 C    0.052067    0.000000
   8 C   -0.071651    0.000000
   9 H    0.052867    0.000000
  10 H    0.037518    0.000000
  11 H    0.040360    0.000000
  12 C   -0.071368    0.000000
  13 H    0.044095    0.000000
  14 H    0.049351    0.000000
  15 H    0.037444    0.000000
  16 H    0.030645    0.000000
  17 C    0.092649    0.000000
  18 C   -0.014539    0.000000
  19 H    0.075850    0.000000
  20 C   -0.091440    0.000000
  21 C   -0.030144    0.000000
  22 S    0.139315    0.000000
  23 C   -0.024468    0.000000
  24 H    0.110439    0.000000
  25 H    0.067256    0.000000
  26 H    0.078993    0.000000
  27 H    0.080389    0.000000
  28 H    0.078092    0.000000
  29 H    0.089837    0.000000
  30 O   -0.220187    0.000000
  31 O   -0.239477    0.000000
  32 C    0.255133    0.000000
  33 C   -0.060809    0.000000
  34 H    0.059719    0.000000
  35 H    0.065163    0.000000
  36 H    0.052634    0.000000
  37 H    0.079412    0.000000
  38 H    0.080291    0.000000

  TOTAL   0.999560    0.000000

-------
TIMINGS
-------

Total SCF time: 0 days 0 hours 5 min 24 sec 

Total time                  ....     324.252 sec
Sum of individual times     ....     323.713 sec  ( 99.8%)

Fock matrix formation       ....     314.868 sec  ( 97.1%)
  Split-RI-J                ....      23.234 sec  (  7.4% of F)
  Chain of spheres X        ....     273.480 sec  ( 86.9% of F)
  XC integration            ....      18.152 sec  (  5.8% of F)
    Basis function eval.    ....       8.398 sec  ( 46.3% of XC)
    Density eval.           ....       4.761 sec  ( 26.2% of XC)
    XC-Functional eval.     ....       1.374 sec  (  7.6% of XC)
    XC-Potential eval.      ....       2.979 sec  ( 16.4% of XC)
Diagonalization             ....       0.282 sec  (  0.1%)
Density matrix formation    ....       0.043 sec  (  0.0%)
Population analysis         ....       1.624 sec  (  0.5%)
Initial guess               ....       0.032 sec  (  0.0%)
Orbital Transformation      ....       0.000 sec  (  0.0%)
Orbital Orthonormalization  ....       0.025 sec  (  0.0%)
DIIS solution               ....       0.107 sec  (  0.0%)
Grid generation             ....       6.756 sec  (  2.1%)

Maximum memory used throughout the entire SCF-calculation: 173.1 MB


-------------------------------------------------------------------------------
                          DFT DISPERSION CORRECTION                            
                                                                               
                              DFTD3 V3.1  Rev 1                                
                          USING Becke-Johnson damping                          
-------------------------------------------------------------------------------
The PBEh-3c composite method is recognized
Using three-body term ABC
Active option DFTDOPT                   ...         4   

molecular C6(AA) [au] = 19534.697322 


            DFT-D V3
 parameters
 s6 scaling factor         :     1.0000 
 a1 scaling factor         :     0.4860 
 s8 scaling factor         :     0.0000 
 a2 scaling factor         :     4.5000 
 Damping factor alpha9(ATM):    16.0000 
 ad hoc parameters k1-k3   :    16.0000     1.3333    -4.0000 

 Edisp/kcal,au: -19.202115665766  -0.030600515867 
 E6   /kcal   : -19.535561177 
 E8   /kcal   :  -0.000000000 
 E6(ABC)      :   0.333445511 
 % E8         :   0.000000000 
 % E6(ABC)    :  -1.736504024 

-------------------------   ----------------
Dispersion correction           -0.030600516
-------------------------   ----------------

 ** NOTE ** -> element ir will be treated as co
NOTIFICATION: Different basis set in ORCA and otool_gcp:
ORCA: 358  gCP: 357 
If you are NOT using ECPs, check your basis set inputs!
------------------   -----------------
gCP correction             0.079334381
------------------   -----------------

-------------------------   --------------------
FINAL SINGLE POINT ENERGY     -1288.405026867109
-------------------------   --------------------

                                *** OPTIMIZATION RUN DONE ***

                            ***************************************
                            *     ORCA property calculations      *
                            ***************************************

                                    ---------------------
                                    Active property flags
                                    ---------------------
   (+) Dipole Moment


------------------------------------------------------------------------------
                       ORCA ELECTRIC PROPERTIES CALCULATION
------------------------------------------------------------------------------

Dipole Moment Calculation                       ... on
Quadrupole Moment Calculation                   ... off
Polarizability Calculation                      ... off
GBWName                                         ... reaction4-IEIP_ts_guess_scan_11-12_orca.gbw
Electron density                                ... reaction4-IEIP_ts_guess_scan_11-12_orca.scfp
The origin for moment calculation is the CENTER OF MASS  = ( 0.863661, -0.550245 -0.175948)

-------------
DIPOLE MOMENT
-------------
                                X             Y             Z
Electronic contribution:     36.90134     -75.11324      71.79131
Nuclear contribution   :    -37.46470      74.78592     -71.95036
                        -----------------------------------------
Total Dipole Moment    :     -0.56336      -0.32732      -0.15905
                        -----------------------------------------
Magnitude (a.u.)       :      0.67067
Magnitude (Debye)      :      1.70472



--------------------
Rotational spectrum 
--------------------
 
Rotational constants in cm-1:     0.010567     0.008779     0.008188 
Rotational constants in MHz :   316.796649   263.181846   245.484821 

 Dipole components along the rotational axes: 
x,y,z [a.u.] :     0.078896     0.201535     0.634793 
x,y,z [Debye]:     0.200539     0.512261     1.613515 

 

Timings for individual modules:

Sum of individual times         ...     4723.156 sec (=  78.719 min)
GTO integral calculation        ...       14.821 sec (=   0.247 min)   0.3 %
SCF iterations                  ...     3768.062 sec (=  62.801 min)  79.8 %
SCF Gradient evaluation         ...      937.861 sec (=  15.631 min)  19.9 %
Geometry relaxation             ...        2.412 sec (=   0.040 min)   0.1 %
                             ****ORCA TERMINATED NORMALLY****
TOTAL RUN TIME: 0 days 1 hours 18 minutes 46 seconds 754 msec
