
                                 *****************
                                 * O   R   C   A *
                                 *****************

                                            #,                                       
                                            ###                                      
                                            ####                                     
                                            #####                                    
                                            ######                                   
                                           ########,                                 
                                     ,,################,,,,,                         
                               ,,#################################,,                 
                          ,,##########################################,,             
                       ,#########################################, ''#####,          
                    ,#############################################,,   '####,        
                  ,##################################################,,,,####,       
                ,###########''''           ''''###############################       
              ,#####''   ,,,,##########,,,,          '''####'''          '####       
            ,##' ,,,,###########################,,,                        '##       
           ' ,,###''''                  '''############,,,                           
         ,,##''                                '''############,,,,        ,,,,,,###''
      ,#''                                            '''#######################'''  
     '                                                          ''''####''''         
             ,#######,   #######,   ,#######,      ##                                
            ,#'     '#,  ##    ##  ,#'     '#,    #''#        ######   ,####,        
            ##       ##  ##   ,#'  ##            #'  '#       #        #'  '#        
            ##       ##  #######   ##           ,######,      #####,   #    #        
            '#,     ,#'  ##    ##  '#,     ,#' ,#      #,         ##   #,  ,#        
             '#######'   ##     ##  '#######'  #'      '#     #####' # '####'        



                  #######################################################
                  #                        -***-                        #
                  #          Department of theory and spectroscopy      #
                  #    Directorship and core code : Frank Neese         #
                  #        Max Planck Institute fuer Kohlenforschung    #
                  #                Kaiser Wilhelm Platz 1               #
                  #                 D-45470 Muelheim/Ruhr               #
                  #                      Germany                        #
                  #                                                     #
                  #                  All rights reserved                #
                  #                        -***-                        #
                  #######################################################


                         Program Version 5.0.3 -  RELEASE  -


 With contributions from (in alphabetic order):
   Daniel Aravena         : Magnetic Suceptibility
   Michael Atanasov       : Ab Initio Ligand Field Theory (pilot matlab implementation)
   Alexander A. Auer      : GIAO ZORA, VPT2 properties, NMR spectrum
   Ute Becker             : Parallelization
   Giovanni Bistoni       : ED, misc. LED, open-shell LED, HFLD
   Martin Brehm           : Molecular dynamics
   Dmytro Bykov           : SCF Hessian
   Vijay G. Chilkuri      : MRCI spin determinant printing, contributions to CSF-ICE
   Dipayan Datta          : RHF DLPNO-CCSD density
   Achintya Kumar Dutta   : EOM-CC, STEOM-CC
   Dmitry Ganyushin       : Spin-Orbit,Spin-Spin,Magnetic field MRCI
   Miquel Garcia          : C-PCM and meta-GGA Hessian, CC/C-PCM, Gaussian charge scheme
   Yang Guo               : DLPNO-NEVPT2, F12-NEVPT2, CIM, IAO-localization
   Andreas Hansen         : Spin unrestricted coupled pair/coupled cluster methods
   Benjamin Helmich-Paris : MC-RPA, TRAH-SCF, COSX integrals
   Lee Huntington         : MR-EOM, pCC
   Robert Izsak           : Overlap fitted RIJCOSX, COSX-SCS-MP3, EOM
   Marcus Kettner         : VPT2
   Christian Kollmar      : KDIIS, OOCD, Brueckner-CCSD(T), CCSD density, CASPT2, CASPT2-K
   Simone Kossmann        : Meta GGA functionals, TD-DFT gradient, OOMP2, MP2 Hessian
   Martin Krupicka        : Initial AUTO-CI
   Lucas Lang             : DCDCAS
   Marvin Lechner         : AUTO-CI (C++ implementation), FIC-MRCC
   Dagmar Lenk            : GEPOL surface, SMD
   Dimitrios Liakos       : Extrapolation schemes; Compound Job, initial MDCI parallelization
   Dimitrios Manganas     : Further ROCIS development; embedding schemes
   Dimitrios Pantazis     : SARC Basis sets
   Anastasios Papadopoulos: AUTO-CI, single reference methods and gradients
   Taras Petrenko         : DFT Hessian,TD-DFT gradient, ASA, ECA, R-Raman, ABS, FL, XAS/XES, NRVS
   Peter Pinski           : DLPNO-MP2, DLPNO-MP2 Gradient
   Christoph Reimann      : Effective Core Potentials
   Marius Retegan         : Local ZFS, SOC
   Christoph Riplinger    : Optimizer, TS searches, QM/MM, DLPNO-CCSD(T), (RO)-DLPNO pert. Triples
   Tobias Risthaus        : Range-separated hybrids, TD-DFT gradient, RPA, STAB
   Michael Roemelt        : Original ROCIS implementation
   Masaaki Saitow         : Open-shell DLPNO-CCSD energy and density
   Barbara Sandhoefer     : DKH picture change effects
   Avijit Sen             : IP-ROCIS
   Kantharuban Sivalingam : CASSCF convergence, NEVPT2, FIC-MRCI
   Bernardo de Souza      : ESD, SOC TD-DFT
   Georgi Stoychev        : AutoAux, RI-MP2 NMR, DLPNO-MP2 response
   Willem Van den Heuvel  : Paramagnetic NMR
   Boris Wezisla          : Elementary symmetry handling
   Frank Wennmohs         : Technical directorship


 We gratefully acknowledge several colleagues who have allowed us to
 interface, adapt or use parts of their codes:
   Stefan Grimme, W. Hujo, H. Kruse, P. Pracht,  : VdW corrections, initial TS optimization,
                  C. Bannwarth, S. Ehlert          DFT functionals, gCP, sTDA/sTD-DF
   Ed Valeev, F. Pavosevic, A. Kumar             : LibInt (2-el integral package), F12 methods
   Garnet Chan, S. Sharma, J. Yang, R. Olivares  : DMRG
   Ulf Ekstrom                                   : XCFun DFT Library
   Mihaly Kallay                                 : mrcc  (arbitrary order and MRCC methods)
   Jiri Pittner, Ondrej Demel                    : Mk-CCSD
   Frank Weinhold                                : gennbo (NPA and NBO analysis)
   Christopher J. Cramer and Donald G. Truhlar   : smd solvation model
   Lars Goerigk                                  : TD-DFT with DH, B97 family of functionals
   V. Asgeirsson, H. Jonsson                     : NEB implementation
   FAccTs GmbH                                   : IRC, NEB, NEB-TS, DLPNO-Multilevel, CI-OPT
                                                   MM, QMMM, 2- and 3-layer-ONIOM, Crystal-QMMM,
                                                   LR-CPCM, SF, NACMEs, symmetry and pop. for TD-DFT,
                                                   nearIR, NL-DFT gradient (VV10), updates on ESD,
                                                   ML-optimized integration grids
   S Lehtola, MJT Oliveira, MAL Marques          : LibXC Library
   Liviu Ungur et al                             : ANISO software


 Your calculation uses the libint2 library for the computation of 2-el integrals
 For citations please refer to: http://libint.valeyev.net

 Your ORCA version has been built with support for libXC version: 5.1.0
 For citations please refer to: https://tddft.org/programs/libxc/

 This ORCA versions uses:
   CBLAS   interface :  Fast vector & matrix operations
   LAPACKE interface :  Fast linear algebra routines
   SCALAPACK package :  Parallel linear algebra routines
   Shared memory     :  Shared parallel matrices
   BLAS/LAPACK       :  OpenBLAS 0.3.15  USE64BITINT DYNAMIC_ARCH NO_AFFINITY SkylakeX SINGLE_THREADED
        Core in use  :  SkylakeX
   Copyright (c) 2011-2014, The OpenBLAS Project


Your calculation utilizes the geometrical counterpoise correction gCP
Please cite in your paper:
H.Kruse, S. Grimme J.Chem.Phys., 136, (2012), 154101 
   

Your calculation utilizes the atom-pairwise dispersion correction
with the Becke-Johnson damping scheme (D3BJ)
Cite in your paper:
S.Grimme, S.Ehrlich, L.Goerigk, J Comput Chem, (2011), 32, 1456–1465 
S.Grimme, J.Antony, S.Ehrlich and H.Krieg, J.Chem.Phys., 132, (2010), 154104 
   

Your calculation employs the composite approach PBEh-3c.
Please cite in your paper:
S. Grimme, J. G. Brandenburg, C. Bannwarth, A. Hansen J.Chem.Phys., 143, (2015), 054107 
   

================================================================================

cite the ECPs for Ir [Def2-ECP] as follows:
Ce-Yb(ecp-28): M. Dolg, H. Stoll, H.Preuss, J. Chem. Phys., 1989, 90, 1730-1734.
Y-Cd(ecp-28), Hf-Hg(ecp-46): D. Andrae,U. Haeussermann, M. Dolg, H. Stoll, H. Preuss, Theor. Chim. Acta, 1990, 77, 123-141.
In-Sb(ecp-28), Tl-Bi(ecp-46): B. Metz, H. Stoll, M. Dolg, J. Chem. Phys., 2000, 113, 2563-2569.
Te-Xe(ecp-28), Po-Rn(ecp-46): K. A. Peterson, D. Figgen, E. Goll, H. Stoll, M. Dolg, J. Chem. Phys., 2003, 119, 11113-11123.
Rb(ecp-28), Cs(ecp-46): T. Leininger, A. Nicklass, W. Kuechle, H. Stoll, M. Dolg, A. Bergner, Chem. Phys. Lett., 1996, 255, 274-280.
Sr(ecp-28), Ba(ecp-46): M. Kaupp, P. V. Schleyer, H. Stoll and H. Preuss, J. Chem. Phys., 1991, 94, 1360-1366.
La(ecp-46): M. Dolg, H. Stoll, A. Savin, H. Preuss, Theor. Chim. Acta, 1989, 75, 173-194.
Lu(ecp-28): X. Cao, M. Dolg, J. Chem. Phys., 2001, 115, 7348-7355.

ECP parameters for Ir [Def2-ECP] have been obtained from:
TURBOMOLE (7.0.2)

----- Orbital basis set information -----
Your calculation utilizes the basis: def2-mSVP

----- AuxJ basis set information -----
Your calculation utilizes the auxiliary basis: def2/J
   F. Weigend, Phys. Chem. Chem. Phys. 8, 1057 (2006).

================================================================================
                                        WARNINGS
                       Please study these warnings very carefully!
================================================================================


WARNING: Geometry Optimization
  ===> : Switching off AutoStart
         For restart on a previous wavefunction, please use MOREAD

WARNING: No Hueckel Guess possible with ECP basis!
  ===> : Switching to HCORE guess!

INFO   : the flag for use of the SHARK integral package has been found!

================================================================================
                                       INPUT FILE
================================================================================
NAME = reaction4-IEIP_ts_guess_scan_9-13_orca.inp
|  1> ! Opt PBEh-3c
|  2> %geom Constraints
|  3> { B 0 20 2.2142857142857144 C }
|  4> { B 24 30 1.3142857142857143 C }
|  5>     end
|  6> end
|  7> %output 
|  8> xyzfile=True 
|  9> end 
| 10> %scf 
| 11> maxiter 250 
| 12> end
| 13> %output
| 14> Print[P_Hirshfeld] = 1
| 15> end
| 16> % maxcore
| 17> 4000
| 18> *xyz 1 1
| 19> Ir   0.60116632  -0.73725352   0.46857951 
| 20> C    0.10886717  -2.84093074   0.37307513 
| 21> C   -0.08601378  -2.37092083   1.72040569 
| 22> C    2.14420260  -2.09174734   1.17251539 
| 23> C    1.46897624  -2.66823113   0.03935652 
| 24> C    1.18079246  -1.93869482   2.20013880 
| 25> N   -1.05824656   0.11036054  -0.50343765 
| 26> C   -2.34197642   0.31426495   0.18803005 
| 27> C   -3.12986119   1.51263683  -0.32250706 
| 28> H   -3.96646197   1.69594452   0.34997880 
| 29> H   -3.55704540   1.34988867  -1.31290265 
| 30> H   -2.52424549   2.41884855  -0.34594015 
| 31> C   -3.16670086  -0.96577485   0.11471821 
| 32> H   -2.07702184   0.50366989   1.22926604 
| 33> H   -4.08308933  -0.85134808   0.69237504 
| 34> H   -3.44766275  -1.19365211  -0.91434259 
| 35> H   -2.63048203  -1.82311038   0.51841578 
| 36> C   -0.89880977   0.44190047  -1.73175652 
| 37> C    0.41934933   0.28988814  -2.27270101 
| 38> H   -1.71440255   0.84611530  -2.32365295 
| 39> C    1.49552313   0.14527129  -1.40651245 
| 40> C    2.68981764  -0.10055032  -2.14081726 
| 41> S    0.85616521   0.16737022  -3.91327553 
| 42> C    2.49093931  -0.10612673  -3.49014332 
| 43> H    1.65136805   1.16656892  -0.57069288 
| 44> H    3.66669984  -0.21016823  -1.69279943 
| 45> H    3.22967714  -0.23874703  -4.26599596 
| 46> H   -0.64936788  -3.25960741  -0.27251097 
| 47> H   -1.00021501  -2.41039572   2.29306622 
| 48> H    1.36393402  -1.49623808   3.16924797 
| 49> O    1.75315776   2.26927373   0.16332551 
| 50> O    0.54964417   1.01910121   1.55582925 
| 51> C    1.13481345   2.09972265   1.23430202 
| 52> C    1.09193111   3.22283340   2.22633155 
| 53> H    0.96520203   4.17609247   1.71786401 
| 54> H    2.04628909   3.26512006   2.75396479 
| 55> H    0.30240763   3.08148805   2.95879292 
| 56> H    3.19767857  -1.87110163   1.24867249 
| 57> H    1.92237053  -2.92257086  -0.90752313 
| 58> *
| 59> 
| 60>                          ****END OF INPUT****
================================================================================

                       *****************************
                       * Geometry Optimization Run *
                       *****************************

Geometry optimization settings:
Update method            Update   .... BFGS
Choice of coordinates    CoordSys .... Z-matrix Internals
Initial Hessian          InHess   .... Almoef's Model

Convergence Tolerances:
Energy Change            TolE     ....  5.0000e-06 Eh
Max. Gradient            TolMAXG  ....  3.0000e-04 Eh/bohr
RMS Gradient             TolRMSG  ....  1.0000e-04 Eh/bohr
Max. Displacement        TolMAXD  ....  4.0000e-03 bohr
RMS Displacement         TolRMSD  ....  2.0000e-03 bohr
Strict Convergence                ....  False
------------------------------------------------------------------------------
                        ORCA OPTIMIZATION COORDINATE SETUP
------------------------------------------------------------------------------

The optimization will be done in new redundant internal coordinates
Making redundant internal coordinates   ...  (new redundants) done
Evaluating the initial hessian          ...  (Almloef) done
Evaluating the coordinates              ...  done
Calculating the B-matrix                .... done
Calculating the G-matrix                .... done
Diagonalizing the G-matrix              .... done
Imposing constraints:
 Iter   0:  RMS(Cart)=    0.0165837219 RMS(Int)=    0.0115084507
 Iter   1:  RMS(Cart)=    0.0032482500 RMS(Int)=    0.0023364513
 Iter   2:  RMS(Cart)=    0.0006617263 RMS(Int)=    0.0004782790
 Iter   3:  RMS(Cart)=    0.0001355148 RMS(Int)=    0.0000980255
 Iter   4:  RMS(Cart)=    0.0000277760 RMS(Int)=    0.0000200956
 Iter   5:  RMS(Cart)=    0.0000056942 RMS(Int)=    0.0000041199
 Iter   6:  RMS(Cart)=    0.0000011674 RMS(Int)=    0.0000008447
 Iter   7:  RMS(Cart)=    0.0000002393 RMS(Int)=    0.0000001732
 Iter   8:  RMS(Cart)=    0.0000000491 RMS(Int)=    0.0000000355
CONVERGED
Small eigenvalue found = 1.433e-02
Small eigenvalue found = 2.403e-02
The first mode is                       ....  288
The number of degrees of freedom        ....  111
Storing new coordinates                 .... done

    -----------------------------------------------------------------
                    Redundant Internal Coordinates


    -----------------------------------------------------------------
         Definition                    Initial Value    Approx d2E/dq
    -----------------------------------------------------------------
      1. B(C   1,Ir  0)                  2.1622         0.085117   
      2. B(C   2,Ir  0)                  2.1693         0.082894   
      3. B(C   2,C   1)                  1.4404         0.519567   
      4. B(C   3,Ir  0)                  2.1701         0.082685   
      5. B(C   4,C   3)                  1.4394         0.520810   
      6. B(C   4,Ir  0)                  2.1598         0.085912   
      7. B(C   4,C   1)                  1.4119         0.578281   
      8. B(C   5,Ir  0)                  2.1851         0.078170   
      9. B(C   5,C   2)                  1.4234         0.555732   
     10. B(C   5,C   3)                  1.4183         0.566015   
     11. B(N   6,Ir  0)                  2.1020         0.095376   
     12. B(C   7,N   6)                  1.4723         0.413591   
     13. B(C   8,C   7)                  1.5223         0.384243   
     14. B(H   9,C   8)                  1.0889         0.361536   
     15. B(H  10,C   8)                  1.0908         0.359036   
     16. B(H  11,C   8)                  1.0902         0.359834   
     17. B(C  12,C   7)                  1.5245         0.381224   
     18. B(H  13,C   7)                  1.0910         0.358800   
     19. B(H  14,C  12)                  1.0893         0.361043   
     20. B(H  15,C  12)                  1.0908         0.359050   
     21. B(H  16,C  12)                  1.0888         0.361666   
     22. B(C  17,N   6)                  1.2764         0.831420   
     23. B(C  18,C  17)                  1.4273         0.533649   
     24. B(H  19,C  17)                  1.0858         0.365723   
     25. B(C  20,Ir  0)                  2.2143         0.060148 C 
     26. B(C  20,C  18)                  1.3895         0.627075   
     27. B(C  21,C  20)                  1.4238         0.552720   
     28. B(S  22,C  18)                  1.7022         0.535175   
     29. B(C  23,C  21)                  1.3638         0.687631   
     30. B(C  23,S  22)                  1.7101         0.518714   
     31. B(H  24,C  20)                  1.3292         0.149727   
     32. B(H  25,C  21)                  1.0803         0.373172   
     33. B(H  26,C  23)                  1.0795         0.374294   
     34. B(H  27,C   1)                  1.0803         0.373199   
     35. B(H  28,C   2)                  1.0795         0.374298   
     36. B(H  29,C   5)                  1.0810         0.372255   
     37. B(O  30,H  24)                  1.3143         0.134256 C 
     38. B(O  31,Ir  0)                  2.0660         0.108605   
     39. B(C  32,O  30)                  1.2444         0.942007   
     40. B(C  32,O  31)                  1.2666         0.868805   
     41. B(C  33,C  32)                  1.4991         0.418462   
     42. B(H  34,C  33)                  1.0878         0.363026   
     43. B(H  35,C  33)                  1.0913         0.358355   
     44. B(H  36,C  33)                  1.0862         0.365165   
     45. B(H  37,C   3)                  1.0790         0.374914   
     46. B(H  38,C   4)                  1.0802         0.373298   
     47. A(C   4,Ir  0,C  20)           91.2697         0.235248   
     48. A(N   6,Ir  0,O  31)           83.1527         0.257737   
     49. A(C   2,Ir  0,C   3)           64.4994         0.244903   
     50. A(C   1,Ir  0,C   3)           64.5207         0.245840   
     51. A(C   5,Ir  0,N   6)          142.8047         0.246763   
     52. A(C   5,Ir  0,O  31)           93.1987         0.251470   
     53. A(C   4,Ir  0,C   5)           63.9116         0.244186   
     54. A(C   1,Ir  0,O  31)          147.5498         0.254632   
     55. A(C   3,Ir  0,C  20)          103.2084         0.233986   
     56. A(C   1,Ir  0,C   5)           63.9876         0.243860   
     57. A(C   3,Ir  0,N   6)          164.3607         0.248781   
     58. A(C   3,Ir  0,C   4)           38.8333         0.246170   
     59. A(C   4,Ir  0,N   6)          125.8620         0.250172   
     60. A(C   2,Ir  0,N   6)          108.5706         0.248872   
     61. A(C   4,Ir  0,O  31)          150.9802         0.254980   
     62. A(C   1,Ir  0,C  20)          115.5958         0.234940   
     63. A(C   5,Ir  0,C  20)          140.0366         0.232155   
     64. A(C   2,Ir  0,C   5)           38.1567         0.242935   
     65. A(C   1,Ir  0,C   4)           38.1352         0.247205   
     66. A(C   2,Ir  0,O  31)          109.1082         0.253642   
     67. A(C  20,Ir  0,O  31)           96.7600         0.242113   
     68. A(C   3,Ir  0,O  31)          112.1776         0.253548   
     69. A(N   6,Ir  0,C  20)           76.9699         0.237677   
     70. A(C   1,Ir  0,C   2)           38.8450         0.245930   
     71. A(C   1,Ir  0,N   6)          101.0161         0.249833   
     72. A(C   2,Ir  0,C  20)          153.9318         0.234069   
     73. A(C   2,Ir  0,C   4)           64.5105         0.246260   
     74. A(C   3,Ir  0,C   5)           38.0101         0.242846   
     75. A(Ir  0,C   1,C   2)           70.8445         0.313250   
     76. A(C   4,C   1,H  27)          125.6262         0.350890   
     77. A(C   2,C   1,C   4)          108.1905         0.415350   
     78. A(Ir  0,C   1,H  27)          124.2919         0.268957   
     79. A(Ir  0,C   1,C   4)           70.8381         0.318751   
     80. A(C   2,C   1,H  27)          126.1824         0.344620   
     81. A(Ir  0,C   2,C   5)           71.5204         0.315332   
     82. A(C   1,C   2,C   5)          107.0890         0.412425   
     83. A(Ir  0,C   2,H  28)          127.0158         0.268001   
     84. A(C   5,C   2,H  28)          125.9474         0.348716   
     85. A(C   1,C   2,H  28)          126.7940         0.344790   
     86. A(Ir  0,C   2,C   1)           70.3104         0.311911   
     87. A(Ir  0,C   3,C   4)           70.1962         0.311904   
     88. A(Ir  0,C   3,H  37)          126.1289         0.267966   
     89. A(C   4,C   3,C   5)          107.1627         0.413946   
     90. A(C   5,C   3,H  37)          126.2187         0.349893   
     91. A(Ir  0,C   3,C   5)           71.5680         0.316143   
     92. A(C   4,C   3,H  37)          126.5284         0.345024   
     93. A(Ir  0,C   4,C   1)           71.0266         0.319235   
     94. A(C   3,C   4,H  38)          125.9444         0.344774   
     95. A(C   1,C   4,H  38)          125.6711         0.350906   
     96. A(Ir  0,C   4,C   3)           70.9705         0.313844   
     97. A(Ir  0,C   4,H  38)          123.6115         0.269347   
     98. A(C   1,C   4,C   3)          108.3839         0.415526   
     99. A(Ir  0,C   5,C   2)           70.3228         0.312346   
    100. A(Ir  0,C   5,H  29)          122.0256         0.265421   
    101. A(C   2,C   5,H  29)          125.3134         0.348394   
    102. A(C   3,C   5,H  29)          125.3996         0.349473   
    103. A(Ir  0,C   5,C   3)           70.4219         0.313275   
    104. A(C   2,C   5,C   3)          109.1446         0.418754   
    105. A(Ir  0,N   6,C  17)          116.5601         0.341015   
    106. A(C   7,N   6,C  17)          121.5655         0.419958   
    107. A(Ir  0,N   6,C   7)          121.8744         0.304174   
    108. A(C   8,C   7,H  13)          108.0052         0.325629   
    109. A(C  12,C   7,H  13)          108.8473         0.325207   
    110. A(N   6,C   7,C   8)          113.7521         0.369214   
    111. A(N   6,C   7,C  12)          109.4405         0.368714   
    112. A(C   8,C   7,C  12)          111.3986         0.366375   
    113. A(N   6,C   7,H  13)          105.1013         0.327625   
    114. A(C   7,C   8,H   9)          108.8463         0.326037   
    115. A(C   7,C   8,H  10)          112.9379         0.325665   
    116. A(H   9,C   8,H  10)          106.5566         0.290886   
    117. A(C   7,C   8,H  11)          111.9653         0.325784   
    118. A(H   9,C   8,H  11)          107.4659         0.290987   
    119. A(H  10,C   8,H  11)          108.7869         0.290670   
    120. A(C   7,C  12,H  14)          109.9630         0.325541   
    121. A(C   7,C  12,H  15)          111.1076         0.325245   
    122. A(H  14,C  12,H  15)          107.7912         0.290825   
    123. A(C   7,C  12,H  16)          112.1411         0.325633   
    124. A(H  14,C  12,H  16)          107.4818         0.291157   
    125. A(H  15,C  12,H  16)          108.1883         0.290904   
    126. A(N   6,C  17,C  18)          115.9564         0.442519   
    127. A(N   6,C  17,H  19)          122.0194         0.369692   
    128. A(C  18,C  17,H  19)          122.0025         0.344997   
    129. A(C  17,C  18,S  22)          127.3147         0.434274   
    130. A(C  20,C  18,S  22)          113.3361         0.447114   
    131. A(C  17,C  18,C  20)          119.2409         0.423407   
    132. A(C  18,C  20,C  21)          110.1161         0.426075   
    133. A(Ir  0,C  20,H  24)           80.3598         0.224289   
    134. A(C  18,C  20,H  24)          113.8241         0.305924   
    135. A(C  21,C  20,H  24)          110.7237         0.299814   
    136. A(Ir  0,C  20,C  18)          105.1413         0.305316   
    137. A(Ir  0,C  20,C  21)          133.4115         0.299224   
    138. A(C  20,C  21,C  23)          112.9677         0.433182   
    139. A(C  20,C  21,H  25)          124.1744         0.348220   
    140. A(C  23,C  21,H  25)          122.7504         0.361355   
    141. A(C  18,S  22,C  23)           91.0314         0.456147   
    142. A(C  21,C  23,S  22)          112.5352         0.452088   
    143. A(C  21,C  23,H  26)          127.7208         0.361541   
    144. A(S  22,C  23,H  26)          119.7303         0.362645   
    145. A(C  20,H  24,O  30)          173.6713         0.219819   
    146. A(H  24,O  30,C  32)          108.6380         0.316462   
    147. A(Ir  0,O  31,C  32)          125.2190         0.351131   
    148. A(O  30,C  32,O  31)          123.6557         0.491724   
    149. A(O  30,C  32,C  33)          118.9282         0.433181   
    150. A(O  31,C  32,C  33)          117.4050         0.426937   
    151. A(C  32,C  33,H  34)          110.5203         0.330883   
    152. A(C  32,C  33,H  35)          108.9023         0.330175   
    153. A(H  34,C  33,H  35)          107.0925         0.290987   
    154. A(C  32,C  33,H  36)          111.6872         0.331205   
    155. A(H  34,C  33,H  36)          110.1549         0.291850   
    156. A(H  35,C  33,H  36)          108.3401         0.291256   
    157. D(H  27,C   1,Ir  0,C  20)    -65.4017         0.001699   
    158. D(C   2,C   1,Ir  0,C   3)     80.2927         0.001699   
    159. D(C   2,C   1,Ir  0,O  31)    -11.4184         0.001699   
    160. D(H  27,C   1,Ir  0,C   4)   -120.6260         0.001699   
    161. D(H  27,C   1,Ir  0,O  31)    109.8846         0.001699   
    162. D(C   4,C   1,Ir  0,N   6)    135.9340         0.001699   
    163. D(C   4,C   1,Ir  0,C   5)    -80.1642         0.001699   
    164. D(C   4,C   1,Ir  0,C  20)     55.2243         0.001699   
    165. D(C   4,C   1,Ir  0,C   2)   -118.0710         0.001699   
    166. D(C   2,C   1,Ir  0,C   5)     37.9068         0.001699   
    167. D(C   2,C   1,Ir  0,C  20)    173.2953         0.001699   
    168. D(H  27,C   1,Ir  0,C   5)    159.2098         0.001699   
    169. D(C   2,C   1,Ir  0,N   6)   -105.9950         0.001699   
    170. D(H  27,C   1,Ir  0,C   3)   -158.4043         0.001699   
    171. D(H  27,C   1,Ir  0,C   2)    121.3030         0.001699   
    172. D(C   4,C   1,Ir  0,O  31)   -129.4894         0.001699   
    173. D(C   4,C   1,Ir  0,C   3)    -37.7783         0.001699   
    174. D(C   2,C   1,Ir  0,C   4)    118.0710         0.001699   
    175. D(H  27,C   1,Ir  0,N   6)     15.3080         0.001699   
    176. D(H  28,C   2,Ir  0,C   5)    121.5471         0.001689   
    177. D(H  28,C   2,C   1,C   4)   -176.6167         0.021422   
    178. D(C   5,C   2,C   1,H  27)    178.5256         0.021422   
    179. D(Ir  0,C   2,C   1,C   4)     61.3211         0.021422   
    180. D(C   5,C   2,Ir  0,O  31)    -69.7968         0.001689   
    181. D(H  28,C   2,Ir  0,C   1)   -121.7949         0.001689   
    182. D(C   1,C   2,Ir  0,C   3)    -80.3520         0.001689   
    183. D(H  28,C   2,Ir  0,O  31)     51.7503         0.001689   
    184. D(H  28,C   2,C   1,H  27)      3.0579         0.021422   
    185. D(C   1,C   2,Ir  0,C   5)   -116.6580         0.001689   
    186. D(C   5,C   2,Ir  0,C   3)     36.3060         0.001689   
    187. D(C   1,C   2,Ir  0,C  20)    -13.8636         0.001689   
    188. D(Ir  0,C   2,C   1,H  27)   -119.0043         0.021422   
    189. D(H  28,C   2,Ir  0,N   6)    -37.2920         0.001689   
    190. D(H  28,C   2,C   1,Ir  0)    122.0622         0.021422   
    191. D(C   5,C   2,Ir  0,C   1)    116.6580         0.001689   
    192. D(C   1,C   2,Ir  0,C   4)    -37.1305         0.001689   
    193. D(H  28,C   2,Ir  0,C  20)   -135.6585         0.001689   
    194. D(C   5,C   2,Ir  0,C  20)    102.7944         0.001689   
    195. D(C   1,C   2,Ir  0,N   6)     84.5029         0.001689   
    196. D(C   5,C   2,C   1,Ir  0)    -62.4701         0.021422   
    197. D(C   5,C   2,Ir  0,C   4)     79.5275         0.001689   
    198. D(H  28,C   2,Ir  0,C   3)    157.8531         0.001689   
    199. D(C   5,C   2,Ir  0,N   6)   -158.8391         0.001689   
    200. D(C   5,C   2,C   1,C   4)     -1.1490         0.021422   
    201. D(C   1,C   2,Ir  0,O  31)    173.5452         0.001689   
    202. D(H  28,C   2,Ir  0,C   4)   -158.9254         0.001689   
    203. D(C   4,C   3,Ir  0,C   2)     80.3388         0.001688   
    204. D(H  37,C   3,Ir  0,C   1)    158.4650         0.001688   
    205. D(C   5,C   3,Ir  0,C  20)    168.0068         0.001688   
    206. D(H  37,C   3,Ir  0,C   5)   -121.8585         0.001688   
    207. D(H  37,C   3,Ir  0,C   2)   -158.3022         0.001688   
    208. D(C   5,C   3,Ir  0,C   1)    -79.6766         0.001688   
    209. D(C   4,C   3,Ir  0,N   6)     13.6042         0.001688   
    210. D(C   4,C   3,Ir  0,C  20)    -75.2107         0.001688   
    211. D(H  37,C   3,Ir  0,C   4)    121.3590         0.001688   
    212. D(C   4,C   3,Ir  0,O  31)   -178.2866         0.001688   
    213. D(C   5,C   3,Ir  0,C   4)   -116.7825         0.001688   
    214. D(H  37,C   3,Ir  0,N   6)    134.9632         0.001688   
    215. D(C   4,C   3,Ir  0,C   1)     37.1060         0.001688   
    216. D(C   5,C   3,Ir  0,C   2)    -36.4438         0.001688   
    217. D(C   5,C   3,Ir  0,O  31)     64.9308         0.001688   
    218. D(C   4,C   3,Ir  0,C   5)    116.7825         0.001688   
    219. D(C   5,C   3,Ir  0,N   6)   -103.1784         0.001688   
    220. D(H  37,C   3,Ir  0,C  20)     46.1483         0.001688   
    221. D(H  37,C   3,Ir  0,O  31)    -56.9276         0.001688   
    222. D(C   1,C   4,Ir  0,C  20)   -132.1863         0.001703   
    223. D(C   1,C   4,Ir  0,C   2)     37.8148         0.001703   
    224. D(C   3,C   4,Ir  0,C   2)    -80.3079         0.001703   
    225. D(C   1,C   4,Ir  0,C   5)     80.3810         0.001703   
    226. D(C   1,C   4,Ir  0,N   6)    -57.3898         0.001703   
    227. D(C   3,C   4,Ir  0,C   5)    -37.7417         0.001703   
    228. D(C   3,C   4,Ir  0,C   1)   -118.1227         0.001703   
    229. D(C   1,C   4,Ir  0,O  31)    121.3946         0.001703   
    230. D(C   1,C   4,Ir  0,C   3)    118.1227         0.001703   
    231. D(H  38,C   4,C   1,Ir  0)   -118.2790         0.026794   
    232. D(C   3,C   4,Ir  0,C  20)    109.6909         0.001703   
    233. D(C   3,C   4,Ir  0,O  31)      3.2719         0.001703   
    234. D(Ir  0,C   4,C   1,C   2)    -61.3251         0.026794   
    235. D(H  38,C   4,Ir  0,C   1)    120.7905         0.001703   
    236. D(H  38,C   4,Ir  0,C   3)   -121.0867         0.001703   
    237. D(H  38,C   4,Ir  0,C   5)   -158.8284         0.001703   
    238. D(H  38,C   4,Ir  0,N   6)     63.4007         0.001703   
    239. D(H  38,C   4,Ir  0,C  20)    -11.3958         0.001703   
    240. D(H  38,C   4,Ir  0,C   2)    158.6054         0.001703   
    241. D(Ir  0,C   4,C   1,H  27)    118.9979         0.026794   
    242. D(H  38,C   4,Ir  0,O  31)   -117.8148         0.001703   
    243. D(C   3,C   4,C   1,Ir  0)     61.4717         0.026794   
    244. D(C   3,C   4,C   1,C   2)      0.1466         0.026794   
    245. D(H  38,C   4,C   1,C   2)   -179.6041         0.026794   
    246. D(C   3,C   4,Ir  0,N   6)   -175.5125         0.001703   
    247. D(C   3,C   4,C   1,H  27)   -179.5303         0.026794   
    248. D(Ir  0,C   4,C   3,H  37)   -120.8723         0.021529   
    249. D(Ir  0,C   4,C   3,C   5)     62.4239         0.021529   
    250. D(H  38,C   4,C   3,C   5)   -179.3336         0.021529   
    251. D(C   1,C   4,C   3,C   5)      0.9165         0.021529   
    252. D(C   1,C   4,C   3,H  37)    177.6204         0.021529   
    253. D(H  38,C   4,C   3,Ir  0)    118.2426         0.021529   
    254. D(H  38,C   4,C   1,H  27)      0.7189         0.026794   
    255. D(H  38,C   4,C   3,H  37)     -2.6297         0.021529   
    256. D(C   1,C   4,C   3,Ir  0)    -61.5073         0.021529   
    257. D(H  29,C   5,C   2,H  28)     -6.8995         0.024643   
    258. D(C   2,C   5,Ir  0,C   4)    -81.2348         0.001669   
    259. D(C   2,C   5,Ir  0,C   3)   -119.7916         0.001669   
    260. D(C   3,C   5,C   2,C   1)      1.7365         0.024643   
    261. D(C   2,C   5,Ir  0,C  20)   -138.1500         0.001669   
    262. D(C   2,C   5,Ir  0,O  31)    117.3583         0.001669   
    263. D(H  29,C   5,Ir  0,O  31)     -2.6694         0.001669   
    264. D(C   3,C   5,Ir  0,C   2)    119.7916         0.001669   
    265. D(C   3,C   5,Ir  0,C   4)     38.5568         0.001669   
    266. D(C   3,C   5,Ir  0,N   6)    154.2664         0.001669   
    267. D(C   3,C   5,Ir  0,C  20)    -18.3584         0.001669   
    268. D(C   3,C   5,Ir  0,O  31)   -122.8501         0.001669   
    269. D(H  29,C   5,Ir  0,C   1)   -158.6166         0.001669   
    270. D(H  29,C   5,Ir  0,C   2)   -120.0277         0.001669   
    271. D(H  29,C   5,Ir  0,C   3)    120.1807         0.001669   
    272. D(H  29,C   5,Ir  0,C   4)    158.7375         0.001669   
    273. D(H  29,C   5,Ir  0,N   6)    -85.5529         0.001669   
    274. D(C   3,C   5,Ir  0,C   1)     81.2027         0.001669   
    275. D(H  29,C   5,Ir  0,C  20)    101.8223         0.001669   
    276. D(Ir  0,C   5,C   2,C   1)     61.6802         0.024643   
    277. D(Ir  0,C   5,C   2,H  28)   -122.8029         0.024643   
    278. D(C   2,C   5,Ir  0,N   6)     34.4748         0.001669   
    279. D(C   3,C   5,C   2,Ir  0)    -59.9437         0.024643   
    280. D(H  29,C   5,C   2,Ir  0)    115.9034         0.024643   
    281. D(C   3,C   5,C   2,H  28)    177.2534         0.024643   
    282. D(C   2,C   5,Ir  0,C   1)    -38.5889         0.001669   
    283. D(H  29,C   5,C   2,C   1)    177.5836         0.024643   
    284. D(H  29,C   5,C   3,H  37)      5.7927         0.025610   
    285. D(Ir  0,C   5,C   3,H  37)    121.7526         0.025610   
    286. D(C   2,C   5,C   3,Ir  0)     59.8828         0.025610   
    287. D(C   2,C   5,C   3,C   4)     -1.6476         0.025610   
    288. D(C   2,C   5,C   3,H  37)   -178.3646         0.025610   
    289. D(H  29,C   5,C   3,Ir  0)   -115.9599         0.025610   
    290. D(Ir  0,C   5,C   3,C   4)    -61.5304         0.025610   
    291. D(H  29,C   5,C   3,C   4)   -177.4903         0.025610   
    292. D(C   7,N   6,Ir  0,C   1)     80.1218         0.001769   
    293. D(C   7,N   6,Ir  0,C   2)     40.6237         0.001769   
    294. D(C   7,N   6,Ir  0,C   3)    101.6372         0.001769   
    295. D(C   7,N   6,Ir  0,C   4)    112.1230         0.001769   
    296. D(C   7,N   6,Ir  0,C   5)     18.9748         0.001769   
    297. D(C   7,N   6,Ir  0,C  20)   -165.8799         0.001769   
    298. D(C   7,N   6,Ir  0,O  31)    -67.2832         0.001769   
    299. D(C  17,N   6,Ir  0,C   1)    -99.8232         0.001769   
    300. D(C  17,N   6,Ir  0,C   2)   -139.3212         0.001769   
    301. D(C  17,N   6,Ir  0,C   3)    -78.3078         0.001769   
    302. D(C  17,N   6,Ir  0,C   4)    -67.8220         0.001769   
    303. D(C  17,N   6,Ir  0,C   5)   -160.9702         0.001769   
    304. D(C  17,N   6,Ir  0,C  20)     14.1751         0.001769   
    305. D(C  17,N   6,Ir  0,O  31)    112.7719         0.001769   
    306. D(C   8,C   7,N   6,Ir  0)    149.3283         0.014590   
    307. D(C   8,C   7,N   6,C  17)    -30.7294         0.014590   
    308. D(C  12,C   7,N   6,Ir  0)    -85.3592         0.014590   
    309. D(C  12,C   7,N   6,C  17)     94.5830         0.014590   
    310. D(H  13,C   7,N   6,Ir  0)     31.3892         0.014590   
    311. D(H  13,C   7,N   6,C  17)   -148.6686         0.014590   
    312. D(H   9,C   8,C   7,N   6)   -170.0258         0.011754   
    313. D(H   9,C   8,C   7,C  12)     65.7112         0.011754   
    314. D(H   9,C   8,C   7,H  13)    -53.7739         0.011754   
    315. D(H  10,C   8,C   7,N   6)     71.8486         0.011754   
    316. D(H  10,C   8,C   7,C  12)    -52.4145         0.011754   
    317. D(H  10,C   8,C   7,H  13)   -171.8995         0.011754   
    318. D(H  11,C   8,C   7,N   6)    -51.3646         0.011754   
    319. D(H  11,C   8,C   7,C  12)   -175.6277         0.011754   
    320. D(H  11,C   8,C   7,H  13)     64.8873         0.011754   
    321. D(H  14,C  12,C   7,N   6)    175.4226         0.011579   
    322. D(H  14,C  12,C   7,C   8)    -57.9173         0.011579   
    323. D(H  14,C  12,C   7,H  13)     61.0664         0.011579   
    324. D(H  15,C  12,C   7,N   6)    -65.3236         0.011579   
    325. D(H  15,C  12,C   7,C   8)     61.3365         0.011579   
    326. D(H  15,C  12,C   7,H  13)   -179.6798         0.011579   
    327. D(H  16,C  12,C   7,N   6)     55.8945         0.011579   
    328. D(H  16,C  12,C   7,C   8)   -177.4455         0.011579   
    329. D(H  16,C  12,C   7,H  13)    -58.4618         0.011579   
    330. D(C  18,C  17,N   6,Ir  0)     -4.3037         0.059506   
    331. D(C  18,C  17,N   6,C   7)    175.7512         0.059506   
    332. D(H  19,C  17,N   6,Ir  0)    177.3632         0.059506   
    333. D(H  19,C  17,N   6,C   7)     -2.5819         0.059506   
    334. D(C  20,C  18,C  17,N   6)    -16.7312         0.019446   
    335. D(C  20,C  18,C  17,H  19)    161.6022         0.019446   
    336. D(S  22,C  18,C  17,N   6)    159.2169         0.019446   
    337. D(S  22,C  18,C  17,H  19)    -22.4497         0.019446   
    338. D(C  18,C  20,Ir  0,C   1)     75.9183         0.001601   
    339. D(H  24,C  20,C  18,C  17)    -59.7368         0.029613   
    340. D(C  18,C  20,Ir  0,C   3)    143.7377         0.001601   
    341. D(C  18,C  20,Ir  0,C   4)    106.4058         0.001601   
    342. D(Ir  0,C  20,C  18,C  17)     26.2400         0.029613   
    343. D(C  18,C  20,Ir  0,N   6)    -20.2022         0.001601   
    344. D(C  18,C  20,Ir  0,O  31)   -101.5368         0.001601   
    345. D(H  24,C  20,Ir  0,C   4)   -141.3541         0.001601   
    346. D(C  21,C  20,Ir  0,C   2)    -52.7734         0.001601   
    347. D(C  21,C  20,Ir  0,C   3)      5.4533         0.001601   
    348. D(C  21,C  20,Ir  0,C   4)    -31.8786         0.001601   
    349. D(C  21,C  20,Ir  0,C   5)     16.9448         0.001601   
    350. D(C  21,C  20,Ir  0,N   6)   -158.4865         0.001601   
    351. D(C  21,C  20,Ir  0,O  31)    120.1789         0.001601   
    352. D(H  24,C  20,Ir  0,C   1)   -171.8416         0.001601   
    353. D(H  24,C  20,Ir  0,C   2)   -162.2489         0.001601   
    354. D(C  21,C  20,Ir  0,C   1)    -62.3660         0.001601   
    355. D(H  24,C  20,Ir  0,C   3)   -104.0222         0.001601   
    356. D(H  24,C  20,Ir  0,C   5)    -92.5307         0.001601   
    357. D(H  24,C  20,Ir  0,N   6)     92.0379         0.001601   
    358. D(C  18,C  20,Ir  0,C   5)    155.2292         0.001601   
    359. D(H  24,C  20,Ir  0,O  31)     10.7033         0.001601   
    360. D(Ir  0,C  20,C  18,S  22)   -150.2511         0.029613   
    361. D(C  21,C  20,C  18,C  17)    175.2559         0.029613   
    362. D(C  18,C  20,Ir  0,C   2)     85.5110         0.001601   
    363. D(C  21,C  20,C  18,S  22)     -1.2352         0.029613   
    364. D(H  24,C  20,C  18,S  22)    123.7721         0.029613   
    365. D(C  23,C  21,C  20,Ir  0)    137.9848         0.022688   
    366. D(C  23,C  21,C  20,C  18)      1.1468         0.022688   
    367. D(C  23,C  21,C  20,H  24)   -125.6161         0.022688   
    368. D(H  25,C  21,C  20,Ir  0)    -45.7028         0.022688   
    369. D(H  25,C  21,C  20,C  18)    177.4591         0.022688   
    370. D(H  25,C  21,C  20,H  24)     50.6963         0.022688   
    371. D(C  23,S  22,C  18,C  17)   -175.3531         0.005775   
    372. D(C  23,S  22,C  18,C  20)      0.7967         0.005775   
    373. D(S  22,C  23,C  21,C  20)     -0.5752         0.033204   
    374. D(S  22,C  23,C  21,H  25)   -176.9477         0.033204   
    375. D(H  26,C  23,C  21,C  20)    178.0579         0.033204   
    376. D(H  26,C  23,C  21,H  25)      1.6854         0.033204   
    377. D(C  21,C  23,S  22,C  18)     -0.1153         0.005503   
    378. D(H  26,C  23,S  22,C  18)   -178.8702         0.005503   
    379. D(O  30,H  24,C  20,Ir  0)   -132.8195         0.016500   
    380. D(O  30,H  24,C  20,C  18)    -30.4264         0.016500   
    381. D(O  30,H  24,C  20,C  21)     94.2560         0.016500   
    382. D(C  32,O  30,H  24,C  20)    123.9874         0.012854   
    383. D(C  32,O  31,Ir  0,C   1)    172.0463         0.001830   
    384. D(C  32,O  31,Ir  0,C   2)    164.4951         0.001830   
    385. D(C  32,O  31,Ir  0,C   3)     95.0315         0.001830   
    386. D(C  32,O  31,Ir  0,C   4)     92.8166         0.001830   
    387. D(C  32,O  31,Ir  0,C   5)    128.9948         0.001830   
    388. D(C  32,O  31,Ir  0,N   6)    -88.1756         0.001830   
    389. D(C  32,O  31,Ir  0,C  20)    -12.2337         0.001830   
    390. D(O  31,C  32,O  30,H  24)      1.9391         0.071408   
    391. D(C  33,C  32,O  30,H  24)   -179.3049         0.071408   
    392. D(O  30,C  32,O  31,Ir  0)      4.7373         0.059395   
    393. D(C  33,C  32,O  31,Ir  0)   -174.0363         0.059395   
    394. D(H  34,C  33,C  32,O  30)     39.8680         0.012951   
    395. D(H  34,C  33,C  32,O  31)   -141.2983         0.012951   
    396. D(H  35,C  33,C  32,O  30)    -77.5115         0.012951   
    397. D(H  35,C  33,C  32,O  31)    101.3222         0.012951   
    398. D(H  36,C  33,C  32,O  30)    162.8777         0.012951   
    399. D(H  36,C  33,C  32,O  31)    -18.2886         0.012951   
    -----------------------------------------------------------------

Number of atoms                         .... 39
Number of degrees of freedom            .... 399

         *************************************************************
         *                GEOMETRY OPTIMIZATION CYCLE   1            *
         *************************************************************
---------------------------------
CARTESIAN COORDINATES (ANGSTROEM)
---------------------------------
  Ir     0.604703   -0.730778    0.457008
  C      0.115287   -2.834456    0.356098
  C     -0.078599   -2.368267    1.705101
  C      2.152097   -2.083672    1.153034
  C      1.475295   -2.658399    0.020094
  C      1.189662   -1.934679    2.184142
  N     -1.060134    0.115645   -0.507495
  C     -2.342241    0.316869    0.187777
  C     -3.133350    1.514613   -0.319257
  H     -3.968349    1.695933    0.355763
  H     -3.563053    1.352302   -1.308638
  H     -2.529160    2.421760   -0.343394
  C     -3.165247   -0.964330    0.115373
  H     -2.074665    0.505538    1.228479
  H     -4.080196   -0.851908    0.695711
  H     -3.448739   -1.191509   -0.913152
  H     -2.626615   -1.821299    0.516641
  C     -0.904035    0.446588   -1.730311
  C      0.412480    0.286060   -2.257779
  H     -1.716797    0.852081   -2.325236
  C      1.480962    0.136817   -1.382152
  C      2.678372   -0.117073   -2.109504
  S      0.859329    0.156336   -3.895107
  C      2.488979   -0.125657   -3.460014
  H      1.642936    1.162905   -0.552960
  H      3.651961   -0.230162   -1.655157
  H      3.232428   -0.264410   -4.230332
  H     -0.643335   -3.252573   -0.289396
  H     -0.991983   -2.410770    2.278857
  H      1.374045   -1.494230    3.153933
  O      1.748224    2.260900    0.161651
  O      0.550866    1.021193    1.550613
  C      1.133002    2.099794    1.231258
  C      1.090937    3.225598    2.220274
  H      0.964434    4.177539    1.709279
  H      2.045496    3.268905    2.747462
  H      0.301608    3.086561    2.953390
  H      3.205379   -1.861363    1.227048
  H      1.927387   -2.909209   -0.928358

----------------------------
CARTESIAN COORDINATES (A.U.)
----------------------------
  NO LB      ZA    FRAG     MASS         X           Y           Z
   0 Ir   17.0000*   0   192.220    1.142723   -1.380970    0.863621
   1 C     6.0000    0    12.011    0.217861   -5.356346    0.672927
   2 C     6.0000    0    12.011   -0.148530   -4.475376    3.222173
   3 C     6.0000    0    12.011    4.066873   -3.937570    2.178919
   4 C     6.0000    0    12.011    2.787904   -5.023647    0.037971
   5 C     6.0000    0    12.011    2.248135   -3.656013    4.127430
   6 N     7.0000    0    14.007   -2.003363    0.218537   -0.959027
   7 C     6.0000    0    12.011   -4.426194    0.598795    0.354846
   8 C     6.0000    0    12.011   -5.921173    2.862204   -0.603309
   9 H     1.0000    0     1.008   -7.499093    3.204848    0.672294
  10 H     1.0000    0     1.008   -6.733195    2.555480   -2.472967
  11 H     1.0000    0     1.008   -4.779420    4.576463   -0.648920
  12 C     6.0000    0    12.011   -5.981451   -1.822319    0.218023
  13 H     1.0000    0     1.008   -3.920549    0.955329    2.321490
  14 H     1.0000    0     1.008   -7.710453   -1.609873    1.314704
  15 H     1.0000    0     1.008   -6.517172   -2.251625   -1.725607
  16 H     1.0000    0     1.008   -4.963582   -3.441757    0.976309
  17 C     6.0000    0    12.011   -1.708379    0.843930   -3.269814
  18 C     6.0000    0    12.011    0.779475    0.540575   -4.266585
  19 H     1.0000    0     1.008   -3.244276    1.610199   -4.394060
  20 C     6.0000    0    12.011    2.798613    0.258546   -2.611889
  21 C     6.0000    0    12.011    5.061389   -0.221236   -3.986386
  22 S    16.0000    0    32.060    1.623896    0.295432   -7.360686
  23 C     6.0000    0    12.011    4.703488   -0.237457   -6.538479
  24 H     1.0000    0     1.008    3.104699    2.197572   -1.044943
  25 H     1.0000    0     1.008    6.901207   -0.434943   -3.127793
  26 H     1.0000    0     1.008    6.108403   -0.499663   -7.994170
  27 H     1.0000    0     1.008   -1.215728   -6.146473   -0.546880
  28 H     1.0000    0     1.008   -1.874576   -4.555695    4.306415
  29 H     1.0000    0     1.008    2.596568   -2.823686    5.960070
  30 O     8.0000    0    15.999    3.303664    4.272482    0.305475
  31 O     8.0000    0    15.999    1.040986    1.929776    2.930233
  32 C     6.0000    0    12.011    2.141063    3.968035    2.326741
  33 C     6.0000    0    12.011    2.061573    6.095496    4.195709
  34 H     1.0000    0     1.008    1.822516    7.894405    3.230070
  35 H     1.0000    0     1.008    3.865428    6.177335    5.191950
  36 H     1.0000    0     1.008    0.569957    5.832754    5.581099
  37 H     1.0000    0     1.008    6.057289   -3.517467    2.318785
  38 H     1.0000    0     1.008    3.642234   -5.497609   -1.754342
* core charge reduced due to ECP

--------------------------------
INTERNAL COORDINATES (ANGSTROEM)
--------------------------------
 Ir     0   0   0     0.000000000000     0.00000000     0.00000000
 C      1   0   0     2.162622802441     0.00000000     0.00000000
 C      2   1   0     1.440203991829    70.85470022     0.00000000
 C      1   2   3     2.170516112118    64.47658834    80.21627254
 C      2   1   3     1.411059866997    70.85075120   241.97414738
 C      4   1   2     1.416895918730    71.60473375   280.33696019
 N      1   2   3     2.101646511751   101.07843652   253.89092626
 C      7   1   2     1.472299881823   121.80907719    80.03567399
 C      8   7   1     1.522335611572   113.75208147   149.31686033
 H      9   8   7     1.088916804081   108.84630230   189.97429423
 H      9   8   7     1.090805545250   112.93762689    71.84873373
 H      9   8   7     1.090201434258   111.96537516   308.63526773
 C      8   7   1     1.524482508067   109.44034970   274.62936644
 H      8   7   1     1.090984668834   105.10126968    31.37801078
 H     13   8   7     1.089288174400   109.96288862   175.42263946
 H     13   8   7     1.090795012527   111.10784809   294.67647318
 H     13   8   7     1.088818888829   112.14120537    55.89453614
 C      7   1   2     1.282226993004   116.68986352   260.06923136
 C     18   7   1     1.432924318534   116.65351591   355.47088121
 H     18   7   1     1.085782020217   121.67309972   177.28488680
 C     19  18   7     1.389009252160   119.23241561   343.30468605
 C     21  19  18     1.423366149151   110.26466588   175.22767643
 S     19  18   7     1.702146735571   127.41355372   159.30278706
 C     22  21  19     1.363915137641   112.87571997     1.23587493
 H     21  19  18     1.328883306287   113.77015634   300.71665869
 H     22  21  19     1.080293892822   124.21623089   177.55854060
 H     24  22  21     1.079476282482   127.71667210   178.04810110
 H      2   1   3     1.080274019665   124.27540950   121.32796388
 H      3   2   1     1.079473130047   126.79497943   122.04353520
 H      6   4   1     1.080963172892   125.39650208   244.04317621
 O     25  21  19     1.328571428233   173.91229345   329.14523327
 O      1   2   3     2.066288572940   147.60742162   348.59469060
 C     31  25  21     1.248233928160   108.86481149   123.67607496
 C     33  31  25     1.499112817716   118.69709032   180.80167710
 H     34  33  31     1.087797018514   110.52030548    39.85015128
 H     34  33  31     1.091322203365   108.90227531   282.47061944
 H     34  33  31     1.086197722323   111.68722383   162.85963893
 H      4   1   2     1.079025510630   126.11136524   158.48215514
 H      5   2   1     1.080201903370   125.66676793   241.73237471

---------------------------
INTERNAL COORDINATES (A.U.)
---------------------------
 Ir     0   0   0     0.000000000000     0.00000000     0.00000000
 C      1   0   0     4.086764827586     0.00000000     0.00000000
 C      2   1   0     2.721591121538    70.85470022     0.00000000
 C      1   2   3     4.101681021167    64.47658834    80.21627254
 C      2   1   3     2.666516707192    70.85075120   241.97414738
 C      4   1   2     2.677545246670    71.60473375   280.33696019
 N      1   2   3     3.971536337520   101.07843652   253.89092626
 C      7   1   2     2.782243563650   121.80907719    80.03567399
 C      8   7   1     2.876797389786   113.75208147   149.31686033
 H      9   8   7     2.057754542338   108.84630230   189.97429423
 H      9   8   7     2.061323745885   112.93762689    71.84873373
 H      9   8   7     2.060182141556   111.96537516   308.63526773
 C      8   7   1     2.880854436200   109.44034970   274.62936644
 H      8   7   1     2.061662240403   105.10126968    31.37801078
 H     13   8   7     2.058456330535   109.96288862   175.42263946
 H     13   8   7     2.061303841924   111.10784809   294.67647318
 H     13   8   7     2.057569509327   112.14120537    55.89453614
 C      7   1   2     2.423057858299   116.68986352   260.06923136
 C     18   7   1     2.707834532665   116.65351591   355.47088121
 H     18   7   1     2.051830659346   121.67309972   177.28488680
 C     19  18   7     2.624847084065   119.23241561   343.30468605
 C     21  19  18     2.689772210189   110.26466588   175.22767643
 S     19  18   7     3.216591169977   127.41355372   159.30278706
 C     22  21  19     2.577426080052   112.87571997     1.23587493
 H     21  19  18     2.511225512822   113.77015634   300.71665869
 H     22  21  19     2.041459601580   124.21623089   177.55854060
 H     24  22  21     2.039914541954   127.71667210   178.04810110
 H      2   1   3     2.041422046758   124.27540950   121.32796388
 H      3   2   1     2.039908584716   126.79497943   122.04353520
 H      6   4   1     2.042724357620   125.39650208   244.04317621
 O     25  21  19     2.510636148713   173.91229345   329.14523327
 O      1   2   3     3.904719516508   147.60742162   348.59469060
 C     31  25  21     2.358820275292   108.86481149   123.67607496
 C     33  31  25     2.832912669335   118.69709032   180.80167710
 H     34  33  31     2.055638454288   110.52030548    39.85015128
 H     34  33  31     2.062300088227   108.90227531   282.47061944
 H     34  33  31     2.052616222480   111.68722383   162.85963893
 H      4   1   2     2.039062706604   126.11136524   158.48215514
 H      5   2   1     2.041285766711   125.66676793   241.73237471

---------------------
BASIS SET INFORMATION
---------------------
There are 6 groups of distinct atoms

 Group   1 Type Ir  : 7s6p5d1f contracted to 6s3p2d1f pattern {211111/411/41/1}
 Group   2 Type C   : 8s4p1d contracted to 4s2p1d pattern {5111/31/1}
 Group   3 Type N   : 8s4p1d contracted to 4s2p1d pattern {5111/31/1}
 Group   4 Type H   : 4s contracted to 2s pattern {31}
 Group   5 Type S   : 10s7p1d contracted to 4s3p1d pattern {5311/511/1}
 Group   6 Type O   : 8s4p1d contracted to 4s2p1d pattern {5111/31/1}

Atom   0Ir   basis set group =>   1
Atom   1C    basis set group =>   2
Atom   2C    basis set group =>   2
Atom   3C    basis set group =>   2
Atom   4C    basis set group =>   2
Atom   5C    basis set group =>   2
Atom   6N    basis set group =>   3
Atom   7C    basis set group =>   2
Atom   8C    basis set group =>   2
Atom   9H    basis set group =>   4
Atom  10H    basis set group =>   4
Atom  11H    basis set group =>   4
Atom  12C    basis set group =>   2
Atom  13H    basis set group =>   4
Atom  14H    basis set group =>   4
Atom  15H    basis set group =>   4
Atom  16H    basis set group =>   4
Atom  17C    basis set group =>   2
Atom  18C    basis set group =>   2
Atom  19H    basis set group =>   4
Atom  20C    basis set group =>   2
Atom  21C    basis set group =>   2
Atom  22S    basis set group =>   5
Atom  23C    basis set group =>   2
Atom  24H    basis set group =>   4
Atom  25H    basis set group =>   4
Atom  26H    basis set group =>   4
Atom  27H    basis set group =>   4
Atom  28H    basis set group =>   4
Atom  29H    basis set group =>   4
Atom  30O    basis set group =>   6
Atom  31O    basis set group =>   6
Atom  32C    basis set group =>   2
Atom  33C    basis set group =>   2
Atom  34H    basis set group =>   4
Atom  35H    basis set group =>   4
Atom  36H    basis set group =>   4
Atom  37H    basis set group =>   4
Atom  38H    basis set group =>   4
---------------------------------
AUXILIARY/J BASIS SET INFORMATION
---------------------------------
There are 6 groups of distinct atoms

 Group   1 Type Ir  : 11s5p5d3f3g contracted to 8s5p5d2f3g pattern {41111111/11111/11111/21/111}
 Group   2 Type C   : 12s5p4d2f1g contracted to 6s4p3d1f1g pattern {711111/2111/211/2/1}
 Group   3 Type N   : 12s5p4d2f1g contracted to 6s4p3d1f1g pattern {711111/2111/211/2/1}
 Group   4 Type H   : 5s2p1d contracted to 3s1p1d pattern {311/2/1}
 Group   5 Type S   : 14s5p5d2f1g contracted to 8s4p3d1f1g pattern {71111111/2111/311/2/1}
 Group   6 Type O   : 12s5p4d2f1g contracted to 6s4p3d1f1g pattern {711111/2111/211/2/1}

Atom   0Ir   basis set group =>   1
Atom   1C    basis set group =>   2
Atom   2C    basis set group =>   2
Atom   3C    basis set group =>   2
Atom   4C    basis set group =>   2
Atom   5C    basis set group =>   2
Atom   6N    basis set group =>   3
Atom   7C    basis set group =>   2
Atom   8C    basis set group =>   2
Atom   9H    basis set group =>   4
Atom  10H    basis set group =>   4
Atom  11H    basis set group =>   4
Atom  12C    basis set group =>   2
Atom  13H    basis set group =>   4
Atom  14H    basis set group =>   4
Atom  15H    basis set group =>   4
Atom  16H    basis set group =>   4
Atom  17C    basis set group =>   2
Atom  18C    basis set group =>   2
Atom  19H    basis set group =>   4
Atom  20C    basis set group =>   2
Atom  21C    basis set group =>   2
Atom  22S    basis set group =>   5
Atom  23C    basis set group =>   2
Atom  24H    basis set group =>   4
Atom  25H    basis set group =>   4
Atom  26H    basis set group =>   4
Atom  27H    basis set group =>   4
Atom  28H    basis set group =>   4
Atom  29H    basis set group =>   4
Atom  30O    basis set group =>   6
Atom  31O    basis set group =>   6
Atom  32C    basis set group =>   2
Atom  33C    basis set group =>   2
Atom  34H    basis set group =>   4
Atom  35H    basis set group =>   4
Atom  36H    basis set group =>   4
Atom  37H    basis set group =>   4
Atom  38H    basis set group =>   4
-------------------------
ECP PARAMETER INFORMATION
-------------------------

 Group 1, Type Ir ECP Def2-ECP (replacing 60 core electrons, lmax=3)

Atom   0Ir   ECP group =>   1

------------------------------------------------------------------------------
                           ORCA GTO INTEGRAL CALCULATION
                           -- RI-GTO INTEGRALS CHOSEN --
------------------------------------------------------------------------------
------------------------------------------------------------------------------
                   ___                                                        
                  /   \      - P O W E R E D   B Y -                         
                 /     \                                                     
                 |  |  |   _    _      __       _____    __    __             
                 |  |  |  | |  | |    /  \     |  _  \  |  |  /  |          
                  \  \/   | |  | |   /    \    | | | |  |  | /  /          
                 / \  \   | |__| |  /  /\  \   | |_| |  |  |/  /          
                |  |  |   |  __  | /  /__\  \  |    /   |      \           
                |  |  |   | |  | | |   __   |  |    \   |  |\   \          
                \     /   | |  | | |  |  |  |  | |\  \  |  | \   \       
                 \___/    |_|  |_| |__|  |__|  |_| \__\ |__|  \__/        
                                                                              
                      - O R C A' S   B I G   F R I E N D -                    
                                      &                                       
                       - I N T E G R A L  F E E D E R -                       
                                                                              
 v1 FN, 2020, v2 2021                                                         
------------------------------------------------------------------------------


Reading SHARK input file reaction4-IEIP_ts_guess_scan_9-13_orca.SHARKINP.tmp ... ok
----------------------
SHARK INTEGRAL PACKAGE
----------------------

Number of atoms                             ...     39
Number of basis functions                   ...    358
Number of shells                            ...    184
Maximum angular momentum                    ...      3
Integral batch strategy                     ... SHARK/LIBINT Hybrid
RI-J (if used) integral strategy            ... SPLIT-RIJ (Revised 2003 algorithm where possible)
Printlevel                                  ...      1
Contraction scheme used                     ... SEGMENTED contraction
Coulomb Range Separation                    ... NOT USED
Exchange Range Separation                   ... NOT USED
Finite Nucleus Model                        ... NOT USED
Auxiliary Coulomb fitting basis             ... AVAILABLE
   # of basis functions in Aux-J            ...   1231
   # of shells in Aux-J                     ...    405
   Maximum angular momentum in Aux-J        ...      4
Auxiliary J/K fitting basis                 ... NOT available
Auxiliary Correlation fitting basis         ... NOT available
Auxiliary 'external' fitting basis          ... NOT available
Integral threshold                          ...     2.500000e-11
Primitive cut-off                           ...     2.500000e-12
Primitive pair pre-selection threshold      ...     2.500000e-12

Calculating pre-screening integrals         ... done (  0.1 sec) Dimension = 184
Organizing shell pair data                  ... done (  0.2 sec)
Shell pair information
Total number of shell pairs                 ...     17020
Shell pairs after pre-screening             ...     12957
Total number of primitive shell pairs       ...     60705
Primitive shell pairs kept                  ...     29148
          la=0 lb=0:   4964 shell pairs
          la=1 lb=0:   4259 shell pairs
          la=1 lb=1:    859 shell pairs
          la=2 lb=0:   1743 shell pairs
          la=2 lb=1:    783 shell pairs
          la=2 lb=2:    175 shell pairs
          la=3 lb=0:    111 shell pairs
          la=3 lb=1:     41 shell pairs
          la=3 lb=2:     21 shell pairs
          la=3 lb=3:      1 shell pairs

Calculating one electron integrals          ... done (  0.1 sec)
Calculating ECP integrals                   ... done (  0.9 sec)
Calculating RI/J V-Matrix + Cholesky decomp.... done (  0.1 sec)
Calculating Nuclear repulsion               ... done (  0.0 sec) ENN=   2032.225421956872 Eh

SHARK setup successfully completed in   1.9 seconds

Maximum memory used throughout the entire GTOINT-calculation: 90.4 MB
-------------------------------------------------------------------------------
                                 ORCA SCF
-------------------------------------------------------------------------------

------------
SCF SETTINGS
------------
Hamiltonian:
 Density Functional     Method          .... DFT(GTOs)
 Exchange Functional    Exchange        .... PBE
   PBE kappa parameter   XKappa         ....  1.024500
   PBE mue parameter    XMuePBE         ....  0.123457
 Correlation Functional Correlation     .... PBE
   PBE beta parameter  CBetaPBE         ....  0.030000
 LDA part of GGA corr.  LDAOpt          .... PW91-LDA
 Gradients option       PostSCFGGA      .... off
 Hybrid DFT is turned on
   Fraction HF Exchange ScalHFX         ....  0.420000
   Scaling of DF-GGA-X  ScalDFX         ....  0.580000
   Scaling of DF-GGA-C  ScalDFC         ....  1.000000
   Scaling of DF-LDA-C  ScalLDAC        ....  1.000000
   Perturbative correction              ....  0.000000
   Density functional embedding theory  .... OFF
 RI-approximation to the Coulomb term is turned on
   Number of AuxJ basis functions       .... 1231
   RIJ-ON(X) (HFX calculated with O(N)) .... on
   Number of AuxJ basis functions       .... 1231
   RIJ-COSX (HFX calculated with COS-X)).... on


General Settings:
 Integral files         IntName         .... reaction4-IEIP_ts_guess_scan_9-13_orca
 Hartree-Fock type      HFTyp           .... RHF
 Total Charge           Charge          ....    1
 Multiplicity           Mult            ....    1
 Number of Electrons    NEL             ....  164
 Basis Dimension        Dim             ....  358
 Nuclear Repulsion      ENuc            ....   2032.2254219569 Eh

Convergence Acceleration:
 DIIS                   CNVDIIS         .... on
   Start iteration      DIISMaxIt       ....    12
   Startup error        DIISStart       ....  0.200000
   # of expansion vecs  DIISMaxEq       ....     5
   Bias factor          DIISBfac        ....   1.050
   Max. coefficient     DIISMaxC        ....  10.000
 Trust-Rad. Augm. Hess. CNVTRAH         .... auto
   Auto Start mean grad. ratio tolernc. ....  1.125000
   Auto Start start iteration           ....    20
   Auto Start num. interpolation iter.  ....    10
   Max. Number of Micro iterations      ....    16
   Max. Number of Macro iterations      .... Maxiter - #DIIS iter
   Number of Davidson start vectors     ....     2
   Converg. threshold I  (grad. norm)   ....   1.000e-05
   Converg. threshold II (energy diff.) ....   1.000e-08
   Grad. Scal. Fac. for Micro threshold ....   0.100
   Minimum threshold for Micro iter.    ....   0.010
   NR start threshold (gradient norm)   ....   0.001
   Initial trust radius                 ....   0.400
   Minimum AH scaling param. (alpha)    ....   1.000
   Maximum AH scaling param. (alpha)    .... 1000.000
   Orbital update algorithm             .... Taylor
   White noise on init. David. guess    .... on
   Maximum white noise                  ....   0.010
   Quad. conv. algorithm                .... NR
   COSX micro iterations for RIJONX calc.... off
 SOSCF                  CNVSOSCF        .... off
 Level Shifting         CNVShift        .... on
   Level shift para.    LevelShift      ....    0.2500
   Turn off err/grad.   ShiftErr        ....    0.0010
 Zerner damping         CNVZerner       .... off
 Static damping         CNVDamp         .... on
   Fraction old density DampFac         ....    0.7000
   Max. Damping (<1)    DampMax         ....    0.9800
   Min. Damping (>=0)   DampMin         ....    0.0000
   Turn off err/grad.   DampErr         ....    0.1000
 Fernandez-Rico         CNVRico         .... off

SCF Procedure:
 Maximum # iterations   MaxIter         ....   250
 SCF integral mode      SCFMode         .... Direct
   Integral package                     .... SHARK and LIBINT hybrid scheme
 Reset frequency        DirectResetFreq ....    20
 Integral Threshold     Thresh          ....  2.500e-11 Eh
 Primitive CutOff       TCut            ....  2.500e-12 Eh

Convergence Tolerance:
 Convergence Check Mode ConvCheckMode   .... Total+1el-Energy
 Convergence forced     ConvForced      .... 0
 Energy Change          TolE            ....  1.000e-08 Eh
 1-El. energy change                    ....  1.000e-05 Eh
 DIIS Error             TolErr          ....  5.000e-07


Diagonalization of the overlap matrix:
Smallest eigenvalue                        ... 1.188e-03
Time for diagonalization                   ...    0.037 sec
Threshold for overlap eigenvalues          ... 1.000e-08
Number of eigenvalues below threshold      ... 0
Time for construction of square roots      ...    0.012 sec
Total time needed                          ...    0.050 sec

--------------------
INITIAL GUESS: HCORE
--------------------
                      -----------------
                      INTIAL GUESS DONE 
                      -----------------
-------------------
DFT GRID GENERATION
-------------------

General Integration Accuracy     IntAcc      ... 4.159
Radial Grid Type                 RadialGrid  ... OptM3 with GC (2021)
Angular Grid (max. ang.)         AngularGrid ... 3 (Lebedev-194)
Angular grid pruning method      GridPruning ... 4 (adaptive)
Weight generation scheme         WeightScheme... Becke
Basis function cutoff            BFCut       ... 1.0000e-11
Integration weight cutoff        WCut        ... 1.0000e-14
Angular grids for H and He will be reduced by one unit
Partially contracted basis set               ... off
Rotationally invariant grid construction     ... off

Total number of grid points                  ...    93309
Total number of batches                      ...     1476
Average number of points per batch           ...       63
Average number of grid points per atom       ...     2393
Time for grid setup =    1.796 sec

--------------------
COSX GRID GENERATION
--------------------

GRIDX 1
-------
General Integration Accuracy     IntAcc      ... 3.816
Radial Grid Type                 RadialGrid  ... OptM3 with GC (2021)
Angular Grid (max. ang.)         AngularGrid ... 1 (Lebedev-50)
Angular grid pruning method      GridPruning ... 4 (adaptive)
Weight generation scheme         WeightScheme... Becke
Basis function cutoff            BFCut       ... 1.0000e-11
Integration weight cutoff        WCut        ... 1.0000e-14
Angular grids for H and He will be reduced by one unit
Partially contracted basis set               ... on
Rotationally invariant grid construction     ... off

Total number of grid points                  ...    23217
Total number of batches                      ...      382
Average number of points per batch           ...       60
Average number of grid points per atom       ...      595
UseSFitting                                  ... on

GRIDX 2
-------
General Integration Accuracy     IntAcc      ... 4.020
Radial Grid Type                 RadialGrid  ... OptM3 with GC (2021)
Angular Grid (max. ang.)         AngularGrid ... 2 (Lebedev-110)
Angular grid pruning method      GridPruning ... 4 (adaptive)
Weight generation scheme         WeightScheme... Becke
Basis function cutoff            BFCut       ... 1.0000e-11
Integration weight cutoff        WCut        ... 1.0000e-14
Angular grids for H and He will be reduced by one unit
Partially contracted basis set               ... on
Rotationally invariant grid construction     ... off

Total number of grid points                  ...    50343
Total number of batches                      ...      803
Average number of points per batch           ...       62
Average number of grid points per atom       ...     1291
UseSFitting                                  ... on

GRIDX 3
-------
General Integration Accuracy     IntAcc      ... 4.338
Radial Grid Type                 RadialGrid  ... OptM3 with GC (2021)
Angular Grid (max. ang.)         AngularGrid ... 3 (Lebedev-194)
Angular grid pruning method      GridPruning ... 4 (adaptive)
Weight generation scheme         WeightScheme... Becke
Basis function cutoff            BFCut       ... 1.0000e-11
Integration weight cutoff        WCut        ... 1.0000e-14
Angular grids for H and He will be reduced by one unit
Partially contracted basis set               ... on
Rotationally invariant grid construction     ... off

Total number of grid points                  ...   108795
Total number of batches                      ...     1717
Average number of points per batch           ...       63
Average number of grid points per atom       ...     2790
UseSFitting                                  ... on

Time for X-Grid setup             =    4.755 sec

--------------
SCF ITERATIONS
--------------
ITER       Energy         Delta-E        Max-DP      RMS-DP      [F,P]     Damp
               ***  Starting incremental Fock matrix formation  ***
  0   -856.6022786866   0.00000000000020.54777194  0.15578141  2.6929204 0.7000
  1  -1091.8101706275-235.20789194080912.27293476  0.14529623  1.4879280 0.7000
  2  -1160.1872582329 -68.377087605439 5.32689623  0.06959818  1.0266429 0.7000
  3  -1188.8081301518 -28.620871918862 3.68350309  0.04705646  0.7301784 0.7000
  4  -1208.9903016132 -20.182171461475 2.61418814  0.03866761  0.4459962 0.7000
  5  -1224.5194466933 -15.529145080044 2.53038440  0.03040686  0.3403245 0.7000
  6  -1234.3591267711  -9.839680077831 1.60902352  0.02919770  0.3382406 0.7000
  7  -1241.9994311395  -7.640304368392 2.00467811  0.02521781  0.3323347 0.7000
  8  -1246.8486656745  -4.849234534958 1.46529442  0.02523761  0.3891419 0.7000
  9  -1250.7692633271  -3.920597652683 1.70959797  0.02398062  0.3591725 0.7000
 10  -1253.0819480502  -2.312684723071 1.40927215  0.02410313  0.4150323 0.7000
 11  -1255.1589678784  -2.077019828146 1.57842629  0.02372963  0.3710025 0.7000
                               ***Turning on DIIS***
 12  -1256.2346450040  -1.075677125638 1.38747202  0.02380175  0.4267042 0.7000
 13  -1257.3586223530  -1.123977348998 1.39575105  0.02031878  0.3764736 0.7000
 14  -1267.7322336306 -10.373611277606 0.97966073  0.01442313  0.2541136 0.7000
 15  -1274.1407513879  -6.408517757330 0.69242587  0.01026644  0.1749720 0.7000
 16  -1278.3167294770  -4.175978089120 1.60382885  0.02422770  0.0900873 0.0000
 17  -1287.5930014414  -9.276271964361 0.02761203  0.00062970  0.1999203 0.7000
 18  -1287.7619499661  -0.168948524714 0.03129648  0.00075286  0.1615376 0.7000
 19  -1287.9294779507  -0.167527984618 0.02781614  0.00080501  0.1373012 0.7000
               *** Restarting incremental Fock matrix formation ***
                                   *** Resetting DIIS ***
 20  -1288.0812183502  -0.151740399419 0.05735530  0.00149262  0.1093006 0.7000
 21  -1288.2394013900  -0.158183039890 0.10809673  0.00291186  0.0409259 0.0000
 22  -1288.4133457375  -0.173944347501 0.02133995  0.00076151  0.0520107 0.0000
 23  -1288.4464546817  -0.033108944139 0.01977720  0.00040778  0.0147923 0.0000
 24  -1288.4510763372  -0.004621655469 0.01232981  0.00019374  0.0091136 0.0000
 25  -1288.4519822744  -0.000905937204 0.00485019  0.00006931  0.0033707 0.0000
 26  -1288.4521694404  -0.000187166061 0.00277042  0.00005723  0.0009810 0.0000
               *** Restarting incremental Fock matrix formation ***
                                   *** Resetting DIIS ***
 27  -1288.4529888464  -0.000819405949 0.00562697  0.00010011  0.0008381 0.0000
 28  -1288.4530033916  -0.000014545206 0.00091191  0.00001357  0.0014830 0.0000
 29  -1288.4530167572  -0.000013365666 0.00041493  0.00000881  0.0001235 0.0000
 30  -1288.4530175011  -0.000000743822 0.00014132  0.00000236  0.0001144 0.0000
 31  -1288.4530176116  -0.000000110573 0.00014099  0.00000162  0.0001086 0.0000
 32  -1288.4530176649  -0.000000053289 0.00009349  0.00000089  0.0000323 0.0000
 33  -1288.4530176784  -0.000000013438 0.00005935  0.00000046  0.0000240 0.0000
 34  -1288.4530176819  -0.000000003503 0.00002448  0.00000020  0.0000143 0.0000
 35  -1288.4530176859  -0.000000004025 0.00001999  0.00000017  0.0000072 0.0000
 36  -1288.4530176819   0.000000003950 0.00000401  0.00000005  0.0000022 0.0000
 37  -1288.4530176841  -0.000000002112 0.00000268  0.00000003  0.0000016 0.0000
 38  -1288.4530176954  -0.000000011389 0.00000239  0.00000003  0.0000016 0.0000
                            ***DIIS convergence achieved***

               *****************************************************
               *                     SUCCESS                       *
               *           SCF CONVERGED AFTER  39 CYCLES          *
               *****************************************************

Old exchange energy                            =    -59.648962852 Eh
New exchange energy                            =    -59.649024580 Eh
Exchange energy change after final integration =     -0.000061728 Eh
Total energy after final integration           =  -1288.453079421 Eh
Final COS-X integration done in                =    60.337 sec

----------------
TOTAL SCF ENERGY
----------------

Total Energy       :        -1288.45307942 Eh          -35060.59074 eV

Components:
Nuclear Repulsion  :         2032.22542196 Eh           55299.66511 eV
Electronic Energy  :        -3320.67850138 Eh          -90360.25585 eV
One Electron Energy:        -5820.09730483 Eh         -158372.89919 eV
Two Electron Energy:         2499.41880345 Eh           68012.64334 eV
Max COSX asymmetry :            0.00002599 Eh               0.00071 eV

Virial components:
Potential Energy   :        -2501.50801697 Eh          -68069.49373 eV
Kinetic Energy     :         1213.05493755 Eh           33008.90299 eV
Virial Ratio       :            2.06215559


DFT components:
N(Alpha)           :       82.000250369956 electrons
N(Beta)            :       82.000250369956 electrons
N(Total)           :      164.000500739911 electrons
E(X)               :      -79.587785988343 Eh       
E(C)               :       -7.458559503922 Eh       
E(XC)              :      -87.046345492264 Eh       
DFET-embed. en.    :        0.000000000000 Eh       

---------------
SCF CONVERGENCE
---------------

  Last Energy change         ...    2.6337e-09  Tolerance :   1.0000e-08
  Last MAX-Density change    ...    0.0000e+00  Tolerance :   1.0000e-07
  Last RMS-Density change    ...    0.0000e+00  Tolerance :   5.0000e-09
  Last DIIS Error            ...    6.0910e-07  Tolerance :   5.0000e-07

             **** THE GBW FILE WAS UPDATED (reaction4-IEIP_ts_guess_scan_9-13_orca.gbw) ****
             **** DENSITY reaction4-IEIP_ts_guess_scan_9-13_orca.scfp WAS UPDATED ****
             **** ENERGY FILE WAS UPDATED (reaction4-IEIP_ts_guess_scan_9-13_orca.en.tmp) ****
             **** THE GBW FILE WAS UPDATED (reaction4-IEIP_ts_guess_scan_9-13_orca.gbw) ****
             **** DENSITY reaction4-IEIP_ts_guess_scan_9-13_orca.scfp WAS UPDATED ****
----------------
ORBITAL ENERGIES
----------------

  NO   OCC          E(Eh)            E(eV) 
   0   2.0000     -89.758627     -2442.4564 
   1   2.0000     -19.637240      -534.3565 
   2   2.0000     -19.624381      -534.0065 
   3   2.0000     -14.831554      -403.5871 
   4   2.0000     -10.699464      -291.1472 
   5   2.0000     -10.652555      -289.8708 
   6   2.0000     -10.628345      -289.2120 
   7   2.0000     -10.625882      -289.1449 
   8   2.0000     -10.625288      -289.1288 
   9   2.0000     -10.619767      -288.9786 
  10   2.0000     -10.618362      -288.9403 
  11   2.0000     -10.615964      -288.8751 
  12   2.0000     -10.612259      -288.7742 
  13   2.0000     -10.606988      -288.6308 
  14   2.0000     -10.585769      -288.0534 
  15   2.0000     -10.584177      -288.0101 
  16   2.0000     -10.553245      -287.1684 
  17   2.0000     -10.550135      -287.0838 
  18   2.0000     -10.546349      -286.9807 
  19   2.0000      -8.398086      -228.5235 
  20   2.0000      -6.287987      -171.1048 
  21   2.0000      -6.284451      -171.0086 
  22   2.0000      -6.283018      -170.9696 
  23   2.0000      -4.022555      -109.4593 
  24   2.0000      -2.340216       -63.6805 
  25   2.0000      -2.308252       -62.8107 
  26   2.0000      -2.305383       -62.7326 
  27   2.0000      -1.332432       -36.2573 
  28   2.0000      -1.231834       -33.5199 
  29   2.0000      -1.207014       -32.8445 
  30   2.0000      -1.162867       -31.6432 
  31   2.0000      -1.123385       -30.5689 
  32   2.0000      -1.023011       -27.8375 
  33   2.0000      -0.976091       -26.5608 
  34   2.0000      -0.969160       -26.3722 
  35   2.0000      -0.964358       -26.2415 
  36   2.0000      -0.956750       -26.0345 
  37   2.0000      -0.942189       -25.6383 
  38   2.0000      -0.899710       -24.4823 
  39   2.0000      -0.869800       -23.6685 
  40   2.0000      -0.796459       -21.6728 
  41   2.0000      -0.780021       -21.2255 
  42   2.0000      -0.778943       -21.1961 
  43   2.0000      -0.778442       -21.1825 
  44   2.0000      -0.767000       -20.8711 
  45   2.0000      -0.763537       -20.7769 
  46   2.0000      -0.741917       -20.1886 
  47   2.0000      -0.723088       -19.6762 
  48   2.0000      -0.693058       -18.8591 
  49   2.0000      -0.683622       -18.6023 
  50   2.0000      -0.663496       -18.0547 
  51   2.0000      -0.662793       -18.0355 
  52   2.0000      -0.650101       -17.6901 
  53   2.0000      -0.639486       -17.4013 
  54   2.0000      -0.632686       -17.2163 
  55   2.0000      -0.630734       -17.1631 
  56   2.0000      -0.621074       -16.9003 
  57   2.0000      -0.608337       -16.5537 
  58   2.0000      -0.599350       -16.3091 
  59   2.0000      -0.598587       -16.2884 
  60   2.0000      -0.596503       -16.2317 
  61   2.0000      -0.589679       -16.0460 
  62   2.0000      -0.577446       -15.7131 
  63   2.0000      -0.569873       -15.5070 
  64   2.0000      -0.564367       -15.3572 
  65   2.0000      -0.561218       -15.2715 
  66   2.0000      -0.556766       -15.1504 
[...]

----------------------
LOEWDIN ATOMIC CHARGES
----------------------
   0 Ir:   -0.256560
   1 C :   -0.057620
   2 C :   -0.092926
   3 C :   -0.093225
   4 C :   -0.037967
   5 C :   -0.016182
   6 N :   -0.010631
   7 C :   -0.068927
   8 C :   -0.361955
   9 H :    0.155685
  10 H :    0.132703
  11 H :    0.143094
  12 C :   -0.344168
  13 H :    0.153376
  14 H :    0.150397
  15 H :    0.137948
  16 H :    0.132470
  17 C :    0.030882
  18 C :   -0.199278
  19 H :    0.159014
  20 C :   -0.217178
  21 C :   -0.135367
  22 S :    0.486991
  23 C :   -0.257341
  24 H :    0.359477
  25 H :    0.160523
  26 H :    0.168364
  27 H :    0.182658
  28 H :    0.180202
  29 H :    0.188471
  30 O :   -0.259553
  31 O :   -0.176487
  32 C :    0.170210
  33 C :   -0.371029
  34 H :    0.166158
  35 H :    0.173015
  36 H :    0.156748
  37 H :    0.182504
  38 H :    0.185507

-------------------------------
LOEWDIN REDUCED ORBITAL CHARGES
-------------------------------
  0 Irs       :     2.452519  s :     2.452519
      pz      :     2.253575  p :     6.774214
      px      :     2.253947
      py      :     2.266692
      dz2     :     1.742038  d :     7.942582
      dxz     :     1.649240
      dyz     :     1.422859
      dx2y2   :     1.613372
      dxy     :     1.515072
      f0      :     0.010105  f :     0.087245
      f+1     :     0.004938
      f-1     :     0.015347
      f+2     :     0.013870
      f-2     :     0.016079
      f+3     :     0.010862
      f-3     :     0.016042
  1 C s       :     2.873515  s :     2.873515
      pz      :     1.052878  p :     3.080870
      px      :     1.075155
      py      :     0.952837
      dz2     :     0.025557  d :     0.103235
      dxz     :     0.025515
      dyz     :     0.016347
      dx2y2   :     0.019180
      dxy     :     0.016635
  2 C s       :     2.874643  s :     2.874643
      pz      :     1.036937  p :     3.118946
      px      :     1.088753
      py      :     0.993257
      dz2     :     0.023975  d :     0.099336
      dxz     :     0.028381
      dyz     :     0.016469
      dx2y2   :     0.017551
      dxy     :     0.012960
  3 C s       :     2.871307  s :     2.871307
      pz      :     1.028406  p :     3.122743
      px      :     1.083601
      py      :     1.010737
      dz2     :     0.022137  d :     0.099174
      dxz     :     0.031251
      dyz     :     0.015317
      dx2y2   :     0.016400
      dxy     :     0.014068
  4 C s       :     2.874944  s :     2.874944
      pz      :     1.079933  p :     3.058653
      px      :     1.043775
      py      :     0.934944
      dz2     :     0.022838  d :     0.104370
      dxz     :     0.029123
      dyz     :     0.013477
      dx2y2   :     0.019758
      dxy     :     0.019174
  5 C s       :     2.880057  s :     2.880057
      pz      :     1.047475  p :     3.031446
      px      :     1.041632
      py      :     0.942340
      dz2     :     0.021704  d :     0.104679
      dxz     :     0.031379
      dyz     :     0.015877
      dx2y2   :     0.015967
      dxy     :     0.019753
  6 N s       :     3.121827  s :     3.121827
      pz      :     1.253221  p :     3.791129
      px      :     1.288143
      py      :     1.249766
      dz2     :     0.029967  d :     0.097675
      dxz     :     0.027124
      dyz     :     0.018013
      dx2y2   :     0.012525
      dxy     :     0.010045
  7 C s       :     2.862362  s :     2.862362
      pz      :     1.058753  p :     3.072029
      px      :     0.936115
      py      :     1.077161
      dz2     :     0.028855  d :     0.134536
      dxz     :     0.027972
      dyz     :     0.013367
      dx2y2   :     0.031169
      dxy     :     0.033173
  8 C s       :     2.953556  s :     2.953556
      pz      :     1.137701  p :     3.340885
      px      :     1.123777
      py      :     1.079407
      dz2     :     0.015184  d :     0.067515
      dxz     :     0.017052
      dyz     :     0.005593
      dx2y2   :     0.010840
      dxy     :     0.018845
  9 H s       :     0.844315  s :     0.844315
 10 H s       :     0.867297  s :     0.867297
 11 H s       :     0.856906  s :     0.856906
 12 C s       :     2.953377  s :     2.953377
      pz      :     1.144587  p :     3.322796
      px      :     1.109602
      py      :     1.068607
      dz2     :     0.015064  d :     0.067995
      dxz     :     0.013467
      dyz     :     0.008760
      dx2y2   :     0.012790
      dxy     :     0.017915
 13 H s       :     0.846624  s :     0.846624
 14 H s       :     0.849603  s :     0.849603
 15 H s       :     0.862052  s :     0.862052
 16 H s       :     0.867530  s :     0.867530
 17 C s       :     2.876160  s :     2.876160
      pz      :     1.007401  p :     2.952361
      px      :     1.066092
      py      :     0.878868
      dz2     :     0.038418  d :     0.140597
      dxz     :     0.048263
      dyz     :     0.026556
      dx2y2   :     0.012532
      dxy     :     0.014829
 18 C s       :     2.889500  s :     2.889500
      pz      :     1.047125  p :     3.197178
      px      :     1.088409
      py      :     1.061644
      dz2     :     0.034191  d :     0.112600
      dxz     :     0.033758
      dyz     :     0.017012
      dx2y2   :     0.016014
      dxy     :     0.011626
 19 H s       :     0.840986  s :     0.840986
 20 C s       :     2.908455  s :     2.908455
      pz      :     1.148845  p :     3.213875
      px      :     1.060659
      py      :     1.004370
      dz2     :     0.013200  d :     0.094849
      dxz     :     0.037332
      dyz     :     0.011403
      dx2y2   :     0.016703
      dxy     :     0.016211
 21 C s       :     2.896298  s :     2.896298
      pz      :     1.076452  p :     3.144236
      px      :     1.086503
      py      :     0.981280
      dz2     :     0.029031  d :     0.094834
      dxz     :     0.032104
      dyz     :     0.014391
      dx2y2   :     0.012453
      dxy     :     0.006855
 22 S s       :     5.500102  s :     5.500102
      pz      :     3.250170  p :     9.857977
      px      :     3.087878
      py      :     3.519929
      dz2     :     0.050425  d :     0.154930
      dxz     :     0.033516
      dyz     :     0.017328
      dx2y2   :     0.027353
      dxy     :     0.026308
 23 C s       :     2.964620  s :     2.964620
      pz      :     1.121652  p :     3.206837
      px      :     1.028551
      py      :     1.056635
      dz2     :     0.024332  d :     0.085885
      dxz     :     0.030169
      dyz     :     0.011370
      dx2y2   :     0.011306
      dxy     :     0.008709
 24 H s       :     0.640523  s :     0.640523
 25 H s       :     0.839477  s :     0.839477
 26 H s       :     0.831636  s :     0.831636
 27 H s       :     0.817342  s :     0.817342
 28 H s       :     0.819798  s :     0.819798
 29 H s       :     0.811529  s :     0.811529
 30 O s       :     3.512157  s :     3.512157
      pz      :     1.446964  p :     4.692425
      px      :     1.584073
      py      :     1.661388
      dz2     :     0.014751  d :     0.054972
      dxz     :     0.015624
      dyz     :     0.013871
      dx2y2   :     0.006757
      dxy     :     0.003968
 31 O s       :     3.441667  s :     3.441667
      pz      :     1.687310  p :     4.674286
      px      :     1.584755
      py      :     1.402221
      dz2     :     0.008973  d :     0.060534
      dxz     :     0.005004
      dyz     :     0.014789
      dx2y2   :     0.014252
      dxy     :     0.017516
 32 C s       :     2.812542  s :     2.812542
      pz      :     0.952688  p :     2.699594
      px      :     0.784621
      py      :     0.962284
      dz2     :     0.069233  d :     0.317655
      dxz     :     0.053274
      dyz     :     0.090020
      dx2y2   :     0.053317
      dxy     :     0.051811
 33 C s       :     2.957701  s :     2.957701
      pz      :     1.105124  p :     3.350743
      px      :     1.154946
      py      :     1.090673
      dz2     :     0.004177  d :     0.062585
      dxz     :     0.016351
      dyz     :     0.021445
      dx2y2   :     0.018345
      dxy     :     0.002267
 34 H s       :     0.833842  s :     0.833842
 35 H s       :     0.826985  s :     0.826985
 36 H s       :     0.843252  s :     0.843252
 37 H s       :     0.817496  s :     0.817496
 38 H s       :     0.814493  s :     0.814493


                      *****************************
                      * MAYER POPULATION ANALYSIS *
                      *****************************

  NA   - Mulliken gross atomic population
  ZA   - Total nuclear charge
  QA   - Mulliken gross atomic charge
  VA   - Mayer's total valence
  BVA  - Mayer's bonded valence
  FA   - Mayer's free valence

  ATOM       NA         ZA         QA         VA         BVA        FA
  0 Ir    16.3985    17.0000     0.6015     3.7576     3.7576    -0.0000
  1 C      6.2416     6.0000    -0.2416     3.7226     3.7226    -0.0000
  2 C      6.2668     6.0000    -0.2668     3.7328     3.7328     0.0000
  3 C      6.2662     6.0000    -0.2662     3.7424     3.7424     0.0000
  4 C      6.2238     6.0000    -0.2238     3.7183     3.7183     0.0000
  5 C      6.1563     6.0000    -0.1563     3.6983     3.6983     0.0000
  6 N      7.4396     7.0000    -0.4396     3.2134     3.2134    -0.0000
  7 C      6.1257     6.0000    -0.1257     3.7103     3.7103    -0.0000
  8 C      6.6803     6.0000    -0.6803     3.6894     3.6894     0.0000
  9 H      0.7316     1.0000     0.2684     0.8978     0.8978     0.0000
 10 H      0.7754     1.0000     0.2246     0.9108     0.9108     0.0000
 11 H      0.7468     1.0000     0.2532     0.9007     0.9007     0.0000
 12 C      6.6333     6.0000    -0.6333     3.6723     3.6723     0.0000
 13 H      0.7231     1.0000     0.2769     0.8736     0.8736     0.0000
 14 H      0.7417     1.0000     0.2583     0.8989     0.8989     0.0000
 15 H      0.7674     1.0000     0.2326     0.9096     0.9096     0.0000
 16 H      0.7679     1.0000     0.2321     0.9063     0.9063    -0.0000
 17 C      5.9308     6.0000     0.0692     3.6668     3.6668     0.0000
 18 C      6.1350     6.0000    -0.1350     3.6964     3.6964     0.0000
 19 H      0.7168     1.0000     0.2832     0.8876     0.8876     0.0000
 20 C      6.5152     6.0000    -0.5152     3.5496     3.5496     0.0000
 21 C      6.1210     6.0000    -0.1210     3.7675     3.7675     0.0000
 22 S     15.6654    16.0000     0.3346     2.5876     2.5876    -0.0000
 23 C      6.4248     6.0000    -0.4248     3.7567     3.7567     0.0000
 24 H      0.5223     1.0000     0.4777     0.7414     0.7414     0.0000
 25 H      0.7360     1.0000     0.2640     0.9033     0.9033    -0.0000
 26 H      0.7036     1.0000     0.2964     0.8976     0.8976     0.0000
 27 H      0.7138     1.0000     0.2862     0.9055     0.9055     0.0000
 28 H      0.7172     1.0000     0.2828     0.9091     0.9091     0.0000
 29 H      0.7018     1.0000     0.2982     0.8954     0.8954     0.0000
 30 O      8.4900     8.0000    -0.4900     2.1214     2.1214    -0.0000
 31 O      8.5043     8.0000    -0.5043     2.1224     2.1224     0.0000
 32 C      5.3643     6.0000     0.6357     3.8837     3.8837     0.0000
 33 C      6.7445     6.0000    -0.7445     3.6560     3.6560     0.0000
 34 H      0.7253     1.0000     0.2747     0.8925     0.8925    -0.0000
 35 H      0.7231     1.0000     0.2769     0.8906     0.8906    -0.0000
 36 H      0.7364     1.0000     0.2636     0.8966     0.8966     0.0000
 37 H      0.7163     1.0000     0.2837     0.9077     0.9077    -0.0000
 38 H      0.7060     1.0000     0.2940     0.9022     0.9022     0.0000

  Mayer bond orders larger than 0.100000
B(  0-Ir,  1-C ) :   0.4431 B(  0-Ir,  2-C ) :   0.4326 B(  0-Ir,  3-C ) :   0.4669 
B(  0-Ir,  4-C ) :   0.4333 B(  0-Ir,  5-C ) :   0.3842 B(  0-Ir,  6-N ) :   0.4668 
B(  0-Ir, 20-C ) :   0.4476 B(  0-Ir, 31-O ) :   0.5133 B(  1-C ,  2-C ) :   1.1263 
B(  1-C ,  4-C ) :   1.2239 B(  1-C , 27-H ) :   0.9077 B(  2-C ,  5-C ) :   1.1978 
B(  2-C , 28-H ) :   0.9102 B(  3-C ,  4-C ) :   1.1359 B(  3-C ,  5-C ) :   1.1818 
B(  3-C , 37-H ) :   0.9120 B(  4-C , 38-H ) :   0.9000 B(  5-C , 29-H ) :   0.9010 
B(  6-N ,  7-C ) :   0.8957 B(  6-N , 17-C ) :   1.6460 B(  7-C ,  8-C ) :   0.9904 
B(  7-C , 12-C ) :   0.9673 B(  7-C , 13-H ) :   0.8788 B(  8-C ,  9-H ) :   0.9050 
B(  8-C , 10-H ) :   0.9131 B(  8-C , 11-H ) :   0.9125 B( 12-C , 14-H ) :   0.9080 
B( 12-C , 15-H ) :   0.9154 B( 12-C , 16-H ) :   0.9126 B( 17-C , 18-C ) :   1.1150 
B( 17-C , 19-H ) :   0.8767 B( 18-C , 20-C ) :   1.2519 B( 18-C , 22-S ) :   1.2229 
B( 20-C , 21-C ) :   1.2908 B( 20-C , 24-H ) :   0.3200 B( 21-C , 23-C ) :   1.5334 
B( 21-C , 25-H ) :   0.9039 B( 22-S , 23-C ) :   1.2257 B( 23-C , 26-H ) :   0.8917 
B( 24-H , 30-O ) :   0.3604 B( 30-O , 32-C ) :   1.5359 B( 31-O , 32-C ) :   1.3979 
B( 32-C , 33-C ) :   0.9467 B( 33-C , 34-H ) :   0.8986 B( 33-C , 35-H ) :   0.8923 
B( 33-C , 36-H ) :   0.9076 


------------------
HIRSHFELD ANALYSIS
------------------

Total integrated alpha density =     82.000284156
Total integrated beta density  =     82.000284156

  ATOM     CHARGE      SPIN    
   0 Ir   0.172301    0.000000
   1 C   -0.002608    0.000000
   2 C   -0.014764    0.000000
   3 C   -0.019128    0.000000
   4 C    0.004923    0.000000
   5 C    0.019563    0.000000
   6 N   -0.073575    0.000000
   7 C    0.052098    0.000000
   8 C   -0.071574    0.000000
   9 H    0.052791    0.000000
  10 H    0.037459    0.000000
  11 H    0.040656    0.000000
  12 C   -0.071511    0.000000
  13 H    0.043981    0.000000
  14 H    0.049471    0.000000
  15 H    0.037347    0.000000
  16 H    0.030400    0.000000
  17 C    0.093662    0.000000
  18 C   -0.016985    0.000000
  19 H    0.075312    0.000000
  20 C   -0.088977    0.000000
  21 C   -0.032277    0.000000
  22 S    0.134465    0.000000
  23 C   -0.024522    0.000000
  24 H    0.102496    0.000000
  25 H    0.067165    0.000000
  26 H    0.078528    0.000000
  27 H    0.081269    0.000000
  28 H    0.079235    0.000000
  29 H    0.090883    0.000000
  30 O   -0.221090    0.000000
  31 O   -0.240564    0.000000
  32 C    0.255074    0.000000
  33 C   -0.061102    0.000000
  34 H    0.059850    0.000000
  35 H    0.064886    0.000000
  36 H    0.052247    0.000000
  37 H    0.080891    0.000000
  38 H    0.081152    0.000000

  TOTAL   0.999432    0.000000

-------
TIMINGS
-------

Total SCF time: 0 days 0 hours 4 min 46 sec 

Total time                  ....     286.078 sec
Sum of individual times     ....     285.466 sec  ( 99.8%)

Fock matrix formation       ....     276.940 sec  ( 96.8%)
  Split-RI-J                ....      22.041 sec  (  8.0% of F)
  Chain of spheres X        ....     238.877 sec  ( 86.3% of F)
  XC integration            ....      16.012 sec  (  5.8% of F)
    Basis function eval.    ....       7.409 sec  ( 46.3% of XC)
    Density eval.           ....       4.245 sec  ( 26.5% of XC)
    XC-Functional eval.     ....       1.198 sec  (  7.5% of XC)
    XC-Potential eval.      ....       2.566 sec  ( 16.0% of XC)
Diagonalization             ....       0.252 sec  (  0.1%)
Density matrix formation    ....       0.039 sec  (  0.0%)
Population analysis         ....       1.455 sec  (  0.5%)
Initial guess               ....       0.045 sec  (  0.0%)
Orbital Transformation      ....       0.000 sec  (  0.0%)
Orbital Orthonormalization  ....       0.034 sec  (  0.0%)
DIIS solution               ....       0.097 sec  (  0.0%)
Grid generation             ....       6.639 sec  (  2.3%)

Maximum memory used throughout the entire SCF-calculation: 172.8 MB


-------------------------------------------------------------------------------
                          DFT DISPERSION CORRECTION                            
                                                                               
                              DFTD3 V3.1  Rev 1                                
                          USING Becke-Johnson damping                          
-------------------------------------------------------------------------------
The PBEh-3c composite method is recognized
Using three-body term ABC
Active option DFTDOPT                   ...         4   

molecular C6(AA) [au] = 19533.208037 


            DFT-D V3
 parameters
 s6 scaling factor         :     1.0000 
 a1 scaling factor         :     0.4860 
 s8 scaling factor         :     0.0000 
 a2 scaling factor         :     4.5000 
 Damping factor alpha9(ATM):    16.0000 
 ad hoc parameters k1-k3   :    16.0000     1.3333    -4.0000 

 Edisp/kcal,au: -19.127181525969  -0.030481100726 
 E6   /kcal   : -19.459200394 
 E8   /kcal   :  -0.000000000 
 E6(ABC)      :   0.332018868 
 % E8         :   0.000000000 
 % E6(ABC)    :  -1.735848367 

-------------------------   ----------------
Dispersion correction           -0.030481101
-------------------------   ----------------

 ** NOTE ** -> element ir will be treated as co
NOTIFICATION: Different basis set in ORCA and otool_gcp:
ORCA: 358  gCP: 357 
If you are NOT using ECPs, check your basis set inputs!
------------------   -----------------
gCP correction             0.079220474
------------------   -----------------

-------------------------   --------------------
FINAL SINGLE POINT ENERGY     -1288.404425155589
-------------------------   --------------------

                                *** OPTIMIZATION RUN DONE ***

                            ***************************************
                            *     ORCA property calculations      *
                            ***************************************

                                    ---------------------
                                    Active property flags
                                    ---------------------
   (+) Dipole Moment


------------------------------------------------------------------------------
                       ORCA ELECTRIC PROPERTIES CALCULATION
------------------------------------------------------------------------------

Dipole Moment Calculation                       ... on
Quadrupole Moment Calculation                   ... off
Polarizability Calculation                      ... off
GBWName                                         ... reaction4-IEIP_ts_guess_scan_9-13_orca.gbw
Electron density                                ... reaction4-IEIP_ts_guess_scan_9-13_orca.scfp
The origin for moment calculation is the CENTER OF MASS  = ( 0.856271, -0.556172 -0.154695)

-------------
DIPOLE MOMENT
-------------
                                X             Y             Z
Electronic contribution:     36.46082     -74.14615      74.59434
Nuclear contribution   :    -37.03623      73.70929     -74.70198
                        -----------------------------------------
Total Dipole Moment    :     -0.57541      -0.43686      -0.10764
                        -----------------------------------------
Magnitude (a.u.)       :      0.73043
Magnitude (Debye)      :      1.85661



--------------------
Rotational spectrum 
--------------------
 
Rotational constants in cm-1:     0.010556     0.008686     0.008151 
Rotational constants in MHz :   316.450408   260.387743   244.368510 

 Dipole components along the rotational axes: 
x,y,z [a.u.] :     0.137009     0.148551     0.701920 
x,y,z [Debye]:     0.348250     0.377587     1.784138 

 

Timings for individual modules:

Sum of individual times         ...     6688.146 sec (= 111.469 min)
GTO integral calculation        ...       25.815 sec (=   0.430 min)   0.4 %
SCF iterations                  ...     5278.039 sec (=  87.967 min)  78.9 %
SCF Gradient evaluation         ...     1376.588 sec (=  22.943 min)  20.6 %
Geometry relaxation             ...        7.704 sec (=   0.128 min)   0.1 %
                             ****ORCA TERMINATED NORMALLY****
TOTAL RUN TIME: 0 days 1 hours 51 minutes 36 seconds 572 msec
