
                                 *****************
                                 * O   R   C   A *
                                 *****************

                                            #,                                       
                                            ###                                      
                                            ####                                     
                                            #####                                    
                                            ######                                   
                                           ########,                                 
                                     ,,################,,,,,                         
                               ,,#################################,,                 
                          ,,##########################################,,             
                       ,#########################################, ''#####,          
                    ,#############################################,,   '####,        
                  ,##################################################,,,,####,       
                ,###########''''           ''''###############################       
              ,#####''   ,,,,##########,,,,          '''####'''          '####       
            ,##' ,,,,###########################,,,                        '##       
           ' ,,###''''                  '''############,,,                           
         ,,##''                                '''############,,,,        ,,,,,,###''
      ,#''                                            '''#######################'''  
     '                                                          ''''####''''         
             ,#######,   #######,   ,#######,      ##                                
            ,#'     '#,  ##    ##  ,#'     '#,    #''#        ######   ,####,        
            ##       ##  ##   ,#'  ##            #'  '#       #        #'  '#        
            ##       ##  #######   ##           ,######,      #####,   #    #        
            '#,     ,#'  ##    ##  '#,     ,#' ,#      #,         ##   #,  ,#        
             '#######'   ##     ##  '#######'  #'      '#     #####' # '####'        



                  #######################################################
                  #                        -***-                        #
                  #          Department of theory and spectroscopy      #
                  #    Directorship and core code : Frank Neese         #
                  #        Max Planck Institute fuer Kohlenforschung    #
                  #                Kaiser Wilhelm Platz 1               #
                  #                 D-45470 Muelheim/Ruhr               #
                  #                      Germany                        #
                  #                                                     #
                  #                  All rights reserved                #
                  #                        -***-                        #
                  #######################################################


                         Program Version 5.0.3 -  RELEASE  -


 With contributions from (in alphabetic order):
   Daniel Aravena         : Magnetic Suceptibility
   Michael Atanasov       : Ab Initio Ligand Field Theory (pilot matlab implementation)
   Alexander A. Auer      : GIAO ZORA, VPT2 properties, NMR spectrum
   Ute Becker             : Parallelization
   Giovanni Bistoni       : ED, misc. LED, open-shell LED, HFLD
   Martin Brehm           : Molecular dynamics
   Dmytro Bykov           : SCF Hessian
   Vijay G. Chilkuri      : MRCI spin determinant printing, contributions to CSF-ICE
   Dipayan Datta          : RHF DLPNO-CCSD density
   Achintya Kumar Dutta   : EOM-CC, STEOM-CC
   Dmitry Ganyushin       : Spin-Orbit,Spin-Spin,Magnetic field MRCI
   Miquel Garcia          : C-PCM and meta-GGA Hessian, CC/C-PCM, Gaussian charge scheme
   Yang Guo               : DLPNO-NEVPT2, F12-NEVPT2, CIM, IAO-localization
   Andreas Hansen         : Spin unrestricted coupled pair/coupled cluster methods
   Benjamin Helmich-Paris : MC-RPA, TRAH-SCF, COSX integrals
   Lee Huntington         : MR-EOM, pCC
   Robert Izsak           : Overlap fitted RIJCOSX, COSX-SCS-MP3, EOM
   Marcus Kettner         : VPT2
   Christian Kollmar      : KDIIS, OOCD, Brueckner-CCSD(T), CCSD density, CASPT2, CASPT2-K
   Simone Kossmann        : Meta GGA functionals, TD-DFT gradient, OOMP2, MP2 Hessian
   Martin Krupicka        : Initial AUTO-CI
   Lucas Lang             : DCDCAS
   Marvin Lechner         : AUTO-CI (C++ implementation), FIC-MRCC
   Dagmar Lenk            : GEPOL surface, SMD
   Dimitrios Liakos       : Extrapolation schemes; Compound Job, initial MDCI parallelization
   Dimitrios Manganas     : Further ROCIS development; embedding schemes
   Dimitrios Pantazis     : SARC Basis sets
   Anastasios Papadopoulos: AUTO-CI, single reference methods and gradients
   Taras Petrenko         : DFT Hessian,TD-DFT gradient, ASA, ECA, R-Raman, ABS, FL, XAS/XES, NRVS
   Peter Pinski           : DLPNO-MP2, DLPNO-MP2 Gradient
   Christoph Reimann      : Effective Core Potentials
   Marius Retegan         : Local ZFS, SOC
   Christoph Riplinger    : Optimizer, TS searches, QM/MM, DLPNO-CCSD(T), (RO)-DLPNO pert. Triples
   Tobias Risthaus        : Range-separated hybrids, TD-DFT gradient, RPA, STAB
   Michael Roemelt        : Original ROCIS implementation
   Masaaki Saitow         : Open-shell DLPNO-CCSD energy and density
   Barbara Sandhoefer     : DKH picture change effects
   Avijit Sen             : IP-ROCIS
   Kantharuban Sivalingam : CASSCF convergence, NEVPT2, FIC-MRCI
   Bernardo de Souza      : ESD, SOC TD-DFT
   Georgi Stoychev        : AutoAux, RI-MP2 NMR, DLPNO-MP2 response
   Willem Van den Heuvel  : Paramagnetic NMR
   Boris Wezisla          : Elementary symmetry handling
   Frank Wennmohs         : Technical directorship


 We gratefully acknowledge several colleagues who have allowed us to
 interface, adapt or use parts of their codes:
   Stefan Grimme, W. Hujo, H. Kruse, P. Pracht,  : VdW corrections, initial TS optimization,
                  C. Bannwarth, S. Ehlert          DFT functionals, gCP, sTDA/sTD-DF
   Ed Valeev, F. Pavosevic, A. Kumar             : LibInt (2-el integral package), F12 methods
   Garnet Chan, S. Sharma, J. Yang, R. Olivares  : DMRG
   Ulf Ekstrom                                   : XCFun DFT Library
   Mihaly Kallay                                 : mrcc  (arbitrary order and MRCC methods)
   Jiri Pittner, Ondrej Demel                    : Mk-CCSD
   Frank Weinhold                                : gennbo (NPA and NBO analysis)
   Christopher J. Cramer and Donald G. Truhlar   : smd solvation model
   Lars Goerigk                                  : TD-DFT with DH, B97 family of functionals
   V. Asgeirsson, H. Jonsson                     : NEB implementation
   FAccTs GmbH                                   : IRC, NEB, NEB-TS, DLPNO-Multilevel, CI-OPT
                                                   MM, QMMM, 2- and 3-layer-ONIOM, Crystal-QMMM,
                                                   LR-CPCM, SF, NACMEs, symmetry and pop. for TD-DFT,
                                                   nearIR, NL-DFT gradient (VV10), updates on ESD,
                                                   ML-optimized integration grids
   S Lehtola, MJT Oliveira, MAL Marques          : LibXC Library
   Liviu Ungur et al                             : ANISO software


 Your calculation uses the libint2 library for the computation of 2-el integrals
 For citations please refer to: http://libint.valeyev.net

 Your ORCA version has been built with support for libXC version: 5.1.0
 For citations please refer to: https://tddft.org/programs/libxc/

 This ORCA versions uses:
   CBLAS   interface :  Fast vector & matrix operations
   LAPACKE interface :  Fast linear algebra routines
   SCALAPACK package :  Parallel linear algebra routines
   Shared memory     :  Shared parallel matrices
   BLAS/LAPACK       :  OpenBLAS 0.3.15  USE64BITINT DYNAMIC_ARCH NO_AFFINITY SkylakeX SINGLE_THREADED
        Core in use  :  SkylakeX
   Copyright (c) 2011-2014, The OpenBLAS Project


Your calculation utilizes the geometrical counterpoise correction gCP
Please cite in your paper:
H.Kruse, S. Grimme J.Chem.Phys., 136, (2012), 154101 
   

Your calculation utilizes the atom-pairwise dispersion correction
with the Becke-Johnson damping scheme (D3BJ)
Cite in your paper:
S.Grimme, S.Ehrlich, L.Goerigk, J Comput Chem, (2011), 32, 1456–1465 
S.Grimme, J.Antony, S.Ehrlich and H.Krieg, J.Chem.Phys., 132, (2010), 154104 
   

Your calculation employs the composite approach PBEh-3c.
Please cite in your paper:
S. Grimme, J. G. Brandenburg, C. Bannwarth, A. Hansen J.Chem.Phys., 143, (2015), 054107 
   

================================================================================

cite the ECPs for Ir [Def2-ECP] as follows:
Ce-Yb(ecp-28): M. Dolg, H. Stoll, H.Preuss, J. Chem. Phys., 1989, 90, 1730-1734.
Y-Cd(ecp-28), Hf-Hg(ecp-46): D. Andrae,U. Haeussermann, M. Dolg, H. Stoll, H. Preuss, Theor. Chim. Acta, 1990, 77, 123-141.
In-Sb(ecp-28), Tl-Bi(ecp-46): B. Metz, H. Stoll, M. Dolg, J. Chem. Phys., 2000, 113, 2563-2569.
Te-Xe(ecp-28), Po-Rn(ecp-46): K. A. Peterson, D. Figgen, E. Goll, H. Stoll, M. Dolg, J. Chem. Phys., 2003, 119, 11113-11123.
Rb(ecp-28), Cs(ecp-46): T. Leininger, A. Nicklass, W. Kuechle, H. Stoll, M. Dolg, A. Bergner, Chem. Phys. Lett., 1996, 255, 274-280.
Sr(ecp-28), Ba(ecp-46): M. Kaupp, P. V. Schleyer, H. Stoll and H. Preuss, J. Chem. Phys., 1991, 94, 1360-1366.
La(ecp-46): M. Dolg, H. Stoll, A. Savin, H. Preuss, Theor. Chim. Acta, 1989, 75, 173-194.
Lu(ecp-28): X. Cao, M. Dolg, J. Chem. Phys., 2001, 115, 7348-7355.

ECP parameters for Ir [Def2-ECP] have been obtained from:
TURBOMOLE (7.0.2)

----- Orbital basis set information -----
Your calculation utilizes the basis: def2-mSVP

----- AuxJ basis set information -----
Your calculation utilizes the auxiliary basis: def2/J
   F. Weigend, Phys. Chem. Chem. Phys. 8, 1057 (2006).

================================================================================
                                        WARNINGS
                       Please study these warnings very carefully!
================================================================================


WARNING: Geometry Optimization
  ===> : Switching off AutoStart
         For restart on a previous wavefunction, please use MOREAD

WARNING: No Hueckel Guess possible with ECP basis!
  ===> : Switching to HCORE guess!

INFO   : the flag for use of the SHARK integral package has been found!

================================================================================
                                       INPUT FILE
================================================================================
NAME = reaction4-IEIP_ts_guess_scan_14-13_orca.inp
|  1> ! Opt PBEh-3c
|  2> %geom Constraints
|  3> { B 0 20 2.0 C }
|  4> { B 24 30 1.3142857142857143 C }
|  5>     end
|  6> end
|  7> %output 
|  8> xyzfile=True 
|  9> end 
| 10> %scf 
| 11> maxiter 250 
| 12> end
| 13> %output
| 14> Print[P_Hirshfeld] = 1
| 15> end
| 16> % maxcore
| 17> 4000
| 18> %pal nprocs 4
| 19> end
| 20> *xyz 1 1
| 21> Ir   0.61200679  -0.74768475   0.39953668 
| 22> C    0.17693632  -2.86332327   0.33225393 
| 23> C   -0.13141170  -2.43442910   1.67449999 
| 24> C    2.11454748  -2.04459885   1.28616169 
| 25> C    1.56281891  -2.66052532   0.11827602 
| 26> C    1.05561395  -1.94536371   2.24379761 
| 27> N   -1.08644023   0.09641857  -0.50504328 
| 28> C   -2.35818919   0.25925671   0.21445365 
| 29> C   -3.14465778   1.49430852  -0.20092662 
| 30> H   -3.97774033   1.62901601   0.48708491 
| 31> H   -3.57582712   1.40868471  -1.19927755 
| 32> H   -2.53512477   2.39723976  -0.15868104 
| 33> C   -3.18873364  -1.01026349   0.06269487 
| 34> H   -2.07892514   0.37462698   1.26295828 
| 35> H   -4.08909336  -0.94231040   0.67207993 
| 36> H   -3.49696128  -1.15532235  -0.97348812 
| 37> H   -2.64201904  -1.89712641   0.37938058 
| 38> C   -0.94154880   0.49326053  -1.71703711 
| 39> C    0.37216882   0.32805220  -2.25524737 
| 40> H   -1.75200258   0.94736224  -2.27757560 
| 41> C    1.37704501  -0.03309322  -1.35469845 
| 42> C    2.60444430  -0.22343455  -2.06529386 
| 43> S    0.90417235   0.45754305  -3.86244132 
| 44> C    2.49064405   0.01320485  -3.40320924 
| 45> H    1.64815763   1.19861583  -0.71811702 
| 46> H    3.54496045  -0.47238152  -1.59507824 
| 47> H    3.27010125  -0.03473377  -4.14850182 
| 48> H   -0.50558104  -3.32805698  -0.36404540 
| 49> H   -1.09068444  -2.49733757   2.16477781 
| 50> H    1.14217660  -1.49780847   3.22367813 
| 51> O    1.77426729   2.31119747  -0.00302227 
| 52> O    0.62636534   1.05880202   1.43757379 
| 53> C    1.19309180   2.13211058   1.09775058 
| 54> C    1.19933026   3.26376460   2.08024983 
| 55> H    1.07774059   4.21744731   1.57168371 
| 56> H    2.16710743   3.28800499   2.58431565 
| 57> H    0.42615388   3.13893045   2.83271036 
| 58> H    3.15267740  -1.80732620   1.45975083 
| 59> H    2.10178267  -2.91353753  -0.78324439 
| 60> *
| 61> 
| 62>                          ****END OF INPUT****
================================================================================

                       *****************************
                       * Geometry Optimization Run *
                       *****************************

Geometry optimization settings:
Update method            Update   .... BFGS
Choice of coordinates    CoordSys .... Z-matrix Internals
Initial Hessian          InHess   .... Almoef's Model

Convergence Tolerances:
Energy Change            TolE     ....  5.0000e-06 Eh
Max. Gradient            TolMAXG  ....  3.0000e-04 Eh/bohr
RMS Gradient             TolRMSG  ....  1.0000e-04 Eh/bohr
Max. Displacement        TolMAXD  ....  4.0000e-03 bohr
RMS Displacement         TolRMSD  ....  2.0000e-03 bohr
Strict Convergence                ....  False
------------------------------------------------------------------------------
                        ORCA OPTIMIZATION COORDINATE SETUP
------------------------------------------------------------------------------

The optimization will be done in new redundant internal coordinates
Making redundant internal coordinates   ...  (new redundants) done
Evaluating the initial hessian          ...  (Almloef) done
Evaluating the coordinates              ...  done
Calculating the B-matrix                .... done
Calculating the G-matrix                .... done
Diagonalizing the G-matrix              .... done
Imposing constraints:
 Iter   0:  RMS(Cart)=    0.0168286000 RMS(Int)=    0.0101385805
 Iter   1:  RMS(Cart)=    0.0028663954 RMS(Int)=    0.0018566464
 Iter   2:  RMS(Cart)=    0.0005238578 RMS(Int)=    0.0003436456
 Iter   3:  RMS(Cart)=    0.0000968264 RMS(Int)=    0.0000637109
 Iter   4:  RMS(Cart)=    0.0000179416 RMS(Int)=    0.0000118160
 Iter   5:  RMS(Cart)=    0.0000033269 RMS(Int)=    0.0000021917
 Iter   6:  RMS(Cart)=    0.0000006170 RMS(Int)=    0.0000004065
 Iter   7:  RMS(Cart)=    0.0000001144 RMS(Int)=    0.0000000754
 Iter   8:  RMS(Cart)=    0.0000000212 RMS(Int)=    0.0000000140
CONVERGED
Small eigenvalue found = 1.457e-02
Small eigenvalue found = 2.363e-02
The first mode is                       ....  288
The number of degrees of freedom        ....  111
Storing new coordinates                 .... done

    -----------------------------------------------------------------
                    Redundant Internal Coordinates


    -----------------------------------------------------------------
         Definition                    Initial Value    Approx d2E/dq
    -----------------------------------------------------------------
      1. B(C   1,Ir  0)                  2.1606         0.085640   
      2. B(C   2,Ir  0)                  2.2408         0.063758   
      3. B(C   2,C   1)                  1.4427         0.515303   
      4. B(C   3,Ir  0)                  2.1735         0.081672   
      5. B(C   4,C   3)                  1.4308         0.537458   
      6. B(C   4,Ir  0)                  2.1543         0.087678   
      7. B(C   4,C   1)                  1.4176         0.566022   
      8. B(C   5,Ir  0)                  2.2428         0.063279   
      9. B(C   5,C   2)                  1.4056         0.592623   
     10. B(C   5,C   3)                  1.4325         0.537094   
     11. B(N   6,Ir  0)                  2.1017         0.095495   
     12. B(C   7,N   6)                  1.4702         0.416768   
     13. B(C   8,C   7)                  1.5220         0.384743   
     14. B(H   9,C   8)                  1.0888         0.361662   
     15. B(H  10,C   8)                  1.0908         0.358984   
     16. B(H  11,C   8)                  1.0902         0.359797   
     17. B(C  12,C   7)                  1.5246         0.381008   
     18. B(H  13,C   7)                  1.0912         0.358550   
     19. B(H  14,C  12)                  1.0893         0.361002   
     20. B(H  15,C  12)                  1.0907         0.359118   
     21. B(H  16,C  12)                  1.0889         0.361552   
     22. B(C  17,N   6)                  1.2782         0.827501   
     23. B(C  18,C  17)                  1.4243         0.540857   
     24. B(H  19,C  17)                  1.0850         0.366762   
     25. B(C  20,Ir  0)                  2.0000         0.132159 C 
     26. B(C  20,C  18)                  1.3982         0.609270   
     27. B(C  21,C  20)                  1.4315         0.537487   
     28. B(S  22,C  18)                  1.6979         0.543588   
     29. B(C  23,C  21)                  1.3633         0.688834   
     30. B(C  23,S  22)                  1.7098         0.519329   
     31. B(H  24,C  20)                  1.4131         0.110029   
     32. B(H  25,C  21)                  1.0806         0.372783   
     33. B(H  26,C  23)                  1.0795         0.374266   
     34. B(H  27,C   1)                  1.0801         0.373422   
     35. B(H  28,C   2)                  1.0791         0.374763   
     36. B(H  29,C   5)                  1.0807         0.372582   
     37. B(O  30,H  24)                  1.3143         0.134256 C 
     38. B(O  31,Ir  0)                  2.0836         0.101937   
     39. B(C  32,O  30)                  1.2545         0.910173   
     40. B(C  32,O  31)                  1.2578         0.900778   
     41. B(C  33,C  32)                  1.4987         0.419157   
     42. B(H  34,C  33)                  1.0876         0.363252   
     43. B(H  35,C  33)                  1.0915         0.358187   
     44. B(H  36,C  33)                  1.0861         0.365316   
     45. B(H  37,C   3)                  1.0790         0.375011   
     46. B(H  38,C   4)                  1.0804         0.373044   
     47. A(C   4,Ir  0,C  20)           91.7488         0.264578   
     48. A(N   6,Ir  0,O  31)           82.6782         0.255381   
     49. A(C   2,Ir  0,C   3)           63.2091         0.235502   
     50. A(C   1,Ir  0,C   3)           64.4236         0.245620   
     51. A(C   5,Ir  0,N   6)          136.6515         0.239437   
     52. A(C   5,Ir  0,O  31)           92.8921         0.241676   
     53. A(C   4,Ir  0,C   5)           63.0451         0.237620   
     54. A(C   1,Ir  0,O  31)          149.9080         0.252499   
     55. A(C   3,Ir  0,C  20)          107.2999         0.261780   
     56. A(C   1,Ir  0,C   5)           62.8298         0.236831   
     57. A(C   3,Ir  0,N   6)          166.8290         0.248381   
     58. A(C   3,Ir  0,C   4)           38.6067         0.246456   
     59. A(C   4,Ir  0,N   6)          131.0531         0.250961   
     60. A(C   2,Ir  0,N   6)          106.0878         0.239694   
     61. A(C   4,Ir  0,O  31)          146.2599         0.253372   
     62. A(C   1,Ir  0,C  20)          112.9261         0.263645   
     63. A(C   5,Ir  0,C  20)          144.8350         0.252084   
     64. A(C   2,Ir  0,C   5)           36.5393         0.227281   
     65. A(C   1,Ir  0,C   4)           38.3602         0.248156   
     66. A(C   2,Ir  0,O  31)          111.7264         0.241937   
     67. A(C  20,Ir  0,O  31)           97.1637         0.269370   
     68. A(C   3,Ir  0,O  31)          107.9912         0.250753   
     69. A(N   6,Ir  0,C  20)           78.2184         0.266724   
     70. A(C   1,Ir  0,C   2)           38.2136         0.237084   
     71. A(C   1,Ir  0,N   6)          102.4599         0.250101   
     72. A(C   2,Ir  0,C  20)          151.0711         0.252363   
     73. A(C   2,Ir  0,C   4)           63.4619         0.237874   
     74. A(C   3,Ir  0,C   5)           37.8131         0.235252   
     75. A(Ir  0,C   1,C   2)           73.9059         0.313143   
     76. A(C   4,C   1,H  27)          125.6035         0.349658   
     77. A(C   2,C   1,C   4)          107.9052         0.413166   
     78. A(Ir  0,C   1,H  27)          124.6612         0.269231   
     79. A(Ir  0,C   1,C   4)           70.5804         0.317956   
     80. A(C   2,C   1,H  27)          126.3377         0.344178   
     81. A(Ir  0,C   2,C   5)           71.8045         0.305403   
     82. A(C   1,C   2,C   5)          107.4425         0.416553   
     83. A(Ir  0,C   2,H  28)          126.6793         0.257725   
     84. A(C   5,C   2,H  28)          126.0004         0.352596   
     85. A(C   1,C   2,H  28)          126.5423         0.344385   
     86. A(Ir  0,C   2,C   1)           67.8805         0.298663   
     87. A(Ir  0,C   3,C   4)           69.9719         0.312872   
     88. A(Ir  0,C   3,H  37)          126.8446         0.267477   
     89. A(C   4,C   3,C   5)          106.9024         0.412406   
     90. A(C   5,C   3,H  37)          126.0969         0.346829   
     91. A(Ir  0,C   3,C   5)           73.7152         0.312837   
     92. A(C   4,C   3,H  37)          126.6374         0.346869   
     93. A(Ir  0,C   4,C   1)           71.0595         0.319178   
     94. A(C   3,C   4,H  38)          126.0990         0.346562   
     95. A(C   1,C   4,H  38)          125.4864         0.349598   
     96. A(Ir  0,C   4,C   3)           71.4214         0.316496   
     97. A(Ir  0,C   4,H  38)          122.4964         0.270151   
     98. A(C   1,C   4,C   3)          108.4054         0.416269   
     99. A(Ir  0,C   5,C   2)           71.6562         0.305034   
    100. A(Ir  0,C   5,H  29)          122.7017         0.257214   
    101. A(C   2,C   5,H  29)          125.4204         0.352248   
    102. A(C   3,C   5,H  29)          125.1948         0.346450   
    103. A(Ir  0,C   5,C   3)           68.4717         0.300277   
    104. A(C   2,C   5,C   3)          109.2449         0.419638   
    105. A(Ir  0,N   6,C  17)          115.9171         0.340816   
    106. A(C   7,N   6,C  17)          121.7825         0.420177   
    107. A(Ir  0,N   6,C   7)          122.2801         0.304607   
    108. A(C   8,C   7,H  13)          107.9811         0.325662   
    109. A(C  12,C   7,H  13)          108.8503         0.325140   
    110. A(N   6,C   7,C   8)          113.7846         0.369782   
    111. A(N   6,C   7,C  12)          109.2856         0.369163   
    112. A(C   8,C   7,C  12)          111.5327         0.366421   
    113. A(N   6,C   7,H  13)          105.1041         0.328001   
    114. A(C   7,C   8,H   9)          108.8632         0.326125   
    115. A(C   7,C   8,H  10)          112.9754         0.325727   
    116. A(H   9,C   8,H  10)          106.5944         0.290895   
    117. A(C   7,C   8,H  11)          111.8753         0.325848   
    118. A(H   9,C   8,H  11)          107.5071         0.290999   
    119. A(H  10,C   8,H  11)          108.7508         0.290659   
    120. A(C   7,C  12,H  14)          110.0372         0.325505   
    121. A(C   7,C  12,H  15)          111.0529         0.325224   
    122. A(H  14,C  12,H  15)          107.8283         0.290829   
    123. A(C   7,C  12,H  16)          112.0686         0.325586   
    124. A(H  14,C  12,H  16)          107.6436         0.291138   
    125. A(H  15,C  12,H  16)          108.0502         0.290899   
    126. A(N   6,C  17,C  18)          114.3831         0.443215   
    127. A(N   6,C  17,H  19)          122.5402         0.369572   
    128. A(C  18,C  17,H  19)          123.0546         0.345940   
    129. A(C  17,C  18,S  22)          129.3760         0.436549   
    130. A(C  20,C  18,S  22)          113.9682         0.446045   
    131. A(C  17,C  18,C  20)          116.6220         0.422244   
    132. A(C  18,C  20,C  21)          109.1523         0.421773   
    133. A(Ir  0,C  20,H  24)           89.8117         0.239786   
    134. A(C  18,C  20,H  24)          101.5658         0.289999   
    135. A(C  21,C  20,H  24)           99.9002         0.284376   
    136. A(Ir  0,C  20,C  18)          112.6404         0.345825   
    137. A(Ir  0,C  20,C  21)          134.0425         0.338640   
    138. A(C  20,C  21,C  23)          113.2313         0.431147   
    139. A(C  20,C  21,H  25)          124.0793         0.346524   
    140. A(C  23,C  21,H  25)          122.5974         0.361399   
    141. A(C  18,S  22,C  23)           90.9296         0.457544   
    142. A(C  21,C  23,S  22)          112.7083         0.452330   
    143. A(C  21,C  23,H  26)          127.5523         0.361644   
    144. A(S  22,C  23,H  26)          119.7285         0.362714   
    145. A(C  20,H  24,O  30)          172.7030         0.211008   
    146. A(H  24,O  30,C  32)          107.5398         0.314699   
    147. A(Ir  0,O  31,C  32)          127.2246         0.349520   
    148. A(O  30,C  32,O  31)          123.9730         0.491885   
    149. A(O  30,C  32,C  33)          117.8858         0.430642   
    150. A(O  31,C  32,C  33)          118.1288         0.429840   
    151. A(C  32,C  33,H  34)          110.7999         0.331008   
    152. A(C  32,C  33,H  35)          108.8585         0.330240   
    153. A(H  34,C  33,H  35)          107.1933         0.290994   
    154. A(C  32,C  33,H  36)          111.3735         0.331319   
    155. A(H  34,C  33,H  36)          110.1914         0.291897   
    156. A(H  35,C  33,H  36)          108.2893         0.291253   
    157. D(H  27,C   1,Ir  0,C  20)    -59.1970         0.001702   
    158. D(C   2,C   1,Ir  0,C   3)     78.4696         0.001702   
    159. D(C   2,C   1,Ir  0,O  31)     -3.3108         0.001702   
    160. D(H  27,C   1,Ir  0,C   4)   -120.4457         0.001702   
    161. D(H  27,C   1,Ir  0,O  31)    120.0757         0.001702   
    162. D(C   4,C   1,Ir  0,N   6)    143.5719         0.001702   
    163. D(C   4,C   1,Ir  0,C   5)    -80.0680         0.001702   
    164. D(C   4,C   1,Ir  0,C  20)     61.2487         0.001702   
    165. D(C   4,C   1,Ir  0,C   2)   -116.1679         0.001702   
    166. D(C   2,C   1,Ir  0,C   5)     36.0999         0.001702   
    167. D(C   2,C   1,Ir  0,C  20)    177.4166         0.001702   
    168. D(H  27,C   1,Ir  0,C   5)    159.4863         0.001702   
    169. D(C   2,C   1,Ir  0,N   6)   -100.2602         0.001702   
    170. D(H  27,C   1,Ir  0,C   3)   -158.1440         0.001702   
    171. D(H  27,C   1,Ir  0,C   2)    123.3864         0.001702   
    172. D(C   4,C   1,Ir  0,O  31)   -119.4786         0.001702   
    173. D(C   4,C   1,Ir  0,C   3)    -37.6983         0.001702   
    174. D(C   2,C   1,Ir  0,C   4)    116.1679         0.001702   
    175. D(H  27,C   1,Ir  0,N   6)     23.1262         0.001702   
    176. D(H  28,C   2,Ir  0,C   5)    121.7810         0.001613   
    177. D(H  28,C   2,C   1,C   4)   -177.0975         0.021061   
    178. D(C   5,C   2,C   1,H  27)    177.2466         0.021061   
    179. D(Ir  0,C   2,C   1,C   4)     62.8141         0.021061   
    180. D(C   5,C   2,Ir  0,O  31)    -63.4794         0.001613   
    181. D(H  28,C   2,Ir  0,C   1)   -119.9121         0.001613   
    182. D(C   1,C   2,Ir  0,C   3)    -81.9249         0.001613   
    183. D(H  28,C   2,Ir  0,O  31)     58.3017         0.001613   
    184. D(H  28,C   2,C   1,H  27)     -1.4171         0.021061   
    185. D(C   1,C   2,Ir  0,C   5)   -118.3068         0.001613   
    186. D(C   5,C   2,Ir  0,C   3)     36.3819         0.001613   
    187. D(C   1,C   2,Ir  0,C  20)     -4.9231         0.001613   
    188. D(Ir  0,C   2,C   1,H  27)   -121.5055         0.021061   
    189. D(H  28,C   2,Ir  0,N   6)    -30.1022         0.001613   
    190. D(H  28,C   2,C   1,Ir  0)    120.0884         0.021061   
    191. D(C   5,C   2,Ir  0,C   1)    118.3068         0.001613   
    192. D(C   1,C   2,Ir  0,C   4)    -38.5057         0.001613   
    193. D(H  28,C   2,Ir  0,C  20)   -124.8353         0.001613   
    194. D(C   5,C   2,Ir  0,C  20)    113.3837         0.001613   
    195. D(C   1,C   2,Ir  0,N   6)     89.8099         0.001613   
    196. D(C   5,C   2,C   1,Ir  0)    -61.2479         0.021061   
    197. D(C   5,C   2,Ir  0,C   4)     79.8011         0.001613   
    198. D(H  28,C   2,Ir  0,C   3)    158.1629         0.001613   
    199. D(C   5,C   2,Ir  0,N   6)   -151.8832         0.001613   
    200. D(C   5,C   2,C   1,C   4)      1.5662         0.021061   
    201. D(C   1,C   2,Ir  0,O  31)    178.2138         0.001613   
    202. D(H  28,C   2,Ir  0,C   4)   -158.4179         0.001613   
    203. D(C   4,C   3,Ir  0,C   2)     80.2249         0.001684   
    204. D(H  37,C   3,Ir  0,C   1)    158.8284         0.001684   
    205. D(C   5,C   3,Ir  0,C  20)    174.4100         0.001684   
    206. D(H  37,C   3,Ir  0,C   5)   -123.2347         0.001684   
    207. D(H  37,C   3,Ir  0,C   2)   -158.4063         0.001684   
    208. D(C   5,C   3,Ir  0,C   1)    -77.9368         0.001684   
    209. D(C   4,C   3,Ir  0,N   6)     42.9108         0.001684   
    210. D(C   4,C   3,Ir  0,C  20)    -70.1935         0.001684   
    211. D(H  37,C   3,Ir  0,C   4)    121.3688         0.001684   
    212. D(C   4,C   3,Ir  0,O  31)   -173.9901         0.001684   
    213. D(C   5,C   3,Ir  0,C   4)   -115.3965         0.001684   
    214. D(H  37,C   3,Ir  0,N   6)    164.2795         0.001684   
    215. D(C   4,C   3,Ir  0,C   1)     37.4597         0.001684   
    216. D(C   5,C   3,Ir  0,C   2)    -35.1716         0.001684   
    217. D(C   5,C   3,Ir  0,O  31)     70.6134         0.001684   
    218. D(C   4,C   3,Ir  0,C   5)    115.3965         0.001684   
    219. D(C   5,C   3,Ir  0,N   6)    -72.4857         0.001684   
    220. D(H  37,C   3,Ir  0,C  20)     51.1753         0.001684   
    221. D(H  37,C   3,Ir  0,O  31)    -52.6213         0.001684   
    222. D(C   1,C   4,Ir  0,C  20)   -126.1147         0.001711   
    223. D(C   1,C   4,Ir  0,C   2)     38.3584         0.001711   
    224. D(C   3,C   4,Ir  0,C   2)    -79.5145         0.001711   
    225. D(C   1,C   4,Ir  0,C   5)     79.4589         0.001711   
    226. D(C   1,C   4,Ir  0,N   6)    -50.2550         0.001711   
    227. D(C   3,C   4,Ir  0,C   5)    -38.4140         0.001711   
    228. D(C   3,C   4,Ir  0,C   1)   -117.8728         0.001711   
    229. D(C   1,C   4,Ir  0,O  31)    128.2012         0.001711   
    230. D(C   1,C   4,Ir  0,C   3)    117.8728         0.001711   
    231. D(H  38,C   4,C   1,Ir  0)   -116.9310         0.025611   
    232. D(C   3,C   4,Ir  0,C  20)    116.0125         0.001711   
    233. D(C   3,C   4,Ir  0,O  31)     10.3283         0.001711   
    234. D(Ir  0,C   4,C   1,C   2)    -64.9884         0.025611   
    235. D(H  38,C   4,Ir  0,C   1)    120.6028         0.001711   
    236. D(H  38,C   4,Ir  0,C   3)   -121.5244         0.001711   
    237. D(H  38,C   4,Ir  0,C   5)   -159.9383         0.001711   
    238. D(H  38,C   4,Ir  0,N   6)     70.3478         0.001711   
    239. D(H  38,C   4,Ir  0,C  20)     -5.5119         0.001711   
    240. D(H  38,C   4,Ir  0,C   2)    158.9612         0.001711   
    241. D(Ir  0,C   4,C   1,H  27)    119.2912         0.025611   
    242. D(H  38,C   4,Ir  0,O  31)   -111.1960         0.001711   
    243. D(C   3,C   4,C   1,Ir  0)     62.0179         0.025611   
    244. D(C   3,C   4,C   1,C   2)     -2.9705         0.025611   
    245. D(H  38,C   4,C   1,C   2)    178.0806         0.025611   
    246. D(C   3,C   4,Ir  0,N   6)   -168.1279         0.001711   
    247. D(C   3,C   4,C   1,H  27)   -178.6909         0.025611   
    248. D(Ir  0,C   4,C   3,H  37)   -121.6213         0.022981   
    249. D(Ir  0,C   4,C   3,C   5)     64.9946         0.022981   
    250. D(H  38,C   4,C   3,C   5)   -177.8523         0.022981   
    251. D(C   1,C   4,C   3,C   5)      3.2069         0.022981   
    252. D(C   1,C   4,C   3,H  37)    176.5911         0.022981   
    253. D(H  38,C   4,C   3,Ir  0)    117.1531         0.022981   
    254. D(H  38,C   4,C   1,H  27)      2.3602         0.025611   
    255. D(H  38,C   4,C   3,H  37)     -4.4682         0.022981   
    256. D(C   1,C   4,C   3,Ir  0)    -61.7876         0.022981   
    257. D(H  29,C   5,C   2,H  28)     -5.0166         0.028221   
    258. D(C   2,C   5,Ir  0,C   4)    -81.0459         0.001612   
    259. D(C   2,C   5,Ir  0,C   3)   -120.2710         0.001612   
    260. D(C   3,C   5,C   2,C   1)      0.4370         0.028221   
    261. D(C   2,C   5,Ir  0,C  20)   -129.5639         0.001612   
    262. D(C   2,C   5,Ir  0,O  31)    123.6673         0.001612   
    263. D(H  29,C   5,Ir  0,O  31)      2.8210         0.001612   
    264. D(C   3,C   5,Ir  0,C   2)    120.2710         0.001612   
    265. D(C   3,C   5,Ir  0,C   4)     39.2251         0.001612   
    266. D(C   3,C   5,Ir  0,N   6)    161.5451         0.001612   
    267. D(C   3,C   5,Ir  0,C  20)     -9.2929         0.001612   
    268. D(C   3,C   5,Ir  0,O  31)   -116.0617         0.001612   
    269. D(H  29,C   5,Ir  0,C   1)   -158.5931         0.001612   
    270. D(H  29,C   5,Ir  0,C   2)   -120.8462         0.001612   
    271. D(H  29,C   5,Ir  0,C   3)    118.8828         0.001612   
    272. D(H  29,C   5,Ir  0,C   4)    158.1079         0.001612   
    273. D(H  29,C   5,Ir  0,N   6)    -79.5721         0.001612   
    274. D(C   3,C   5,Ir  0,C   1)     82.5241         0.001612   
    275. D(H  29,C   5,Ir  0,C  20)    109.5898         0.001612   
    276. D(Ir  0,C   5,C   2,C   1)     58.7524         0.028221   
    277. D(Ir  0,C   5,C   2,H  28)   -122.5747         0.028221   
    278. D(C   2,C   5,Ir  0,N   6)     41.2741         0.001612   
    279. D(C   3,C   5,C   2,Ir  0)    -58.3154         0.028221   
    280. D(H  29,C   5,C   2,Ir  0)    117.5581         0.028221   
    281. D(C   3,C   5,C   2,H  28)    179.1099         0.028221   
    282. D(C   2,C   5,Ir  0,C   1)    -37.7469         0.001612   
    283. D(H  29,C   5,C   2,C   1)    176.3105         0.028221   
    284. D(H  29,C   5,C   3,H  37)      8.4401         0.022948   
    285. D(Ir  0,C   5,C   3,H  37)    124.0651         0.022948   
    286. D(C   2,C   5,C   3,Ir  0)     60.2600         0.022948   
    287. D(C   2,C   5,C   3,C   4)     -2.2448         0.022948   
    288. D(C   2,C   5,C   3,H  37)   -175.6749         0.022948   
    289. D(H  29,C   5,C   3,Ir  0)   -115.6250         0.022948   
    290. D(Ir  0,C   5,C   3,C   4)    -62.5048         0.022948   
    291. D(H  29,C   5,C   3,C   4)   -178.1298         0.022948   
    292. D(C   7,N   6,Ir  0,C   1)     78.4389         0.001770   
    293. D(C   7,N   6,Ir  0,C   2)     39.1292         0.001770   
    294. D(C   7,N   6,Ir  0,C   3)     73.4045         0.001770   
    295. D(C   7,N   6,Ir  0,C   4)    107.6935         0.001770   
    296. D(C   7,N   6,Ir  0,C   5)     15.0027         0.001770   
    297. D(C   7,N   6,Ir  0,C  20)   -170.3725         0.001770   
    298. D(C   7,N   6,Ir  0,O  31)    -71.4421         0.001770   
    299. D(C  17,N   6,Ir  0,C   1)   -103.1712         0.001770   
    300. D(C  17,N   6,Ir  0,C   2)   -142.4809         0.001770   
    301. D(C  17,N   6,Ir  0,C   3)   -108.2056         0.001770   
    302. D(C  17,N   6,Ir  0,C   4)    -73.9166         0.001770   
    303. D(C  17,N   6,Ir  0,C   5)   -166.6074         0.001770   
    304. D(C  17,N   6,Ir  0,C  20)      8.0174         0.001770   
    305. D(C  17,N   6,Ir  0,O  31)    106.9478         0.001770   
    306. D(C   8,C   7,N   6,Ir  0)    146.5729         0.014813   
    307. D(C   8,C   7,N   6,C  17)    -31.7235         0.014813   
    308. D(C  12,C   7,N   6,Ir  0)    -88.0355         0.014813   
    309. D(C  12,C   7,N   6,C  17)     93.6681         0.014813   
    310. D(H  13,C   7,N   6,Ir  0)     28.6437         0.014813   
    311. D(H  13,C   7,N   6,C  17)   -149.6526         0.014813   
    312. D(H   9,C   8,C   7,N   6)   -170.6357         0.011783   
    313. D(H   9,C   8,C   7,C  12)     65.1762         0.011783   
    314. D(H   9,C   8,C   7,H  13)    -54.3771         0.011783   
    315. D(H  10,C   8,C   7,N   6)     71.1572         0.011783   
    316. D(H  10,C   8,C   7,C  12)    -53.0308         0.011783   
    317. D(H  10,C   8,C   7,H  13)   -172.5842         0.011783   
    318. D(H  11,C   8,C   7,N   6)    -51.9674         0.011783   
    319. D(H  11,C   8,C   7,C  12)   -176.1555         0.011783   
    320. D(H  11,C   8,C   7,H  13)     64.2911         0.011783   
    321. D(H  14,C  12,C   7,N   6)    174.3705         0.011567   
    322. D(H  14,C  12,C   7,C   8)    -58.9457         0.011567   
    323. D(H  14,C  12,C   7,H  13)     60.0918         0.011567   
    324. D(H  15,C  12,C   7,N   6)    -66.3162         0.011567   
    325. D(H  15,C  12,C   7,C   8)     60.3677         0.011567   
    326. D(H  15,C  12,C   7,H  13)    179.4051         0.011567   
    327. D(H  16,C  12,C   7,N   6)     54.6355         0.011567   
    328. D(H  16,C  12,C   7,C   8)   -178.6806         0.011567   
    329. D(H  16,C  12,C   7,H  13)    -59.6431         0.011567   
    330. D(C  18,C  17,N   6,Ir  0)     -1.3532         0.058875   
    331. D(C  18,C  17,N   6,C   7)    177.0454         0.058875   
    332. D(H  19,C  17,N   6,Ir  0)   -179.6938         0.058875   
    333. D(H  19,C  17,N   6,C   7)     -1.2952         0.058875   
    334. D(C  20,C  18,C  17,N   6)     -9.9979         0.019990   
    335. D(C  20,C  18,C  17,H  19)    168.3330         0.019990   
    336. D(S  22,C  18,C  17,N   6)    167.7382         0.019990   
    337. D(S  22,C  18,C  17,H  19)    -13.9309         0.019990   
    338. D(C  18,C  20,Ir  0,C   1)     86.0297         0.001978   
    339. D(H  24,C  20,C  18,C  17)    -78.1058         0.027850   
    340. D(C  18,C  20,Ir  0,C   3)    154.9776         0.001978   
    341. D(C  18,C  20,Ir  0,C   4)    119.0097         0.001978   
    342. D(Ir  0,C  20,C  18,C  17)     16.5817         0.027850   
    343. D(C  18,C  20,Ir  0,N   6)    -12.6601         0.001978   
    344. D(C  18,C  20,Ir  0,O  31)    -93.6027         0.001978   
    345. D(H  24,C  20,Ir  0,C   4)   -138.5240         0.001978   
    346. D(C  21,C  20,Ir  0,C   2)    -64.5485         0.001978   
    347. D(C  21,C  20,Ir  0,C   3)      1.0950         0.001978   
    348. D(C  21,C  20,Ir  0,C   4)    -34.8729         0.001978   
    349. D(C  21,C  20,Ir  0,C   5)      7.0469         0.001978   
    350. D(C  21,C  20,Ir  0,N   6)   -166.5427         0.001978   
    351. D(C  21,C  20,Ir  0,O  31)    112.5146         0.001978   
    352. D(H  24,C  20,Ir  0,C   1)   -171.5040         0.001978   
    353. D(H  24,C  20,Ir  0,C   2)   -168.1997         0.001978   
    354. D(C  21,C  20,Ir  0,C   1)    -67.8529         0.001978   
    355. D(H  24,C  20,Ir  0,C   3)   -102.5562         0.001978   
    356. D(H  24,C  20,Ir  0,C   5)    -96.6043         0.001978   
    357. D(H  24,C  20,Ir  0,N   6)     89.8062         0.001978   
    358. D(C  18,C  20,Ir  0,C   5)    160.9295         0.001978   
    359. D(H  24,C  20,Ir  0,O  31)      8.8635         0.001978   
    360. D(Ir  0,C  20,C  18,S  22)   -161.5033         0.027850   
    361. D(C  21,C  20,C  18,C  17)    177.0106         0.027850   
    362. D(C  18,C  20,Ir  0,C   2)     89.3341         0.001978   
    363. D(C  21,C  20,C  18,S  22)     -1.0744         0.027850   
    364. D(H  24,C  20,C  18,S  22)    103.8092         0.027850   
    365. D(C  23,C  21,C  20,Ir  0)    155.5283         0.021409   
    366. D(C  23,C  21,C  20,C  18)      1.0018         0.021409   
    367. D(C  23,C  21,C  20,H  24)   -105.0237         0.021409   
    368. D(H  25,C  21,C  20,Ir  0)    -27.8859         0.021409   
    369. D(H  25,C  21,C  20,C  18)    177.5876         0.021409   
    370. D(H  25,C  21,C  20,H  24)     71.5621         0.021409   
    371. D(C  23,S  22,C  18,C  17)   -177.0919         0.005918   
    372. D(C  23,S  22,C  18,C  20)      0.6933         0.005918   
    373. D(S  22,C  23,C  21,C  20)     -0.5194         0.033330   
    374. D(S  22,C  23,C  21,H  25)   -177.1629         0.033330   
    375. D(H  26,C  23,C  21,C  20)    178.2653         0.033330   
    376. D(H  26,C  23,C  21,H  25)      1.6218         0.033330   
    377. D(C  21,C  23,S  22,C  18)     -0.0886         0.005513   
    378. D(H  26,C  23,S  22,C  18)   -178.9791         0.005513   
    379. D(O  30,H  24,C  20,Ir  0)    -23.8163         0.008975   
    380. D(O  30,H  24,C  20,C  18)     89.2785         0.008975   
    381. D(O  30,H  24,C  20,C  21)   -158.6564         0.008975   
    382. D(C  32,O  30,H  24,C  20)     15.7713         0.012854   
    383. D(C  32,O  31,Ir  0,C   1)    168.8227         0.001791   
    384. D(C  32,O  31,Ir  0,C   2)    166.6187         0.001791   
    385. D(C  32,O  31,Ir  0,C   3)     98.9983         0.001791   
    386. D(C  32,O  31,Ir  0,C   4)     92.2434         0.001791   
    387. D(C  32,O  31,Ir  0,C   5)    134.3830         0.001791   
    388. D(C  32,O  31,Ir  0,N   6)    -88.9302         0.001791   
    389. D(C  32,O  31,Ir  0,C  20)    -11.8525         0.001791   
    390. D(O  31,C  32,O  30,H  24)      1.4686         0.066015   
    391. D(C  33,C  32,O  30,H  24)   -179.8360         0.066015   
    392. D(O  30,C  32,O  31,Ir  0)      5.4733         0.064474   
    393. D(C  33,C  32,O  31,Ir  0)   -173.2191         0.064474   
    394. D(H  34,C  33,C  32,O  30)     38.5932         0.012993   
    395. D(H  34,C  33,C  32,O  31)   -142.6336         0.012993   
    396. D(H  35,C  33,C  32,O  30)    -79.0452         0.012993   
    397. D(H  35,C  33,C  32,O  31)     99.7280         0.012993   
    398. D(H  36,C  33,C  32,O  30)    161.6284         0.012993   
    399. D(H  36,C  33,C  32,O  31)    -19.5984         0.012993   
    -----------------------------------------------------------------

Number of atoms                         .... 39
Number of degrees of freedom            .... 399

         *************************************************************
         *                GEOMETRY OPTIMIZATION CYCLE   1            *
         *************************************************************
---------------------------------
CARTESIAN COORDINATES (ANGSTROEM)
---------------------------------
  Ir     0.614516   -0.741207    0.388120
  C      0.181936   -2.856827    0.316214
  C     -0.124652   -2.431378    1.660243
  C      2.121497   -2.037488    1.267166
  C      1.567762   -2.651464    0.099489
  C      1.063904   -1.941533    2.228555
  N     -1.089338    0.100767   -0.509132
  C     -2.359577    0.260519    0.213731
  C     -3.149278    1.494651   -0.198262
  H     -3.980880    1.627088    0.491987
  H     -3.582791    1.409410   -1.195634
  H     -2.541243    2.398617   -0.156501
  C     -3.188246   -1.010302    0.062588
  H     -2.077897    0.375179    1.261671
  H     -4.087203   -0.944649    0.674302
  H     -3.498806   -1.154717   -0.972991
  H     -2.639165   -1.896558    0.376887
  C     -0.947092    0.497018   -1.715981
  C      0.365865    0.324713   -2.240574
  H     -1.754720    0.951981   -2.279907
  C      1.361773   -0.039973   -1.329401
  C      2.592810   -0.236737   -2.032977
  S      0.909716    0.447446   -3.844286
  C      2.489972   -0.003493   -3.372266
  H      1.636254    1.195244   -0.700254
  H      3.529377   -0.487865   -1.556018
  H      3.274797   -0.056847   -4.111597
  H     -0.501397   -3.320791   -0.379800
  H     -1.082989   -2.496735    2.152039
  H      1.152077   -1.495908    3.209175
  O      1.771189    2.303233   -0.006352
  O      0.627868    1.061621    1.432553
  C      1.193149    2.133015    1.093905
  C      1.202487    3.267208    2.073461
  H      1.081869    4.219774    1.562570
  H      2.170923    3.291136    2.576276
  H      0.430025    3.145619    2.827194
  H      3.159777   -1.799148    1.438402
  H      2.105102   -2.901428   -0.803858

----------------------------
CARTESIAN COORDINATES (A.U.)
----------------------------
  NO LB      ZA    FRAG     MASS         X           Y           Z
   0 Ir   17.0000*   0   192.220    1.161267   -1.400677    0.733441
   1 C     6.0000    0    12.011    0.343809   -5.398621    0.597557
   2 C     6.0000    0    12.011   -0.235559   -4.594638    3.137405
   3 C     6.0000    0    12.011    4.009049   -3.850294    2.394597
   4 C     6.0000    0    12.011    2.962641   -5.010541    0.188007
   5 C     6.0000    0    12.011    2.010488   -3.668965    4.211359
   6 N     7.0000    0    14.007   -2.058550    0.190422   -0.962119
   7 C     6.0000    0    12.011   -4.458955    0.492309    0.403894
   8 C     6.0000    0    12.011   -5.951273    2.824482   -0.374661
   9 H     1.0000    0     1.008   -7.522773    3.074750    0.929720
  10 H     1.0000    0     1.008   -6.770493    2.663399   -2.259421
  11 H     1.0000    0     1.008   -4.802254    4.532729   -0.295745
  12 C     6.0000    0    12.011   -6.024912   -1.909195    0.118275
  13 H     1.0000    0     1.008   -3.926657    0.708985    2.384212
  14 H     1.0000    0     1.008   -7.723695   -1.785129    1.274246
  15 H     1.0000    0     1.008   -6.611785   -2.182098   -1.838687
  16 H     1.0000    0     1.008   -4.987298   -3.583976    0.712213
  17 C     6.0000    0    12.011   -1.789744    0.939228   -3.242733
  18 C     6.0000    0    12.011    0.691384    0.613618   -4.234072
  19 H     1.0000    0     1.008   -3.315939    1.798984   -4.308400
  20 C     6.0000    0    12.011    2.573378   -0.075539   -2.512204
  21 C     6.0000    0    12.011    4.899701   -0.447367   -3.841771
  22 S    16.0000    0    32.060    1.719115    0.845551   -7.264647
  23 C     6.0000    0    12.011    4.705365   -0.006601   -6.372659
  24 H     1.0000    0     1.008    3.092071    2.258684   -1.323288
  25 H     1.0000    0     1.008    6.669556   -0.921932   -2.940448
  26 H     1.0000    0     1.008    6.188469   -0.107425   -7.769792
  27 H     1.0000    0     1.008   -0.947503   -6.275386   -0.717718
  28 H     1.0000    0     1.008   -2.046552   -4.718146    4.066765
  29 H     1.0000    0     1.008    2.177109   -2.826857    6.064462
  30 O     8.0000    0    15.999    3.347063    4.352480   -0.012004
  31 O     8.0000    0    15.999    1.186498    2.006173    2.707133
  32 C     6.0000    0    12.011    2.254726    4.030815    2.067181
  33 C     6.0000    0    12.011    2.272371    6.174127    3.918274
  34 H     1.0000    0     1.008    2.044435    7.974218    2.952830
  35 H     1.0000    0     1.008    4.102450    6.219346    4.868457
  36 H     1.0000    0     1.008    0.812630    5.944358    5.342623
  37 H     1.0000    0     1.008    5.971112   -3.399897    2.718187
  38 H     1.0000    0     1.008    3.978066   -5.482905   -1.519071
* core charge reduced due to ECP

--------------------------------
INTERNAL COORDINATES (ANGSTROEM)
--------------------------------
 Ir     0   0   0     0.000000000000     0.00000000     0.00000000
 C      1   0   0     2.160958035137     0.00000000     0.00000000
 C      2   1   0     1.442446947407    73.91657744     0.00000000
 C      1   2   3     2.173871803084    64.39120889    78.40704789
 C      2   1   3     1.416892412203    70.58847681   243.86883610
 C      3   2   1     1.404391195355   107.46204568   298.73099864
 N      1   2   3     2.101308544364   102.54127248   259.64992581
 C      7   1   2     1.470216823934   122.20769478    78.39010788
 C      8   7   1     1.521981138236   113.78458960   146.57167937
 H      9   8   7     1.088821614586   108.86319070   189.36433616
 H      9   8   7     1.090845092590   112.97514298    71.15734732
 H      9   8   7     1.090229335267   111.87538490   308.03244588
 C      8   7   1     1.524636464519   109.28549727   271.96329044
 H      8   7   1     1.091173986106   105.10411360    28.64278517
 H     13   8   7     1.089318777581   110.03705424   174.37048988
 H     13   8   7     1.090743571922   111.05316638   293.68386906
 H     13   8   7     1.088904280294   112.06866219    54.63556901
 C      7   1   2     1.283513191074   116.06900063   256.77467100
 C     18   7   1     1.429271864051   115.06217243   358.50047871
 H     18   7   1     1.085010180281   122.20249122   180.25042301
 C     19  18   7     1.396850217070   116.63728937   350.00774094
 C     21  19  18     1.430973331586   109.34704590   176.99968012
 S     19  18   7     1.697901065752   129.46656848   167.80472512
 C     22  21  19     1.363439131965   113.11687550     1.08239106
 H     21  19  18     1.412743838633   101.72083069   282.21251679
 H     22  21  19     1.080577600904   124.13299011   177.68495082
 H     24  22  21     1.079496488055   127.55398693   178.25956570
 H      2   1   3     1.080111163200   124.64805081   123.40791297
 H      3   2   1     1.079135768144   126.54504360   120.07608704
 H      6   3   2     1.080724117757   125.41250738   176.31729689
 O     25  21  19     1.328571433340   172.24905120    88.91199397
 O      1   2   3     2.083535855194   149.96795073   356.67410635
 C     31  25  21     1.257592116564   107.93908708    15.53484034
 C     33  31  25     1.498660907482   117.67008867   180.15928974
 H     34  33  31     1.087627812083   110.79982650    38.56035137
 H     34  33  31     1.091449768965   108.85844552   280.92170633
 H     34  33  31     1.086085691280   111.37349519   161.59533112
 H      4   1   2     1.078955620386   126.83057753   158.83991870
 H      5   2   1     1.080387042985   125.48161355   243.07879114

---------------------------
INTERNAL COORDINATES (A.U.)
---------------------------
 Ir     0   0   0     0.000000000000     0.00000000     0.00000000
 C      1   0   0     4.083618873305     0.00000000     0.00000000
 C      2   1   0     2.725829693310    73.91657744     0.00000000
 C      1   2   3     4.108022358082    64.39120889    78.40704789
 C      2   1   3     2.677538620294    70.58847681   243.86883610
 C      3   2   1     2.653914744112   107.46204568   298.73099864
 N      1   2   3     3.970897671716   102.54127248   259.64992581
 C      7   1   2     2.778307154719   122.20769478    78.39010788
 C      8   7   1     2.876127532260   113.78458960   146.57167937
 H      9   8   7     2.057574660261   108.86319070   189.36433616
 H      9   8   7     2.061398479526   112.97514298    71.15734732
 H      9   8   7     2.060234866822   111.87538490   308.03244588
 C      8   7   1     2.881145371731   109.28549727   271.96329044
 H      8   7   1     2.062019998199   105.10411360    28.64278517
 H     13   8   7     2.058514162166   110.03705424   174.37048988
 H     13   8   7     2.061206633268   111.05316638   293.68386906
 H     13   8   7     2.057730875810   112.06866219    54.63556901
 C      7   1   2     2.425488420406   116.06900063   256.77467100
 C     18   7   1     2.700932393976   115.06217243   358.50047871
 H     18   7   1     2.050372093247   122.20249122   180.25042301
 C     19  18   7     2.639664360371   116.63728937   350.00774094
 C     21  19  18     2.704147701643   109.34704590   176.99968012
 S     19  18   7     3.208568016765   129.46656848   167.80472512
 C     22  21  19     2.576526559685   113.11687550     1.08239106
 H     21  19  18     2.669698952401   101.72083069   282.21251679
 H     22  21  19     2.041995732158   124.13299011   177.68495082
 H     24  22  21     2.039952724953   127.55398693   178.25956570
 H      2   1   3     2.041114292640   124.64805081   123.40791297
 H      3   2   1     2.039271063112   126.54504360   120.07608704
 H      6   3   2     2.042272608885   125.41250738   176.31729689
 O     25  21  19     2.510636158364   172.24905120    88.91199397
 O      1   2   3     3.937312156523   149.96795073   356.67410635
 C     31  25  21     2.376504688484   107.93908708    15.53484034
 C     33  31  25     2.832058682756   117.67008867   180.15928974
 H     34  33  31     2.055318700472   110.79982650    38.56035137
 H     34  33  31     2.062541152275   108.85844552   280.92170633
 H     34  33  31     2.052404514490   111.37349519   161.59533112
 H      4   1   2     2.038930633185   126.83057753   158.83991870
 H      5   2   1     2.041635629878   125.48161355   243.07879114

---------------------
BASIS SET INFORMATION
---------------------
There are 6 groups of distinct atoms

 Group   1 Type Ir  : 7s6p5d1f contracted to 6s3p2d1f pattern {211111/411/41/1}
 Group   2 Type C   : 8s4p1d contracted to 4s2p1d pattern {5111/31/1}
 Group   3 Type N   : 8s4p1d contracted to 4s2p1d pattern {5111/31/1}
 Group   4 Type H   : 4s contracted to 2s pattern {31}
 Group   5 Type S   : 10s7p1d contracted to 4s3p1d pattern {5311/511/1}
 Group   6 Type O   : 8s4p1d contracted to 4s2p1d pattern {5111/31/1}

Atom   0Ir   basis set group =>   1
Atom   1C    basis set group =>   2
Atom   2C    basis set group =>   2
Atom   3C    basis set group =>   2
Atom   4C    basis set group =>   2
Atom   5C    basis set group =>   2
Atom   6N    basis set group =>   3
Atom   7C    basis set group =>   2
Atom   8C    basis set group =>   2
Atom   9H    basis set group =>   4
Atom  10H    basis set group =>   4
Atom  11H    basis set group =>   4
Atom  12C    basis set group =>   2
Atom  13H    basis set group =>   4
Atom  14H    basis set group =>   4
Atom  15H    basis set group =>   4
Atom  16H    basis set group =>   4
Atom  17C    basis set group =>   2
Atom  18C    basis set group =>   2
Atom  19H    basis set group =>   4
Atom  20C    basis set group =>   2
Atom  21C    basis set group =>   2
Atom  22S    basis set group =>   5
Atom  23C    basis set group =>   2
Atom  24H    basis set group =>   4
Atom  25H    basis set group =>   4
Atom  26H    basis set group =>   4
Atom  27H    basis set group =>   4
Atom  28H    basis set group =>   4
Atom  29H    basis set group =>   4
Atom  30O    basis set group =>   6
Atom  31O    basis set group =>   6
Atom  32C    basis set group =>   2
Atom  33C    basis set group =>   2
Atom  34H    basis set group =>   4
Atom  35H    basis set group =>   4
Atom  36H    basis set group =>   4
Atom  37H    basis set group =>   4
Atom  38H    basis set group =>   4
---------------------------------
AUXILIARY/J BASIS SET INFORMATION
---------------------------------
There are 6 groups of distinct atoms

 Group   1 Type Ir  : 11s5p5d3f3g contracted to 8s5p5d2f3g pattern {41111111/11111/11111/21/111}
 Group   2 Type C   : 12s5p4d2f1g contracted to 6s4p3d1f1g pattern {711111/2111/211/2/1}
 Group   3 Type N   : 12s5p4d2f1g contracted to 6s4p3d1f1g pattern {711111/2111/211/2/1}
 Group   4 Type H   : 5s2p1d contracted to 3s1p1d pattern {311/2/1}
 Group   5 Type S   : 14s5p5d2f1g contracted to 8s4p3d1f1g pattern {71111111/2111/311/2/1}
 Group   6 Type O   : 12s5p4d2f1g contracted to 6s4p3d1f1g pattern {711111/2111/211/2/1}

Atom   0Ir   basis set group =>   1
Atom   1C    basis set group =>   2
Atom   2C    basis set group =>   2
Atom   3C    basis set group =>   2
Atom   4C    basis set group =>   2
Atom   5C    basis set group =>   2
Atom   6N    basis set group =>   3
Atom   7C    basis set group =>   2
Atom   8C    basis set group =>   2
Atom   9H    basis set group =>   4
Atom  10H    basis set group =>   4
Atom  11H    basis set group =>   4
Atom  12C    basis set group =>   2
Atom  13H    basis set group =>   4
Atom  14H    basis set group =>   4
Atom  15H    basis set group =>   4
Atom  16H    basis set group =>   4
Atom  17C    basis set group =>   2
Atom  18C    basis set group =>   2
Atom  19H    basis set group =>   4
Atom  20C    basis set group =>   2
Atom  21C    basis set group =>   2
Atom  22S    basis set group =>   5
Atom  23C    basis set group =>   2
Atom  24H    basis set group =>   4
Atom  25H    basis set group =>   4
Atom  26H    basis set group =>   4
Atom  27H    basis set group =>   4
Atom  28H    basis set group =>   4
Atom  29H    basis set group =>   4
Atom  30O    basis set group =>   6
Atom  31O    basis set group =>   6
Atom  32C    basis set group =>   2
Atom  33C    basis set group =>   2
Atom  34H    basis set group =>   4
Atom  35H    basis set group =>   4
Atom  36H    basis set group =>   4
Atom  37H    basis set group =>   4
Atom  38H    basis set group =>   4
-------------------------
ECP PARAMETER INFORMATION
-------------------------

 Group 1, Type Ir ECP Def2-ECP (replacing 60 core electrons, lmax=3)

Atom   0Ir   ECP group =>   1



           ************************************************************
           *        Program running with 4 parallel MPI-processes     *
           *              working on a common directory               *
           ************************************************************
------------------------------------------------------------------------------
                           ORCA GTO INTEGRAL CALCULATION
                           -- RI-GTO INTEGRALS CHOSEN --
------------------------------------------------------------------------------
------------------------------------------------------------------------------
                   ___                                                        
                  /   \      - P O W E R E D   B Y -                         
                 /     \                                                     
                 |  |  |   _    _      __       _____    __    __             
                 |  |  |  | |  | |    /  \     |  _  \  |  |  /  |          
                  \  \/   | |  | |   /    \    | | | |  |  | /  /          
                 / \  \   | |__| |  /  /\  \   | |_| |  |  |/  /          
                |  |  |   |  __  | /  /__\  \  |    /   |      \           
                |  |  |   | |  | | |   __   |  |    \   |  |\   \          
                \     /   | |  | | |  |  |  |  | |\  \  |  | \   \       
                 \___/    |_|  |_| |__|  |__|  |_| \__\ |__|  \__/        
                                                                              
                      - O R C A' S   B I G   F R I E N D -                    
                                      &                                       
                       - I N T E G R A L  F E E D E R -                       
                                                                              
 v1 FN, 2020, v2 2021                                                         
------------------------------------------------------------------------------


Reading SHARK input file reaction4-IEIP_ts_guess_scan_14-13_orca.SHARKINP.tmp ... ok
----------------------
SHARK INTEGRAL PACKAGE
----------------------

Number of atoms                             ...     39
Number of basis functions                   ...    358
Number of shells                            ...    184
Maximum angular momentum                    ...      3
Integral batch strategy                     ... SHARK/LIBINT Hybrid
RI-J (if used) integral strategy            ... SPLIT-RIJ (Revised 2003 algorithm where possible)
Printlevel                                  ...      1
Contraction scheme used                     ... SEGMENTED contraction
Coulomb Range Separation                    ... NOT USED
Exchange Range Separation                   ... NOT USED
Finite Nucleus Model                        ... NOT USED
Auxiliary Coulomb fitting basis             ... AVAILABLE
   # of basis functions in Aux-J            ...   1231
   # of shells in Aux-J                     ...    405
   Maximum angular momentum in Aux-J        ...      4
Auxiliary J/K fitting basis                 ... NOT available
Auxiliary Correlation fitting basis         ... NOT available
Auxiliary 'external' fitting basis          ... NOT available
Integral threshold                          ...     2.500000e-11
Primitive cut-off                           ...     2.500000e-12
Primitive pair pre-selection threshold      ...     2.500000e-12

Calculating pre-screening integrals         ... done (  0.1 sec) Dimension = 184
Organizing shell pair data                  ... done (  0.1 sec)
Shell pair information
Total number of shell pairs                 ...     17020
Shell pairs after pre-screening             ...     12999
Total number of primitive shell pairs       ...     60705
Primitive shell pairs kept                  ...     29267
          la=0 lb=0:   4978 shell pairs
          la=1 lb=0:   4274 shell pairs
          la=1 lb=1:    859 shell pairs
          la=2 lb=0:   1751 shell pairs
          la=2 lb=1:    787 shell pairs
          la=2 lb=2:    175 shell pairs
          la=3 lb=0:    112 shell pairs
          la=3 lb=1:     41 shell pairs
          la=3 lb=2:     21 shell pairs
          la=3 lb=3:      1 shell pairs

Calculating one electron integrals          ... done (  0.0 sec)
Calculating ECP integrals                   ... done (  0.9 sec)
Calculating RI/J V-Matrix + Cholesky decomp.... done (  0.1 sec)
Calculating Nuclear repulsion               ... done (  0.0 sec) ENN=   2038.282338664007 Eh

SHARK setup successfully completed in   1.4 seconds

Maximum memory used throughout the entire GTOINT-calculation: 27.2 MB


           ************************************************************
           *        Program running with 4 parallel MPI-processes     *
           *              working on a common directory               *
           ************************************************************
-------------------------------------------------------------------------------
                                 ORCA SCF
-------------------------------------------------------------------------------

------------
SCF SETTINGS
------------
Hamiltonian:
 Density Functional     Method          .... DFT(GTOs)
 Exchange Functional    Exchange        .... PBE
   PBE kappa parameter   XKappa         ....  1.024500
   PBE mue parameter    XMuePBE         ....  0.123457
 Correlation Functional Correlation     .... PBE
   PBE beta parameter  CBetaPBE         ....  0.030000
 LDA part of GGA corr.  LDAOpt          .... PW91-LDA
 Gradients option       PostSCFGGA      .... off
 Hybrid DFT is turned on
   Fraction HF Exchange ScalHFX         ....  0.420000
   Scaling of DF-GGA-X  ScalDFX         ....  0.580000
   Scaling of DF-GGA-C  ScalDFC         ....  1.000000
   Scaling of DF-LDA-C  ScalLDAC        ....  1.000000
   Perturbative correction              ....  0.000000
   Density functional embedding theory  .... OFF
 RI-approximation to the Coulomb term is turned on
   Number of AuxJ basis functions       .... 1231
   RIJ-ON(X) (HFX calculated with O(N)) .... on
   Number of AuxJ basis functions       .... 1231
   RIJ-COSX (HFX calculated with COS-X)).... on


General Settings:
 Integral files         IntName         .... reaction4-IEIP_ts_guess_scan_14-13_orca
 Hartree-Fock type      HFTyp           .... RHF
 Total Charge           Charge          ....    1
 Multiplicity           Mult            ....    1
 Number of Electrons    NEL             ....  164
 Basis Dimension        Dim             ....  358
 Nuclear Repulsion      ENuc            ....   2038.2823386640 Eh

Convergence Acceleration:
 DIIS                   CNVDIIS         .... on
   Start iteration      DIISMaxIt       ....    12
   Startup error        DIISStart       ....  0.200000
   # of expansion vecs  DIISMaxEq       ....     5
   Bias factor          DIISBfac        ....   1.050
   Max. coefficient     DIISMaxC        ....  10.000
 Trust-Rad. Augm. Hess. CNVTRAH         .... auto
   Auto Start mean grad. ratio tolernc. ....  1.125000
   Auto Start start iteration           ....    20
   Auto Start num. interpolation iter.  ....    10
   Max. Number of Micro iterations      ....    16
   Max. Number of Macro iterations      .... Maxiter - #DIIS iter
   Number of Davidson start vectors     ....     2
   Converg. threshold I  (grad. norm)   ....   1.000e-05
   Converg. threshold II (energy diff.) ....   1.000e-08
   Grad. Scal. Fac. for Micro threshold ....   0.100
   Minimum threshold for Micro iter.    ....   0.010
   NR start threshold (gradient norm)   ....   0.001
   Initial trust radius                 ....   0.400
   Minimum AH scaling param. (alpha)    ....   1.000
   Maximum AH scaling param. (alpha)    .... 1000.000
   Orbital update algorithm             .... Taylor
   White noise on init. David. guess    .... on
   Maximum white noise                  ....   0.010
   Quad. conv. algorithm                .... NR
   COSX micro iterations for RIJONX calc.... off
 SOSCF                  CNVSOSCF        .... off
 Level Shifting         CNVShift        .... on
   Level shift para.    LevelShift      ....    0.2500
   Turn off err/grad.   ShiftErr        ....    0.0010
 Zerner damping         CNVZerner       .... off
 Static damping         CNVDamp         .... on
   Fraction old density DampFac         ....    0.7000
   Max. Damping (<1)    DampMax         ....    0.9800
   Min. Damping (>=0)   DampMin         ....    0.0000
   Turn off err/grad.   DampErr         ....    0.1000
 Fernandez-Rico         CNVRico         .... off

SCF Procedure:
 Maximum # iterations   MaxIter         ....   250
 SCF integral mode      SCFMode         .... Direct
   Integral package                     .... SHARK and LIBINT hybrid scheme
 Reset frequency        DirectResetFreq ....    20
 Integral Threshold     Thresh          ....  2.500e-11 Eh
 Primitive CutOff       TCut            ....  2.500e-12 Eh

Convergence Tolerance:
 Convergence Check Mode ConvCheckMode   .... Total+1el-Energy
 Convergence forced     ConvForced      .... 0
 Energy Change          TolE            ....  1.000e-08 Eh
 1-El. energy change                    ....  1.000e-05 Eh
 DIIS Error             TolErr          ....  5.000e-07


Diagonalization of the overlap matrix:
Smallest eigenvalue                        ... 1.042e-03
Time for diagonalization                   ...    0.020 sec
Threshold for overlap eigenvalues          ... 1.000e-08
Number of eigenvalues below threshold      ... 0
Time for construction of square roots      ...    0.012 sec
Total time needed                          ...    0.033 sec

--------------------
INITIAL GUESS: HCORE
--------------------
                      -----------------
                      INTIAL GUESS DONE 
                      -----------------
-------------------
DFT GRID GENERATION
-------------------

General Integration Accuracy     IntAcc      ... 4.159
Radial Grid Type                 RadialGrid  ... OptM3 with GC (2021)
Angular Grid (max. ang.)         AngularGrid ... 3 (Lebedev-194)
Angular grid pruning method      GridPruning ... 4 (adaptive)
Weight generation scheme         WeightScheme... Becke
Basis function cutoff            BFCut       ... 1.0000e-11
Integration weight cutoff        WCut        ... 1.0000e-14
Angular grids for H and He will be reduced by one unit
Partially contracted basis set               ... off
Rotationally invariant grid construction     ... off

Total number of grid points                  ...    93310
Total number of batches                      ...     1478
Average number of points per batch           ...       63
Average number of grid points per atom       ...     2393
Time for grid setup =    0.598 sec

--------------------
COSX GRID GENERATION
--------------------

GRIDX 1
-------
General Integration Accuracy     IntAcc      ... 3.816
Radial Grid Type                 RadialGrid  ... OptM3 with GC (2021)
Angular Grid (max. ang.)         AngularGrid ... 1 (Lebedev-50)
Angular grid pruning method      GridPruning ... 4 (adaptive)
Weight generation scheme         WeightScheme... Becke
Basis function cutoff            BFCut       ... 1.0000e-11
Integration weight cutoff        WCut        ... 1.0000e-14
Angular grids for H and He will be reduced by one unit
Partially contracted basis set               ... on
Rotationally invariant grid construction     ... off

Total number of grid points                  ...    23199
Total number of batches                      ...      383
Average number of points per batch           ...       60
Average number of grid points per atom       ...      595
UseSFitting                                  ... on

GRIDX 2
-------
General Integration Accuracy     IntAcc      ... 4.020
Radial Grid Type                 RadialGrid  ... OptM3 with GC (2021)
Angular Grid (max. ang.)         AngularGrid ... 2 (Lebedev-110)
Angular grid pruning method      GridPruning ... 4 (adaptive)
Weight generation scheme         WeightScheme... Becke
Basis function cutoff            BFCut       ... 1.0000e-11
Integration weight cutoff        WCut        ... 1.0000e-14
Angular grids for H and He will be reduced by one unit
Partially contracted basis set               ... on
Rotationally invariant grid construction     ... off

Total number of grid points                  ...    50337
Total number of batches                      ...      808
Average number of points per batch           ...       62
Average number of grid points per atom       ...     1291
UseSFitting                                  ... on

GRIDX 3
-------
General Integration Accuracy     IntAcc      ... 4.338
Radial Grid Type                 RadialGrid  ... OptM3 with GC (2021)
Angular Grid (max. ang.)         AngularGrid ... 3 (Lebedev-194)
Angular grid pruning method      GridPruning ... 4 (adaptive)
Weight generation scheme         WeightScheme... Becke
Basis function cutoff            BFCut       ... 1.0000e-11
Integration weight cutoff        WCut        ... 1.0000e-14
Angular grids for H and He will be reduced by one unit
Partially contracted basis set               ... on
Rotationally invariant grid construction     ... off

Total number of grid points                  ...   108751
Total number of batches                      ...     1721
Average number of points per batch           ...       63
Average number of grid points per atom       ...     2788
UseSFitting                                  ... on

Time for X-Grid setup             =    1.582 sec

--------------
SCF ITERATIONS
--------------
ITER       Energy         Delta-E        Max-DP      RMS-DP      [F,P]     Damp
               ***  Starting incremental Fock matrix formation  ***
  0   -816.0520939677   0.00000000000020.19546089  0.14713867  3.5406961 0.7000
  1  -1076.2671603051-260.215066337358 7.51124948  0.13422782  1.6869268 0.7000
  2  -1155.1563757656 -78.889215460464 5.55131134  0.07023302  1.0638262 0.7000
  3  -1184.7783585744 -29.621982808854 3.59303253  0.04744867  0.7751978 0.7000
  4  -1207.0541674192 -22.275808844768 2.58052991  0.03801807  0.4943215 0.7000
  5  -1222.5846439756 -15.530476556389 1.99075973  0.03210833  0.3488710 0.7000
  6  -1233.8806579302 -11.296013954660 1.94541763  0.02851545  0.2806354 0.7000
  7  -1241.9707669518  -8.090109021545 1.62048639  0.02633837  0.2960148 0.7000
  8  -1249.3242377988  -7.353470847007 1.80618880  0.02510150  0.2780296 0.7000
  9  -1252.3638002131  -3.039562414327 1.50511572  0.02418174  0.3337173 0.7000
 10  -1256.5229141281  -4.159113915015 1.65329258  0.02337719  0.2948067 0.7000
 11  -1257.6851315707  -1.162217442597 1.42552555  0.02339284  0.3414881 0.7000
                               ***Turning on DIIS***
 12  -1260.1197892830  -2.434657712329 1.53981351  0.02298064  0.3072364 0.7000
 13  -1260.3201718882  -0.200382605203 1.23610541  0.01935721  0.3451089 0.7000
 14  -1267.9268689324  -7.606697044187 0.86639388  0.01386376  0.2663381 0.7000
 15  -1274.3601700638  -6.433301131351 0.61054003  0.00981905  0.2003500 0.7000
 16  -1278.8459009012  -4.485730837396 0.43219781  0.00693875  0.1439195 0.7000
 17  -1281.8770586717  -3.031157770557 1.02079219  0.01634324  0.0987460 0.0000
 18  -1288.4297004629  -6.552641791153 0.05197375  0.00061512  0.0294651 0.0000
 19  -1288.4462332468  -0.016532783867 0.03568437  0.00045681  0.0255097 0.0000
               *** Restarting incremental Fock matrix formation ***
                                   *** Resetting DIIS ***
 20  -1288.4483337790  -0.002100532230 0.03703301  0.00052272  0.0148293 0.0000
 21  -1288.4494848391  -0.001151060106 0.01832039  0.00020408  0.0187071 0.0000
 22  -1288.4515558379  -0.002070998813 0.00298364  0.00007391  0.0026288 0.0000
 23  -1288.4517284771  -0.000172639204 0.00422066  0.00004057  0.0025871 0.0000
 24  -1288.4517796109  -0.000051133821 0.00341129  0.00004110  0.0008239 0.0000
               *** Restarting incremental Fock matrix formation ***
                                   *** Resetting DIIS ***
 25  -1288.4521177438  -0.000338132900 0.00457226  0.00009870  0.0006986 0.0000
 26  -1288.4521372385  -0.000019494698 0.00110915  0.00001423  0.0007379 0.0000
 27  -1288.4521383150  -0.000001076494 0.00061959  0.00000847  0.0007275 0.0000
 28  -1288.4521408383  -0.000002523270 0.00041634  0.00000304  0.0001226 0.0000
 29  -1288.4521409480  -0.000000109700 0.00027828  0.00000206  0.0001429 0.0000
 30  -1288.4521410519  -0.000000103914 0.00013517  0.00000102  0.0000423 0.0000
 31  -1288.4521410687  -0.000000016837 0.00007851  0.00000067  0.0000221 0.0000
 32  -1288.4521410807  -0.000000011971 0.00002591  0.00000025  0.0000062 0.0000
 33  -1288.4521410877  -0.000000006933 0.00000989  0.00000011  0.0000032 0.0000
 34  -1288.4521410962  -0.000000008550 0.00000510  0.00000006  0.0000042 0.0000
 35  -1288.4521411034  -0.000000007176 0.00000343  0.00000003  0.0000011 0.0000
 36  -1288.4521410970   0.000000006378 0.00000345  0.00000003  0.0000018 0.0000
                            ***DIIS convergence achieved***

               *****************************************************
               *                     SUCCESS                       *
               *           SCF CONVERGED AFTER  37 CYCLES          *
               *****************************************************

Old exchange energy                            =    -59.649375320 Eh
New exchange energy                            =    -59.649555835 Eh
Exchange energy change after final integration =     -0.000180515 Eh
Total energy after final integration           =  -1288.452321619 Eh
Final COS-X integration done in                =    15.613 sec

----------------
TOTAL SCF ENERGY
----------------

Total Energy       :        -1288.45232162 Eh          -35060.57012 eV

Components:
Nuclear Repulsion  :         2038.28233866 Eh           55464.48219 eV
Electronic Energy  :        -3326.73466028 Eh          -90525.05231 eV
One Electron Energy:        -5832.20063828 Eh         -158702.24763 eV
Two Electron Energy:         2505.46597800 Eh           68177.19532 eV
Max COSX asymmetry :            0.00002668 Eh               0.00073 eV

Virial components:
Potential Energy   :        -2501.51720613 Eh          -68069.74378 eV
Kinetic Energy     :         1213.06488451 Eh           33009.17366 eV
Virial Ratio       :            2.06214625


DFT components:
N(Alpha)           :       82.000096799372 electrons
N(Beta)            :       82.000096799372 electrons
N(Total)           :      164.000193598744 electrons
E(X)               :      -79.590796371136 Eh       
E(C)               :       -7.461700790155 Eh       
E(XC)              :      -87.052497161291 Eh       
DFET-embed. en.    :        0.000000000000 Eh       

---------------
SCF CONVERGENCE
---------------

  Last Energy change         ...   -6.7216e-09  Tolerance :   1.0000e-08
  Last MAX-Density change    ...    0.0000e+00  Tolerance :   1.0000e-07
  Last RMS-Density change    ...    0.0000e+00  Tolerance :   5.0000e-09
  Last DIIS Error            ...    5.9812e-07  Tolerance :   5.0000e-07

             **** THE GBW FILE WAS UPDATED (reaction4-IEIP_ts_guess_scan_14-13_orca.gbw) ****
             **** DENSITY reaction4-IEIP_ts_guess_scan_14-13_orca.scfp WAS UPDATED ****
             **** ENERGY FILE WAS UPDATED (reaction4-IEIP_ts_guess_scan_14-13_orca.en.tmp) ****
             **** THE GBW FILE WAS UPDATED (reaction4-IEIP_ts_guess_scan_14-13_orca.gbw) ****
             **** DENSITY reaction4-IEIP_ts_guess_scan_14-13_orca.scfp WAS UPDATED ****
----------------
ORBITAL ENERGIES
----------------

  NO   OCC          E(Eh)            E(eV) 
   0   2.0000     -89.760923     -2442.5189 
   1   2.0000     -19.643115      -534.5163 
   2   2.0000     -19.642843      -534.5089 
   3   2.0000     -14.829217      -403.5235 
   4   2.0000     -10.707926      -291.3775 
   5   2.0000     -10.650358      -289.8110 
   6   2.0000     -10.620392      -288.9956 
   7   2.0000     -10.619910      -288.9824 
   8   2.0000     -10.619677      -288.9761 
   9   2.0000     -10.617329      -288.9122 
  10   2.0000     -10.611321      -288.7487 
  11   2.0000     -10.609634      -288.7028 
  12   2.0000     -10.609433      -288.6973 
  13   2.0000     -10.606949      -288.6298 
  14   2.0000     -10.590510      -288.1824 
  15   2.0000     -10.588083      -288.1164 
  16   2.0000     -10.551811      -287.1294 
  17   2.0000     -10.551439      -287.1193 
  18   2.0000     -10.549755      -287.0734 
  19   2.0000      -8.400293      -228.5836 
  20   2.0000      -6.290181      -171.1645 
  21   2.0000      -6.286701      -171.0698 
  22   2.0000      -6.285204      -171.0291 
  23   2.0000      -4.016777      -109.3021 
  24   2.0000      -2.333297       -63.4922 
  25   2.0000      -2.304651       -62.7127 
  26   2.0000      -2.300090       -62.5886 
  27   2.0000      -1.340539       -36.4779 
  28   2.0000      -1.240747       -33.7625 
  29   2.0000      -1.206364       -32.8268 
  30   2.0000      -1.154617       -31.4187 
  31   2.0000      -1.125889       -30.6370 
  32   2.0000      -1.023595       -27.8534 
  33   2.0000      -0.969172       -26.3725 
  34   2.0000      -0.967905       -26.3380 
  35   2.0000      -0.961232       -26.1565 
  36   2.0000      -0.956555       -26.0292 
  37   2.0000      -0.947785       -25.7905 
  38   2.0000      -0.898757       -24.4564 
  39   2.0000      -0.870070       -23.6758 
  40   2.0000      -0.797162       -21.6919 
  41   2.0000      -0.781370       -21.2621 
  42   2.0000      -0.773810       -21.0564 
  43   2.0000      -0.771564       -20.9953 
  44   2.0000      -0.768659       -20.9163 
  45   2.0000      -0.756472       -20.5847 
  46   2.0000      -0.742397       -20.2017 
  47   2.0000      -0.722074       -19.6486 
  48   2.0000      -0.703538       -19.1442 
  49   2.0000      -0.684116       -18.6157 
  50   2.0000      -0.670582       -18.2475 
  51   2.0000      -0.664895       -18.0927 
  52   2.0000      -0.653361       -17.7789 
  53   2.0000      -0.638527       -17.3752 
  54   2.0000      -0.628520       -17.1029 
  55   2.0000      -0.622990       -16.9524 
  56   2.0000      -0.619606       -16.8603 
  57   2.0000      -0.609925       -16.5969 
[...]

----------------------
LOEWDIN ATOMIC CHARGES
----------------------
   0 Ir:   -0.266903
   1 C :   -0.073100
   2 C :   -0.096932
   3 C :   -0.108019
   4 C :   -0.036517
   5 C :   -0.029499
   6 N :   -0.007984
   7 C :   -0.068913
   8 C :   -0.361222
   9 H :    0.155372
  10 H :    0.132676
  11 H :    0.141868
  12 C :   -0.344364
  13 H :    0.151112
  14 H :    0.149370
  15 H :    0.138455
  16 H :    0.133766
  17 C :    0.028910
  18 C :   -0.209865
  19 H :    0.159201
  20 C :   -0.199676
  21 C :   -0.141582
  22 S :    0.493602
  23 C :   -0.253487
  24 H :    0.387331
  25 H :    0.161848
  26 H :    0.169612
  27 H :    0.180568
  28 H :    0.176120
  29 H :    0.183209
  30 O :   -0.250058
  31 O :   -0.160822
  32 C :    0.173799
  33 C :   -0.370289
  34 H :    0.166670
  35 H :    0.174643
  36 H :    0.159194
  37 H :    0.179054
  38 H :    0.182855

-------------------------------
LOEWDIN REDUCED ORBITAL CHARGES
-------------------------------
  0 Irs       :     2.452537  s :     2.452537
      pz      :     2.257544  p :     6.780025
      px      :     2.257810
      py      :     2.264670
      dz2     :     1.651829  d :     7.944803
      dxz     :     1.622261
      dyz     :     1.532399
      dx2y2   :     1.578444
      dxy     :     1.559870
      f0      :     0.010825  f :     0.089539
      f+1     :     0.006769
      f-1     :     0.017381
      f+2     :     0.012379
      f-2     :     0.015342
      f+3     :     0.010344
      f-3     :     0.016497
  1 C s       :     2.872328  s :     2.872328
      pz      :     1.055066  p :     3.098927
      px      :     1.067303
      py      :     0.976558
      dz2     :     0.025408  d :     0.101846
      dxz     :     0.024589
      dyz     :     0.015772
      dx2y2   :     0.019132
      dxy     :     0.016944
  2 C s       :     2.878233  s :     2.878233
      pz      :     1.032747  p :     3.121368
      px      :     1.094196
      py      :     0.994426
      dz2     :     0.024200  d :     0.097332
      dxz     :     0.028024
      dyz     :     0.015550
      dx2y2   :     0.017113
      dxy     :     0.012445
  3 C s       :     2.870658  s :     2.870658
      pz      :     1.028286  p :     3.139218
      px      :     1.081273
      py      :     1.029659
      dz2     :     0.021737  d :     0.098142
      dxz     :     0.030507
      dyz     :     0.015907
      dx2y2   :     0.016538
      dxy     :     0.013453
  4 C s       :     2.873672  s :     2.873672
      pz      :     1.073116  p :     3.056998
      px      :     1.046735
      py      :     0.937147
      dz2     :     0.023153  d :     0.105846
      dxz     :     0.027935
      dyz     :     0.014078
      dx2y2   :     0.020989
      dxy     :     0.019691
  5 C s       :     2.884044  s :     2.884044
      pz      :     1.046832  p :     3.044127
      px      :     1.047670
      py      :     0.949625
      dz2     :     0.020260  d :     0.101329
      dxz     :     0.031091
      dyz     :     0.015343
      dx2y2   :     0.015671
      dxy     :     0.018964
  6 N s       :     3.121383  s :     3.121383
      pz      :     1.244350  p :     3.788182
      px      :     1.285141
      py      :     1.258692
      dz2     :     0.029543  d :     0.098419
      dxz     :     0.026975
      dyz     :     0.018047
      dx2y2   :     0.013404
      dxy     :     0.010449
  7 C s       :     2.861912  s :     2.861912
      pz      :     1.053170  p :     3.071963
      px      :     0.940139
      py      :     1.078655
      dz2     :     0.029716  d :     0.135037
      dxz     :     0.029002
      dyz     :     0.011885
      dx2y2   :     0.031337
      dxy     :     0.033098
  8 C s       :     2.953364  s :     2.953364
      pz      :     1.140539  p :     3.340278
      px      :     1.123198
      py      :     1.076542
      dz2     :     0.015630  d :     0.067580
      dxz     :     0.016973
      dyz     :     0.004550
      dx2y2   :     0.011344
      dxy     :     0.019082
  9 H s       :     0.844628  s :     0.844628
 10 H s       :     0.867324  s :     0.867324
 11 H s       :     0.858132  s :     0.858132
 12 C s       :     2.953665  s :     2.953665
      pz      :     1.145275  p :     3.322771
      px      :     1.108185
      py      :     1.069311
      dz2     :     0.016203  d :     0.067928
      dxz     :     0.014415
      dyz     :     0.006234
      dx2y2   :     0.012818
      dxy     :     0.018258
 13 H s       :     0.848888  s :     0.848888
 14 H s       :     0.850630  s :     0.850630
 15 H s       :     0.861545  s :     0.861545
 16 H s       :     0.866234  s :     0.866234
 17 C s       :     2.875013  s :     2.875013
      pz      :     0.999163  p :     2.955337
      px      :     1.061830
      py      :     0.894343
      dz2     :     0.037524  d :     0.140740
      dxz     :     0.045406
      dyz     :     0.027566
      dx2y2   :     0.013626
      dxy     :     0.016619
 18 C s       :     2.888326  s :     2.888326
      pz      :     1.044874  p :     3.209247
      px      :     1.081512
      py      :     1.082861
      dz2     :     0.032206  d :     0.112293
      dxz     :     0.033878
      dyz     :     0.017176
      dx2y2   :     0.016253
      dxy     :     0.012780
 19 H s       :     0.840799  s :     0.840799
 20 C s       :     2.896988  s :     2.896988
      pz      :     1.142184  p :     3.191700
      px      :     1.057863
      py      :     0.991653
      dz2     :     0.017861  d :     0.110989
      dxz     :     0.040890
      dyz     :     0.015767
      dx2y2   :     0.018536
      dxy     :     0.017936
 21 C s       :     2.896005  s :     2.896005
      pz      :     1.069291  p :     3.151138
      px      :     1.082753
      py      :     0.999093
      dz2     :     0.027577  d :     0.094439
      dxz     :     0.030499
      dyz     :     0.015353
      dx2y2   :     0.012217
      dxy     :     0.008794
 22 S s       :     5.498235  s :     5.498235
      pz      :     3.265360  p :     9.851718
      px      :     3.074386
      py      :     3.511971
      dz2     :     0.046328  d :     0.156445
      dxz     :     0.037191
      dyz     :     0.018179
      dx2y2   :     0.024737
      dxy     :     0.030010
 23 C s       :     2.963821  s :     2.963821
      pz      :     1.116966  p :     3.203510
      px      :     1.036084
      py      :     1.050460
      dz2     :     0.022850  d :     0.086156
      dxz     :     0.030386
      dyz     :     0.011586
      dx2y2   :     0.011615
      dxy     :     0.009717
 24 H s       :     0.612669  s :     0.612669
 25 H s       :     0.838152  s :     0.838152
 26 H s       :     0.830388  s :     0.830388
 27 H s       :     0.819432  s :     0.819432
 28 H s       :     0.823880  s :     0.823880
 29 H s       :     0.816791  s :     0.816791
 30 O s       :     3.516583  s :     3.516583
      pz      :     1.435152  p :     4.679373
      px      :     1.607746
      py      :     1.636475
      dz2     :     0.014806  d :     0.054102
      dxz     :     0.014959
      dyz     :     0.014256
      dx2y2   :     0.006363
      dxy     :     0.003719
 31 O s       :     3.437191  s :     3.437191
      pz      :     1.689838  p :     4.662904
      px      :     1.568396
      py      :     1.404670
      dz2     :     0.008769  d :     0.060728
      dxz     :     0.005040
      dyz     :     0.014919
      dx2y2   :     0.014392
      dxy     :     0.017608
 32 C s       :     2.813158  s :     2.813158
      pz      :     0.952458  p :     2.696717
      px      :     0.776473
      py      :     0.967785
      dz2     :     0.069795  d :     0.316326
      dxz     :     0.054633
      dyz     :     0.090208
      dx2y2   :     0.052803
      dxy     :     0.048888
 33 C s       :     2.957784  s :     2.957784
      pz      :     1.104793  p :     3.350014
      px      :     1.156217
      py      :     1.089003
      dz2     :     0.004235  d :     0.062491
      dxz     :     0.016027
      dyz     :     0.021517
      dx2y2   :     0.018658
      dxy     :     0.002055
 34 H s       :     0.833330  s :     0.833330
 35 H s       :     0.825357  s :     0.825357
 36 H s       :     0.840806  s :     0.840806
 37 H s       :     0.820946  s :     0.820946
 38 H s       :     0.817145  s :     0.817145


                      *****************************
                      * MAYER POPULATION ANALYSIS *
                      *****************************

  NA   - Mulliken gross atomic population
  ZA   - Total nuclear charge
  QA   - Mulliken gross atomic charge
  VA   - Mayer's total valence
  BVA  - Mayer's bonded valence
  FA   - Mayer's free valence

  ATOM       NA         ZA         QA         VA         BVA        FA
  0 Ir    16.3896    17.0000     0.6104     3.7664     3.7664    -0.0000
  1 C      6.2793     6.0000    -0.2793     3.7432     3.7432    -0.0000
  2 C      6.2384     6.0000    -0.2384     3.7240     3.7240    -0.0000
  3 C      6.2873     6.0000    -0.2873     3.7486     3.7486    -0.0000
  4 C      6.2084     6.0000    -0.2084     3.7100     3.7100    -0.0000
  5 C      6.1515     6.0000    -0.1515     3.7024     3.7024     0.0000
  6 N      7.4400     7.0000    -0.4400     3.2106     3.2106     0.0000
  7 C      6.1254     6.0000    -0.1254     3.7155     3.7155    -0.0000
  8 C      6.6764     6.0000    -0.6764     3.6895     3.6895    -0.0000
  9 H      0.7324     1.0000     0.2676     0.8980     0.8980    -0.0000
 10 H      0.7757     1.0000     0.2243     0.9111     0.9111    -0.0000
 11 H      0.7494     1.0000     0.2506     0.9018     0.9018    -0.0000
 12 C      6.6315     6.0000    -0.6315     3.6727     3.6727     0.0000
 13 H      0.7279     1.0000     0.2721     0.8748     0.8748     0.0000
 14 H      0.7443     1.0000     0.2557     0.8997     0.8997     0.0000
 15 H      0.7665     1.0000     0.2335     0.9095     0.9095     0.0000
 16 H      0.7651     1.0000     0.2349     0.9057     0.9057    -0.0000
 17 C      5.9265     6.0000     0.0735     3.6688     3.6688    -0.0000
 18 C      6.1354     6.0000    -0.1354     3.6828     3.6828    -0.0000
 19 H      0.7173     1.0000     0.2827     0.8871     0.8871     0.0000
 20 C      6.5501     6.0000    -0.5501     3.6116     3.6116    -0.0000
 21 C      6.1078     6.0000    -0.1078     3.7334     3.7334    -0.0000
 22 S     15.6576    16.0000     0.3424     2.5879     2.5879    -0.0000
 23 C      6.4180     6.0000    -0.4180     3.7498     3.7498    -0.0000
 24 H      0.5214     1.0000     0.4786     0.7423     0.7423    -0.0000
 25 H      0.7336     1.0000     0.2664     0.9006     0.9006    -0.0000
 26 H      0.7021     1.0000     0.2979     0.8973     0.8973    -0.0000
 27 H      0.7179     1.0000     0.2821     0.9089     0.9089     0.0000
 28 H      0.7228     1.0000     0.2772     0.9096     0.9096     0.0000
 29 H      0.7098     1.0000     0.2902     0.8991     0.8991    -0.0000
 30 O      8.4898     8.0000    -0.4898     2.1333     2.1333    -0.0000
 31 O      8.4856     8.0000    -0.4856     2.1415     2.1415    -0.0000
 32 C      5.3618     6.0000     0.6382     3.8798     3.8798    -0.0000
 33 C      6.7436     6.0000    -0.7436     3.6515     3.6515    -0.0000
 34 H      0.7236     1.0000     0.2764     0.8916     0.8916    -0.0000
 35 H      0.7205     1.0000     0.2795     0.8892     0.8892     0.0000
 36 H      0.7327     1.0000     0.2673     0.8952     0.8952    -0.0000
 37 H      0.7230     1.0000     0.2770     0.9121     0.9121     0.0000
 38 H      0.7100     1.0000     0.2900     0.9038     0.9038    -0.0000

  Mayer bond orders larger than 0.100000
B(  0-Ir,  1-C ) :   0.4860 B(  0-Ir,  2-C ) :   0.3312 B(  0-Ir,  3-C ) :   0.4809 
B(  0-Ir,  4-C ) :   0.4093 B(  0-Ir,  5-C ) :   0.3205 B(  0-Ir,  6-N ) :   0.4674 
B(  0-Ir, 20-C ) :   0.6258 B(  0-Ir, 31-O ) :   0.4822 B(  1-C ,  2-C ) :   1.1195 
B(  1-C ,  4-C ) :   1.2005 B(  1-C , 27-H ) :   0.9116 B(  2-C ,  5-C ) :   1.2963 
B(  2-C , 28-H ) :   0.9099 B(  3-C ,  4-C ) :   1.1685 B(  3-C ,  5-C ) :   1.1340 
B(  3-C , 37-H ) :   0.9159 B(  4-C , 38-H ) :   0.9003 B(  5-C , 29-H ) :   0.9044 
B(  6-N ,  7-C ) :   0.8978 B(  6-N , 17-C ) :   1.6339 B(  7-C ,  8-C ) :   0.9898 
B(  7-C , 12-C ) :   0.9681 B(  7-C , 13-H ) :   0.8810 B(  8-C ,  9-H ) :   0.9055 
B(  8-C , 10-H ) :   0.9132 B(  8-C , 11-H ) :   0.9139 B( 12-C , 14-H ) :   0.9083 
B( 12-C , 15-H ) :   0.9150 B( 12-C , 16-H ) :   0.9121 B( 17-C , 18-C ) :   1.1305 
B( 17-C , 19-H ) :   0.8770 B( 18-C , 20-C ) :   1.2281 B( 18-C , 22-S ) :   1.2149 
B( 20-C , 21-C ) :   1.2575 B( 20-C , 24-H ) :   0.2371 B( 21-C , 23-C ) :   1.5176 
B( 21-C , 25-H ) :   0.9027 B( 22-S , 23-C ) :   1.2361 B( 23-C , 26-H ) :   0.8919 
B( 24-H , 30-O ) :   0.4348 B( 30-O , 32-C ) :   1.4764 B( 31-O , 32-C ) :   1.4514 
B( 32-C , 33-C ) :   0.9453 B( 33-C , 34-H ) :   0.8976 B( 33-C , 35-H ) :   0.8902 
B( 33-C , 36-H ) :   0.9065 


------------------
HIRSHFELD ANALYSIS
------------------

Total integrated alpha density =     81.999883724
Total integrated beta density  =     81.999883724

  ATOM     CHARGE      SPIN    
   0 Ir   0.161558    0.000000
   1 C   -0.011869    0.000000
   2 C   -0.017388    0.000000
   3 C   -0.028319    0.000000
   4 C    0.004005    0.000000
   5 C    0.012793    0.000000
   6 N   -0.072830    0.000000
   7 C    0.051964    0.000000
   8 C   -0.071909    0.000000
   9 H    0.052483    0.000000
  10 H    0.037376    0.000000
  11 H    0.039594    0.000000
  12 C   -0.071384    0.000000
  13 H    0.043203    0.000000
  14 H    0.048651    0.000000
  15 H    0.037914    0.000000
  16 H    0.031320    0.000000
  17 C    0.090353    0.000000
  18 C   -0.020199    0.000000
  19 H    0.076281    0.000000
  20 C   -0.091032    0.000000
  21 C   -0.032778    0.000000
  22 S    0.139066    0.000000
  23 C   -0.023209    0.000000
  24 H    0.134002    0.000000
  25 H    0.066069    0.000000
  26 H    0.079724    0.000000
  27 H    0.078441    0.000000
  28 H    0.076135    0.000000
  29 H    0.086672    0.000000
  30 O   -0.209717    0.000000
  31 O   -0.234241    0.000000
  32 C    0.259199    0.000000
  33 C   -0.059451    0.000000
  34 H    0.060545    0.000000
  35 H    0.066361    0.000000
  36 H    0.054442    0.000000
  37 H    0.076546    0.000000
  38 H    0.079862    0.000000

  TOTAL   1.000233    0.000000

-------
TIMINGS
-------

Total SCF time: 0 days 0 hours 1 min 19 sec 

Total time                  ....      79.408 sec
Sum of individual times     ....      78.868 sec  ( 99.3%)

Fock matrix formation       ....      75.311 sec  ( 94.8%)
  Split-RI-J                ....       6.546 sec  (  8.7% of F)
  Chain of spheres X        ....      64.257 sec  ( 85.3% of F)
  XC integration            ....       4.423 sec  (  5.9% of F)
    Basis function eval.    ....       1.977 sec  ( 44.7% of XC)
    Density eval.           ....       1.185 sec  ( 26.8% of XC)
    XC-Functional eval.     ....       0.330 sec  (  7.5% of XC)
    XC-Potential eval.      ....       0.696 sec  ( 15.7% of XC)
Diagonalization             ....       0.347 sec  (  0.4%)
Density matrix formation    ....       0.020 sec  (  0.0%)
Population analysis         ....       0.630 sec  (  0.8%)
Initial guess               ....       0.036 sec  (  0.0%)
Orbital Transformation      ....       0.000 sec  (  0.0%)
Orbital Orthonormalization  ....       0.026 sec  (  0.0%)
DIIS solution               ....       0.203 sec  (  0.3%)
Grid generation             ....       2.321 sec  (  2.9%)

Maximum memory used throughout the entire SCF-calculation: 96.5 MB


-------------------------------------------------------------------------------
                          DFT DISPERSION CORRECTION                            
                                                                               
                              DFTD3 V3.1  Rev 1                                
                          USING Becke-Johnson damping                          
-------------------------------------------------------------------------------
The PBEh-3c composite method is recognized
Using three-body term ABC
Active option DFTDOPT                   ...         4   

molecular C6(AA) [au] = 19558.044024 


            DFT-D V3
 parameters
 s6 scaling factor         :     1.0000 
 a1 scaling factor         :     0.4860 
 s8 scaling factor         :     0.0000 
 a2 scaling factor         :     4.5000 
 Damping factor alpha9(ATM):    16.0000 
 ad hoc parameters k1-k3   :    16.0000     1.3333    -4.0000 

 Edisp/kcal,au: -19.279432162310  -0.030723727533 
 E6   /kcal   : -19.611850684 
 E8   /kcal   :  -0.000000000 
 E6(ABC)      :   0.332418522 
 % E8         :   0.000000000 
 % E6(ABC)    :  -1.724213239 

-------------------------   ----------------
Dispersion correction           -0.030723728
-------------------------   ----------------

 ** NOTE ** -> element ir will be treated as co
NOTIFICATION: Different basis set in ORCA and otool_gcp:
ORCA: 358  gCP: 357 
If you are NOT using ECPs, check your basis set inputs!
------------------   -----------------
gCP correction             0.078368653
------------------   -----------------

-------------------------   --------------------
FINAL SINGLE POINT ENERGY     -1288.404277239492
-------------------------   --------------------

                                *** OPTIMIZATION RUN DONE ***

                            ***************************************
                            *     ORCA property calculations      *
                            ***************************************

                                    ---------------------
                                    Active property flags
                                    ---------------------
   (+) Dipole Moment


------------------------------------------------------------------------------
                       ORCA ELECTRIC PROPERTIES CALCULATION
------------------------------------------------------------------------------

Dipole Moment Calculation                       ... on
Quadrupole Moment Calculation                   ... off
Polarizability Calculation                      ... off
GBWName                                         ... reaction4-IEIP_ts_guess_scan_14-13_orca.gbw
Electron density                                ... reaction4-IEIP_ts_guess_scan_14-13_orca.scfp
The origin for moment calculation is the CENTER OF MASS  = ( 0.861458, -0.529813 -0.211150)

-------------
DIPOLE MOMENT
-------------
                                X             Y             Z
Electronic contribution:     36.68568     -77.04082      67.33332
Nuclear contribution   :    -37.18709      76.99404     -67.42914
                        -----------------------------------------
Total Dipole Moment    :     -0.50141      -0.04678      -0.09582
                        -----------------------------------------
Magnitude (a.u.)       :      0.51263
Magnitude (Debye)      :      1.30299



--------------------
Rotational spectrum 
--------------------
 
Rotational constants in cm-1:     0.010628     0.008781     0.008247 
Rotational constants in MHz :   318.625524   263.248081   247.228979 

 Dipole components along the rotational axes: 
x,y,z [a.u.] :     0.047343     0.383545     0.336804 
x,y,z [Debye]:     0.120336     0.974893     0.856088 

 

Timings for individual modules:

Sum of individual times         ...     2061.731 sec (=  34.362 min)
GTO integral calculation        ...       27.777 sec (=   0.463 min)   1.3 %
SCF iterations                  ...     1566.934 sec (=  26.116 min)  76.0 %
SCF Gradient evaluation         ...      463.082 sec (=   7.718 min)  22.5 %
Geometry relaxation             ...        3.939 sec (=   0.066 min)   0.2 %
                             ****ORCA TERMINATED NORMALLY****
TOTAL RUN TIME: 0 days 0 hours 34 minutes 29 seconds 144 msec
