
                                 *****************
                                 * O   R   C   A *
                                 *****************

                                            #,                                       
                                            ###                                      
                                            ####                                     
                                            #####                                    
                                            ######                                   
                                           ########,                                 
                                     ,,################,,,,,                         
                               ,,#################################,,                 
                          ,,##########################################,,             
                       ,#########################################, ''#####,          
                    ,#############################################,,   '####,        
                  ,##################################################,,,,####,       
                ,###########''''           ''''###############################       
              ,#####''   ,,,,##########,,,,          '''####'''          '####       
            ,##' ,,,,###########################,,,                        '##       
           ' ,,###''''                  '''############,,,                           
         ,,##''                                '''############,,,,        ,,,,,,###''
      ,#''                                            '''#######################'''  
     '                                                          ''''####''''         
             ,#######,   #######,   ,#######,      ##                                
            ,#'     '#,  ##    ##  ,#'     '#,    #''#        ######   ,####,        
            ##       ##  ##   ,#'  ##            #'  '#       #        #'  '#        
            ##       ##  #######   ##           ,######,      #####,   #    #        
            '#,     ,#'  ##    ##  '#,     ,#' ,#      #,         ##   #,  ,#        
             '#######'   ##     ##  '#######'  #'      '#     #####' # '####'        



                  #######################################################
                  #                        -***-                        #
                  #          Department of theory and spectroscopy      #
                  #    Directorship and core code : Frank Neese         #
                  #        Max Planck Institute fuer Kohlenforschung    #
                  #                Kaiser Wilhelm Platz 1               #
                  #                 D-45470 Muelheim/Ruhr               #
                  #                      Germany                        #
                  #                                                     #
                  #                  All rights reserved                #
                  #                        -***-                        #
                  #######################################################


                         Program Version 5.0.3 -  RELEASE  -


 With contributions from (in alphabetic order):
   Daniel Aravena         : Magnetic Suceptibility
   Michael Atanasov       : Ab Initio Ligand Field Theory (pilot matlab implementation)
   Alexander A. Auer      : GIAO ZORA, VPT2 properties, NMR spectrum
   Ute Becker             : Parallelization
   Giovanni Bistoni       : ED, misc. LED, open-shell LED, HFLD
   Martin Brehm           : Molecular dynamics
   Dmytro Bykov           : SCF Hessian
   Vijay G. Chilkuri      : MRCI spin determinant printing, contributions to CSF-ICE
   Dipayan Datta          : RHF DLPNO-CCSD density
   Achintya Kumar Dutta   : EOM-CC, STEOM-CC
   Dmitry Ganyushin       : Spin-Orbit,Spin-Spin,Magnetic field MRCI
   Miquel Garcia          : C-PCM and meta-GGA Hessian, CC/C-PCM, Gaussian charge scheme
   Yang Guo               : DLPNO-NEVPT2, F12-NEVPT2, CIM, IAO-localization
   Andreas Hansen         : Spin unrestricted coupled pair/coupled cluster methods
   Benjamin Helmich-Paris : MC-RPA, TRAH-SCF, COSX integrals
   Lee Huntington         : MR-EOM, pCC
   Robert Izsak           : Overlap fitted RIJCOSX, COSX-SCS-MP3, EOM
   Marcus Kettner         : VPT2
   Christian Kollmar      : KDIIS, OOCD, Brueckner-CCSD(T), CCSD density, CASPT2, CASPT2-K
   Simone Kossmann        : Meta GGA functionals, TD-DFT gradient, OOMP2, MP2 Hessian
   Martin Krupicka        : Initial AUTO-CI
   Lucas Lang             : DCDCAS
   Marvin Lechner         : AUTO-CI (C++ implementation), FIC-MRCC
   Dagmar Lenk            : GEPOL surface, SMD
   Dimitrios Liakos       : Extrapolation schemes; Compound Job, initial MDCI parallelization
   Dimitrios Manganas     : Further ROCIS development; embedding schemes
   Dimitrios Pantazis     : SARC Basis sets
   Anastasios Papadopoulos: AUTO-CI, single reference methods and gradients
   Taras Petrenko         : DFT Hessian,TD-DFT gradient, ASA, ECA, R-Raman, ABS, FL, XAS/XES, NRVS
   Peter Pinski           : DLPNO-MP2, DLPNO-MP2 Gradient
   Christoph Reimann      : Effective Core Potentials
   Marius Retegan         : Local ZFS, SOC
   Christoph Riplinger    : Optimizer, TS searches, QM/MM, DLPNO-CCSD(T), (RO)-DLPNO pert. Triples
   Tobias Risthaus        : Range-separated hybrids, TD-DFT gradient, RPA, STAB
   Michael Roemelt        : Original ROCIS implementation
   Masaaki Saitow         : Open-shell DLPNO-CCSD energy and density
   Barbara Sandhoefer     : DKH picture change effects
   Avijit Sen             : IP-ROCIS
   Kantharuban Sivalingam : CASSCF convergence, NEVPT2, FIC-MRCI
   Bernardo de Souza      : ESD, SOC TD-DFT
   Georgi Stoychev        : AutoAux, RI-MP2 NMR, DLPNO-MP2 response
   Willem Van den Heuvel  : Paramagnetic NMR
   Boris Wezisla          : Elementary symmetry handling
   Frank Wennmohs         : Technical directorship


 We gratefully acknowledge several colleagues who have allowed us to
 interface, adapt or use parts of their codes:
   Stefan Grimme, W. Hujo, H. Kruse, P. Pracht,  : VdW corrections, initial TS optimization,
                  C. Bannwarth, S. Ehlert          DFT functionals, gCP, sTDA/sTD-DF
   Ed Valeev, F. Pavosevic, A. Kumar             : LibInt (2-el integral package), F12 methods
   Garnet Chan, S. Sharma, J. Yang, R. Olivares  : DMRG
   Ulf Ekstrom                                   : XCFun DFT Library
   Mihaly Kallay                                 : mrcc  (arbitrary order and MRCC methods)
   Jiri Pittner, Ondrej Demel                    : Mk-CCSD
   Frank Weinhold                                : gennbo (NPA and NBO analysis)
   Christopher J. Cramer and Donald G. Truhlar   : smd solvation model
   Lars Goerigk                                  : TD-DFT with DH, B97 family of functionals
   V. Asgeirsson, H. Jonsson                     : NEB implementation
   FAccTs GmbH                                   : IRC, NEB, NEB-TS, DLPNO-Multilevel, CI-OPT
                                                   MM, QMMM, 2- and 3-layer-ONIOM, Crystal-QMMM,
                                                   LR-CPCM, SF, NACMEs, symmetry and pop. for TD-DFT,
                                                   nearIR, NL-DFT gradient (VV10), updates on ESD,
                                                   ML-optimized integration grids
   S Lehtola, MJT Oliveira, MAL Marques          : LibXC Library
   Liviu Ungur et al                             : ANISO software


 Your calculation uses the libint2 library for the computation of 2-el integrals
 For citations please refer to: http://libint.valeyev.net

 Your ORCA version has been built with support for libXC version: 5.1.0
 For citations please refer to: https://tddft.org/programs/libxc/

 This ORCA versions uses:
   CBLAS   interface :  Fast vector & matrix operations
   LAPACKE interface :  Fast linear algebra routines
   SCALAPACK package :  Parallel linear algebra routines
   Shared memory     :  Shared parallel matrices
   BLAS/LAPACK       :  OpenBLAS 0.3.15  USE64BITINT DYNAMIC_ARCH NO_AFFINITY SkylakeX SINGLE_THREADED
        Core in use  :  SkylakeX
   Copyright (c) 2011-2014, The OpenBLAS Project


Your calculation utilizes the geometrical counterpoise correction gCP
Please cite in your paper:
H.Kruse, S. Grimme J.Chem.Phys., 136, (2012), 154101 
   

Your calculation utilizes the atom-pairwise dispersion correction
with the Becke-Johnson damping scheme (D3BJ)
Cite in your paper:
S.Grimme, S.Ehrlich, L.Goerigk, J Comput Chem, (2011), 32, 1456–1465 
S.Grimme, J.Antony, S.Ehrlich and H.Krieg, J.Chem.Phys., 132, (2010), 154104 
   

Your calculation employs the composite approach PBEh-3c.
Please cite in your paper:
S. Grimme, J. G. Brandenburg, C. Bannwarth, A. Hansen J.Chem.Phys., 143, (2015), 054107 
   

================================================================================

cite the ECPs for Ir [Def2-ECP] as follows:
Ce-Yb(ecp-28): M. Dolg, H. Stoll, H.Preuss, J. Chem. Phys., 1989, 90, 1730-1734.
Y-Cd(ecp-28), Hf-Hg(ecp-46): D. Andrae,U. Haeussermann, M. Dolg, H. Stoll, H. Preuss, Theor. Chim. Acta, 1990, 77, 123-141.
In-Sb(ecp-28), Tl-Bi(ecp-46): B. Metz, H. Stoll, M. Dolg, J. Chem. Phys., 2000, 113, 2563-2569.
Te-Xe(ecp-28), Po-Rn(ecp-46): K. A. Peterson, D. Figgen, E. Goll, H. Stoll, M. Dolg, J. Chem. Phys., 2003, 119, 11113-11123.
Rb(ecp-28), Cs(ecp-46): T. Leininger, A. Nicklass, W. Kuechle, H. Stoll, M. Dolg, A. Bergner, Chem. Phys. Lett., 1996, 255, 274-280.
Sr(ecp-28), Ba(ecp-46): M. Kaupp, P. V. Schleyer, H. Stoll and H. Preuss, J. Chem. Phys., 1991, 94, 1360-1366.
La(ecp-46): M. Dolg, H. Stoll, A. Savin, H. Preuss, Theor. Chim. Acta, 1989, 75, 173-194.
Lu(ecp-28): X. Cao, M. Dolg, J. Chem. Phys., 2001, 115, 7348-7355.

ECP parameters for Ir [Def2-ECP] have been obtained from:
TURBOMOLE (7.0.2)

----- Orbital basis set information -----
Your calculation utilizes the basis: def2-mSVP

----- AuxJ basis set information -----
Your calculation utilizes the auxiliary basis: def2/J
   F. Weigend, Phys. Chem. Chem. Phys. 8, 1057 (2006).

================================================================================
                                        WARNINGS
                       Please study these warnings very carefully!
================================================================================


WARNING: Geometry Optimization
  ===> : Switching off AutoStart
         For restart on a previous wavefunction, please use MOREAD

WARNING: No Hueckel Guess possible with ECP basis!
  ===> : Switching to HCORE guess!

INFO   : the flag for use of the SHARK integral package has been found!

================================================================================
                                       INPUT FILE
================================================================================
NAME = reaction4-IEIP_ts_guess_scan_4-14_orca.inp
|  1> ! Opt PBEh-3c
|  2> %geom Constraints
|  3> { B 0 20 2.428571428571429 C }
|  4> { B 24 30 1.3 C }
|  5>     end
|  6> end
|  7> %output 
|  8> xyzfile=True 
|  9> end 
| 10> %scf 
| 11> maxiter 250 
| 12> end
| 13> %output
| 14> Print[P_Hirshfeld] = 1
| 15> end
| 16> % maxcore
| 17> 4000
| 18> *xyz 1 1
| 19> Ir   0.58700687  -0.74476169   0.51927907 
| 20> C    0.06645689  -2.83356184   0.38278044 
| 21> C   -0.02328786  -2.37150573   1.74519872 
| 22> C    2.16476688  -2.13382494   1.05016652 
| 23> C    1.39504739  -2.66521734  -0.05059403 
| 24> C    1.29547721  -1.98703609   2.14875868 
| 25> N   -1.03455994   0.11871774  -0.49455537 
| 26> C   -2.32061110   0.38146386   0.17547305 
| 27> C   -3.09012595   1.55147051  -0.42019431 
| 28> H   -3.92574808   1.79440390   0.23478680 
| 29> H   -3.51823471   1.32507601  -1.39756189 
| 30> H   -2.47186745   2.44524127  -0.50609509 
| 31> C   -3.15903757  -0.89133148   0.18868746 
| 32> H   -2.05653390   0.63729295   1.20262728 
| 33> H   -4.07844976  -0.72303535   0.74782473 
| 34> H   -3.43490391  -1.19205802  -0.82293343 
| 35> H   -2.63668817  -1.72116486   0.66239878 
| 36> C   -0.86091843   0.36842060  -1.73885237 
| 37> C    0.46632115   0.21211336  -2.27020471 
| 38> H   -1.67621065   0.72069262  -2.36474179 
| 39> C    1.58370183   0.35006752  -1.45958610 
| 40> C    2.76592445   0.04621924  -2.18760768 
| 41> S    0.85456050  -0.21725841  -3.87740038 
| 42> C    2.52222937  -0.26450265  -3.49256018 
| 43> H    1.59217689   1.28693908  -0.58336123 
| 44> H    3.76317755   0.11249669  -1.77753467 
| 45> H    3.24194291  -0.49963556  -4.26211222 
| 46> H   -0.74862972  -3.21775066  -0.21331352 
| 47> H   -0.89459434  -2.40840072   2.38221284 
| 48> H    1.55994353  -1.57499004   3.11234502 
| 49> O    1.54453634   2.34027310   0.20121811 
| 50> O    0.54563821   0.96520989   1.64333640 
| 51> C    1.02897625   2.09933060   1.30417093 
| 52> C    0.98081511   3.17260463   2.35098292 
| 53> H    0.91830333   4.15632393   1.89295878 
| 54> H    1.90464457   3.13914542   2.93181749 
| 55> H    0.15242773   3.02488594   3.03928737 
| 56> H    3.22056996  -1.90954849   1.03933115 
| 57> H    1.77512662  -2.89361502  -1.03569343 
| 58> *
| 59> 
| 60>                          ****END OF INPUT****
================================================================================

                       *****************************
                       * Geometry Optimization Run *
                       *****************************

Geometry optimization settings:
Update method            Update   .... BFGS
Choice of coordinates    CoordSys .... Z-matrix Internals
Initial Hessian          InHess   .... Almoef's Model

Convergence Tolerances:
Energy Change            TolE     ....  5.0000e-06 Eh
Max. Gradient            TolMAXG  ....  3.0000e-04 Eh/bohr
RMS Gradient             TolRMSG  ....  1.0000e-04 Eh/bohr
Max. Displacement        TolMAXD  ....  4.0000e-03 bohr
RMS Displacement         TolRMSD  ....  2.0000e-03 bohr
Strict Convergence                ....  False
------------------------------------------------------------------------------
                        ORCA OPTIMIZATION COORDINATE SETUP
------------------------------------------------------------------------------

The optimization will be done in new redundant internal coordinates
Making redundant internal coordinates   ...  (new redundants) done
Evaluating the initial hessian          ...  (Almloef) done
Evaluating the coordinates              ...  done
Calculating the B-matrix                .... done
Calculating the G-matrix                .... done
Diagonalizing the G-matrix              .... done
Imposing constraints:
 Iter   0:  RMS(Cart)=    0.0224091739 RMS(Int)=    0.0068387778
 Iter   1:  RMS(Cart)=    0.0026313804 RMS(Int)=    0.0008852058
 Iter   2:  RMS(Cart)=    0.0003378593 RMS(Int)=    0.0001166419
 Iter   3:  RMS(Cart)=    0.0000442753 RMS(Int)=    0.0000154097
 Iter   4:  RMS(Cart)=    0.0000058362 RMS(Int)=    0.0000020368
 Iter   5:  RMS(Cart)=    0.0000007708 RMS(Int)=    0.0000002692
 Iter   6:  RMS(Cart)=    0.0000001019 RMS(Int)=    0.0000000356
 Iter   7:  RMS(Cart)=    0.0000000135 RMS(Int)=    0.0000000047
CONVERGED
Small eigenvalue found = 1.389e-02
Small eigenvalue found = 2.354e-02
Small eigenvalue found = 2.648e-02
The first mode is                       ....  234
The number of degrees of freedom        ....  111
Storing new coordinates                 .... done

    -----------------------------------------------------------------
                    Redundant Internal Coordinates


    -----------------------------------------------------------------
         Definition                    Initial Value    Approx d2E/dq
    -----------------------------------------------------------------
      1. B(C   1,Ir  0)                  2.1569         0.086891   
      2. B(C   2,C   1)                  1.4416         0.517223   
      3. B(C   2,Ir  0)                  2.1263         0.097227   
      4. B(C   3,Ir  0)                  2.1680         0.083421   
      5. B(C   4,Ir  0)                  2.1600         0.085924   
      6. B(C   4,C   1)                  1.4080         0.585702   
      7. B(C   4,C   3)                  1.4446         0.511471   
      8. B(C   5,C   3)                  1.4089         0.583559   
      9. B(C   5,C   2)                  1.4318         0.536017   
     10. B(C   5,Ir  0)                  2.1680         0.083442   
     11. B(N   6,Ir  0)                  2.0978         0.096550   
     12. B(C   7,N   6)                  1.4737         0.411413   
     13. B(C   8,C   7)                  1.5218         0.384993   
     14. B(H   9,C   8)                  1.0892         0.361206   
     15. B(H  10,C   8)                  1.0908         0.359083   
     16. B(H  11,C   8)                  1.0902         0.359888   
     17. B(C  12,C   7)                  1.5242         0.381640   
     18. B(H  13,C   7)                  1.0910         0.358810   
     19. B(H  14,C  12)                  1.0892         0.361208   
     20. B(H  15,C  12)                  1.0908         0.359000   
     21. B(H  16,C  12)                  1.0890         0.361454   
     22. B(C  17,N   6)                  1.2782         0.835395   
     23. B(C  18,C  17)                  1.4362         0.523464   
     24. B(H  19,C  17)                  1.0865         0.364728   
     25. B(C  20,C  18)                  1.3877         0.630964   
     26. B(C  20,Ir  0)                  2.4286         0.027374 C 
     27. B(C  21,C  20)                  1.4215         0.557006   
     28. B(S  22,C  18)                  1.7083         0.523282   
     29. B(C  23,C  21)                  1.3634         0.688955   
     30. B(C  23,S  22)                  1.7120         0.515868   
     31. B(H  24,C  20)                  1.2822         0.177348   
     32. B(H  25,C  21)                  1.0803         0.373152   
     33. B(H  26,C  23)                  1.0797         0.374156   
     34. B(H  27,C   1)                  1.0804         0.373006   
     35. B(H  28,C   2)                  1.0800         0.373624   
     36. B(H  29,C   5)                  1.0809         0.372419   
     37. B(O  30,H  24)                  1.3000         0.141490 C 
     38. B(O  31,Ir  0)                  2.0470         0.116684   
     39. B(C  32,O  30)                  1.2384         0.966976   
     40. B(C  32,O  31)                  1.2765         0.842499   
     41. B(C  33,C  32)                  1.5000         0.417074   
     42. B(H  34,C  33)                  1.0869         0.364196   
     43. B(H  35,C  33)                  1.0918         0.357774   
     44. B(H  36,C  33)                  1.0871         0.363943   
     45. B(H  37,C   3)                  1.0794         0.374378   
     46. B(H  38,C   4)                  1.0803         0.373164   
     47. A(C   4,Ir  0,N   6)          121.8433         0.250624   
     48. A(C   1,Ir  0,C   2)           39.3281         0.252459   
     49. A(C   5,Ir  0,N   6)          148.3421         0.249555   
     50. A(N   6,Ir  0,O  31)           84.6017         0.260975   
     51. A(C   1,Ir  0,C   3)           64.5900         0.246891   
     52. A(C   4,Ir  0,C   5)           64.3301         0.246500   
     53. A(C   3,Ir  0,N   6)          160.8044         0.249546   
     54. A(C   1,Ir  0,N   6)          100.4370         0.251033   
     55. A(C   3,Ir  0,O  31)          114.5412         0.256578   
     56. A(C   2,Ir  0,C   4)           65.1383         0.252046   
     57. A(C   2,Ir  0,N   6)          111.7832         0.255208   
     58. A(C   1,Ir  0,C   4)           38.0716         0.247951   
     59. A(C   1,Ir  0,O  31)          146.9763         0.258131   
     60. A(C   4,Ir  0,O  31)          153.5333         0.257703   
     61. A(C   5,Ir  0,O  31)           94.1217         0.256587   
     62. A(C   2,Ir  0,C   5)           38.9388         0.250968   
     63. A(C   2,Ir  0,C   3)           65.0251         0.250959   
     64. A(C   3,Ir  0,C   4)           38.9949         0.246491   
     65. A(C   1,Ir  0,C   5)           64.6421         0.246899   
     66. A(C   2,Ir  0,O  31)          108.4108         0.262489   
     67. A(C   3,Ir  0,C   5)           37.9225         0.245450   
     68. A(C   2,C   1,H  27)          126.0486         0.344329   
     69. A(Ir  0,C   1,C   2)           69.1929         0.314069   
     70. A(Ir  0,C   1,H  27)          124.1501         0.269778   
     71. A(C   2,C   1,C   4)          108.1446         0.415958   
     72. A(C   4,C   1,H  27)          125.7876         0.351616   
     73. A(Ir  0,C   1,C   4)           71.0827         0.320493   
     74. A(C   1,C   2,C   5)          107.1678         0.409464   
     75. A(Ir  0,C   2,H  28)          126.7134         0.274505   
     76. A(Ir  0,C   2,C   5)           72.1014         0.321741   
     77. A(Ir  0,C   2,C   1)           71.4789         0.319868   
     78. A(C   1,C   2,H  28)          126.6412         0.344424   
     79. A(C   5,C   2,H  28)          125.8762         0.346496   
     80. A(C   4,C   3,H  37)          126.1519         0.343895   
     81. A(C   4,C   3,C   5)          107.6892         0.414861   
     82. A(Ir  0,C   3,C   4)           70.2006         0.311439   
     83. A(Ir  0,C   3,H  37)          125.1896         0.268267   
     84. A(Ir  0,C   3,C   5)           71.0363         0.318178   
     85. A(C   5,C   3,H  37)          126.1471         0.351617   
     86. A(C   3,C   4,H  38)          125.8095         0.343708   
     87. A(Ir  0,C   4,C   1)           70.8458         0.319908   
     88. A(C   1,C   4,H  38)          125.9933         0.351641   
     89. A(Ir  0,C   4,H  38)          124.0704         0.269338   
     90. A(Ir  0,C   4,C   3)           70.8045         0.312933   
     91. A(C   1,C   4,C   3)          108.1972         0.415132   
     92. A(Ir  0,C   5,H  29)          122.1163         0.268064   
     93. A(C   3,C   5,H  29)          125.7369         0.351305   
     94. A(C   2,C   5,H  29)          125.3801         0.346308   
     95. A(Ir  0,C   5,C   3)           71.0412         0.318190   
     96. A(C   2,C   5,C   3)          108.7018         0.418337   
     97. A(Ir  0,C   5,C   2)           68.9599         0.313824   
     98. A(Ir  0,N   6,C  17)          115.8975         0.341986   
     99. A(C   7,N   6,C  17)          121.9280         0.419920   
    100. A(Ir  0,N   6,C   7)          122.1400         0.304513   
    101. A(N   6,C   7,C   8)          113.6016         0.369003   
    102. A(N   6,C   7,C  12)          109.5780         0.368449   
    103. A(C   8,C   7,C  12)          111.5468         0.366566   
    104. A(N   6,C   7,H  13)          104.9886         0.327341   
    105. A(C   8,C   7,H  13)          108.0976         0.325735   
    106. A(C  12,C   7,H  13)          108.7115         0.325267   
    107. A(C   7,C   8,H  11)          111.9869         0.325896   
    108. A(H   9,C   8,H  11)          107.4354         0.290953   
    109. A(H  10,C   8,H  11)          108.7927         0.290683   
    110. A(C   7,C   8,H   9)          108.9078         0.326092   
    111. A(C   7,C   8,H  10)          112.9308         0.325776   
    112. A(H   9,C   8,H  10)          106.5000         0.290850   
    113. A(C   7,C  12,H  14)          109.8628         0.325624   
    114. A(C   7,C  12,H  15)          111.1791         0.325296   
    115. A(H  14,C  12,H  15)          107.7704         0.290840   
    116. A(C   7,C  12,H  16)          112.1021         0.325660   
    117. A(H  14,C  12,H  16)          107.4181         0.291151   
    118. A(H  15,C  12,H  16)          108.3394         0.290871   
    119. A(N   6,C  17,C  18)          117.0029         0.441361   
    120. A(N   6,C  17,H  19)          121.6888         0.369822   
    121. A(C  18,C  17,H  19)          121.2791         0.343725   
    122. A(C  17,C  18,C  20)          121.1145         0.422418   
    123. A(C  17,C  18,S  22)          125.7299         0.431027   
    124. A(C  20,C  18,S  22)          113.0960         0.445796   
    125. A(C  18,C  20,C  21)          110.3842         0.427138   
    126. A(C  18,C  20,H  24)          118.6422         0.314713   
    127. A(C  21,C  20,H  24)          119.8207         0.308433   
    128. A(C  20,C  21,H  25)          124.0601         0.348670   
    129. A(C  23,C  21,H  25)          122.8159         0.361471   
    130. A(C  20,C  21,C  23)          113.0148         0.433934   
    131. A(C  18,S  22,C  23)           90.9568         0.453829   
    132. A(C  21,C  23,H  26)          127.7895         0.361637   
    133. A(S  22,C  23,H  26)          119.6802         0.362282   
    134. A(C  21,C  23,S  22)          112.5132         0.451795   
    135. A(C  20,H  24,O  30)          173.0491         0.226553   
    136. A(H  24,O  30,C  32)          112.5640         0.320547   
    137. A(Ir  0,O  31,C  32)          125.9126         0.353574   
    138. A(O  30,C  32,O  31)          124.0403         0.491307   
    139. A(O  30,C  32,C  33)          119.8198         0.434965   
    140. A(O  31,C  32,C  33)          116.1183         0.424341   
    141. A(C  32,C  33,H  34)          110.8143         0.330877   
    142. A(C  32,C  33,H  35)          108.7948         0.329905   
    143. A(H  34,C  33,H  35)          107.4932         0.291060   
    144. A(C  32,C  33,H  36)          111.6598         0.330839   
    145. A(H  34,C  33,H  36)          110.2405         0.291844   
    146. A(H  35,C  33,H  36)          107.6852         0.291028   
    147. D(H  27,C   1,Ir  0,C   5)    158.9600         0.001708   
    148. D(C   2,C   1,Ir  0,C   5)     38.7661         0.001708   
    149. D(C   4,C   1,Ir  0,C   5)    -80.0761         0.001708   
    150. D(C   2,C   1,Ir  0,O  31)    -15.5589         0.001708   
    151. D(H  27,C   1,Ir  0,C   2)    120.1938         0.001708   
    152. D(C   2,C   1,Ir  0,C   4)    118.8422         0.001708   
    153. D(C   2,C   1,Ir  0,N   6)   -111.7508         0.001708   
    154. D(C   4,C   1,Ir  0,O  31)   -134.4010         0.001708   
    155. D(C   4,C   1,Ir  0,C   3)    -37.9186         0.001708   
    156. D(H  27,C   1,Ir  0,C   3)   -158.8826         0.001708   
    157. D(C   2,C   1,Ir  0,C   3)     80.9236         0.001708   
    158. D(H  27,C   1,Ir  0,O  31)    104.6350         0.001708   
    159. D(C   4,C   1,Ir  0,C   2)   -118.8422         0.001708   
    160. D(H  27,C   1,Ir  0,N   6)      8.4430         0.001708   
    161. D(C   4,C   1,Ir  0,N   6)    129.4070         0.001708   
    162. D(H  27,C   1,Ir  0,C   4)   -120.9640         0.001708   
    163. D(C   5,C   2,Ir  0,N   6)   -164.5608         0.001759   
    164. D(C   5,C   2,C   1,H  27)    178.4924         0.021223   
    165. D(H  28,C   2,Ir  0,C   4)   -158.9012         0.001759   
    166. D(C   5,C   2,Ir  0,C   3)     36.0825         0.001759   
    167. D(C   5,C   2,Ir  0,O  31)    -73.0569         0.001759   
    168. D(C   5,C   2,Ir  0,C   1)    115.8057         0.001759   
    169. D(H  28,C   2,Ir  0,N   6)    -42.7321         0.001759   
    170. D(C   1,C   2,Ir  0,C   3)    -79.7232         0.001759   
    171. D(C   5,C   2,Ir  0,C   4)     79.2700         0.001759   
    172. D(H  28,C   2,C   1,H  27)      4.6643         0.021223   
    173. D(C   5,C   2,C   1,C   4)     -3.0298         0.021223   
    174. D(Ir  0,C   2,C   1,C   4)     60.6920         0.021223   
    175. D(H  28,C   2,Ir  0,C   1)   -122.3656         0.001759   
    176. D(H  28,C   2,C   1,C   4)   -176.8578         0.021223   
    177. D(C   1,C   2,Ir  0,O  31)    171.1374         0.001759   
    178. D(H  28,C   2,Ir  0,C   5)    121.8287         0.001759   
    179. D(H  28,C   2,C   1,Ir  0)    122.4502         0.021223   
    180. D(Ir  0,C   2,C   1,H  27)   -117.7859         0.021223   
    181. D(C   1,C   2,Ir  0,N   6)     79.6335         0.001759   
    182. D(H  28,C   2,Ir  0,C   3)    157.9112         0.001759   
    183. D(H  28,C   2,Ir  0,O  31)     48.7718         0.001759   
    184. D(C   1,C   2,Ir  0,C   5)   -115.8057         0.001759   
    185. D(C   1,C   2,Ir  0,C   4)    -36.5357         0.001759   
    186. D(C   5,C   2,C   1,Ir  0)    -63.7217         0.021223   
    187. D(C   5,C   3,Ir  0,C   4)   -117.7222         0.001692   
    188. D(C   4,C   3,Ir  0,C   5)    117.7222         0.001692   
    189. D(C   4,C   3,Ir  0,O  31)   -179.5027         0.001692   
    190. D(C   4,C   3,Ir  0,N   6)     -3.9870         0.001692   
    191. D(C   4,C   3,Ir  0,C   1)     37.0298         0.001692   
    192. D(C   5,C   3,Ir  0,O  31)     62.7751         0.001692   
    193. D(H  37,C   3,Ir  0,C   4)    120.8864         0.001692   
    194. D(C   4,C   3,Ir  0,C   2)     80.6900         0.001692   
    195. D(H  37,C   3,Ir  0,C   1)    157.9161         0.001692   
    196. D(C   5,C   3,Ir  0,C   1)    -80.6925         0.001692   
    197. D(C   5,C   3,Ir  0,N   6)   -121.7092         0.001692   
    198. D(H  37,C   3,Ir  0,C   2)   -158.4236         0.001692   
    199. D(H  37,C   3,Ir  0,O  31)    -58.6163         0.001692   
    200. D(C   5,C   3,Ir  0,C   2)    -37.0323         0.001692   
    201. D(H  37,C   3,Ir  0,C   5)   -121.3914         0.001692   
    202. D(H  37,C   3,Ir  0,N   6)    116.8994         0.001692   
    203. D(C   1,C   4,Ir  0,C   3)    118.0979         0.001703   
    204. D(H  38,C   4,C   3,H  37)     -1.0004         0.020739   
    205. D(C   1,C   4,Ir  0,C   5)     80.9681         0.001703   
    206. D(C   1,C   4,Ir  0,N   6)    -63.4442         0.001703   
    207. D(C   1,C   4,Ir  0,O  31)    119.1130         0.001703   
    208. D(C   1,C   4,Ir  0,C   2)     37.7231         0.001703   
    209. D(C   3,C   4,Ir  0,C   1)   -118.0979         0.001703   
    210. D(H  38,C   4,C   3,C   5)   -179.8085         0.020739   
    211. D(C   3,C   4,Ir  0,C   5)    -37.1298         0.001703   
    212. D(C   3,C   4,Ir  0,N   6)    178.4579         0.001703   
    213. D(C   3,C   4,Ir  0,O  31)      1.0151         0.001703   
    214. D(Ir  0,C   4,C   1,C   2)    -59.5048         0.027527   
    215. D(H  38,C   4,Ir  0,C   2)    158.7971         0.001703   
    216. D(H  38,C   4,Ir  0,C   3)   -120.8281         0.001703   
    217. D(H  38,C   4,C   1,C   2)   -178.2348         0.027527   
    218. D(H  38,C   4,Ir  0,N   6)     57.6298         0.001703   
    219. D(H  38,C   4,Ir  0,O  31)   -119.8130         0.001703   
    220. D(Ir  0,C   4,C   1,H  27)    118.9781         0.027527   
    221. D(C   3,C   4,C   1,Ir  0)     61.2776         0.027527   
    222. D(C   3,C   4,C   1,H  27)   -179.7444         0.027527   
    223. D(H  38,C   4,C   1,Ir  0)   -118.7300         0.027527   
    224. D(H  38,C   4,Ir  0,C   5)   -157.9579         0.001703   
    225. D(H  38,C   4,C   1,H  27)      0.2481         0.027527   
    226. D(Ir  0,C   4,C   3,C   5)     61.4877         0.020739   
    227. D(Ir  0,C   4,C   3,H  37)   -119.7041         0.020739   
    228. D(C   3,C   4,C   1,C   2)      1.7727         0.027527   
    229. D(C   1,C   4,C   3,C   5)      0.1839         0.020739   
    230. D(C   1,C   4,C   3,H  37)    178.9921         0.020739   
    231. D(H  38,C   4,C   3,Ir  0)    118.7038         0.020739   
    232. D(H  38,C   4,Ir  0,C   1)    121.0740         0.001703   
    233. D(C   1,C   4,C   3,Ir  0)    -61.3038         0.020739   
    234. D(C   3,C   4,Ir  0,C   2)    -80.3748         0.001703   
    235. D(C   2,C   5,Ir  0,C   1)    -39.1530         0.001692   
    236. D(H  29,C   5,C   3,C   4)   -177.3982         0.027314   
    237. D(C   2,C   5,Ir  0,C   4)    -81.5244         0.001692   
    238. D(C   2,C   5,Ir  0,N   6)     28.0996         0.001692   
    239. D(C   2,C   5,Ir  0,O  31)    114.4965         0.001692   
    240. D(C   3,C   5,Ir  0,C   1)     80.5428         0.001692   
    241. D(C   3,C   5,Ir  0,C   2)    119.6959         0.001692   
    242. D(C   3,C   5,Ir  0,C   4)     38.1715         0.001692   
    243. D(H  29,C   5,C   2,C   1)    178.4908         0.022853   
    244. D(C   3,C   5,Ir  0,O  31)   -125.8077         0.001692   
    245. D(H  29,C   5,Ir  0,C   1)   -158.5586         0.001692   
    246. D(C   3,C   5,C   2,Ir  0)    -60.1510         0.022853   
    247. D(H  29,C   5,Ir  0,C   3)    120.8985         0.001692   
    248. D(H  29,C   5,Ir  0,C   4)    159.0700         0.001692   
    249. D(H  29,C   5,Ir  0,N   6)    -91.3060         0.001692   
    250. D(H  29,C   5,Ir  0,O  31)     -4.9091         0.001692   
    251. D(Ir  0,C   5,C   2,C   1)     63.3108         0.022853   
    252. D(H  29,C   5,Ir  0,C   2)   -119.4056         0.001692   
    253. D(Ir  0,C   5,C   2,H  28)   -122.8008         0.022853   
    254. D(C   3,C   5,C   2,C   1)      3.1598         0.022853   
    255. D(C   3,C   5,C   2,H  28)    177.0482         0.022853   
    256. D(C   3,C   5,Ir  0,N   6)    147.7955         0.001692   
    257. D(H  29,C   5,C   2,Ir  0)    115.1801         0.022853   
    258. D(H  29,C   5,C   2,H  28)     -7.6208         0.022853   
    259. D(Ir  0,C   5,C   3,C   4)    -60.9524         0.027314   
    260. D(Ir  0,C   5,C   3,H  37)    120.2393         0.027314   
    261. D(C   2,C   5,C   3,Ir  0)     58.8644         0.027314   
    262. D(C   2,C   5,C   3,C   4)     -2.0880         0.027314   
    263. D(C   2,C   5,C   3,H  37)    179.1038         0.027314   
    264. D(C   2,C   5,Ir  0,C   3)   -119.6959         0.001692   
    265. D(H  29,C   5,C   3,Ir  0)   -116.4457         0.027314   
    266. D(H  29,C   5,C   3,H  37)      3.7936         0.027314   
    267. D(C  17,N   6,Ir  0,C   1)    -95.0468         0.001776   
    268. D(C   7,N   6,Ir  0,C   2)     43.5164         0.001776   
    269. D(C   7,N   6,Ir  0,C   3)    119.9232         0.001776   
    270. D(C   7,N   6,Ir  0,C   4)    116.9710         0.001776   
    271. D(C   7,N   6,Ir  0,C   5)     24.9269         0.001776   
    272. D(C   7,N   6,Ir  0,C   1)     82.8551         0.001776   
    273. D(C   7,N   6,Ir  0,O  31)    -64.1735         0.001776   
    274. D(C  17,N   6,Ir  0,C   2)   -134.3855         0.001776   
    275. D(C  17,N   6,Ir  0,C   3)    -57.9787         0.001776   
    276. D(C  17,N   6,Ir  0,C   4)    -60.9309         0.001776   
    277. D(C  17,N   6,Ir  0,C   5)   -152.9750         0.001776   
    278. D(C  17,N   6,Ir  0,O  31)    117.9247         0.001776   
    279. D(C   8,C   7,N   6,Ir  0)    151.6824         0.014438   
    280. D(C   8,C   7,N   6,C  17)    -30.5416         0.014438   
    281. D(C  12,C   7,N   6,Ir  0)    -82.8128         0.014438   
    282. D(C  12,C   7,N   6,C  17)     94.9632         0.014438   
    283. D(H  13,C   7,N   6,Ir  0)     33.7835         0.014438   
    284. D(H  13,C   7,N   6,C  17)   -148.4405         0.014438   
    285. D(H   9,C   8,C   7,N   6)   -169.7006         0.011798   
    286. D(H   9,C   8,C   7,C  12)     65.8503         0.011798   
    287. D(H   9,C   8,C   7,H  13)    -53.6150         0.011798   
    288. D(H  10,C   8,C   7,N   6)     72.2079         0.011798   
    289. D(H  10,C   8,C   7,C  12)    -52.2411         0.011798   
    290. D(H  10,C   8,C   7,H  13)   -171.7065         0.011798   
    291. D(H  11,C   8,C   7,N   6)    -51.0242         0.011798   
    292. D(H  11,C   8,C   7,C  12)   -175.4733         0.011798   
    293. D(H  11,C   8,C   7,H  13)     65.0613         0.011798   
    294. D(H  14,C  12,C   7,N   6)    175.7820         0.011603   
    295. D(H  14,C  12,C   7,C   8)    -57.5412         0.011603   
    296. D(H  14,C  12,C   7,H  13)     61.5599         0.011603   
    297. D(H  15,C  12,C   7,N   6)    -65.0096         0.011603   
    298. D(H  15,C  12,C   7,C   8)     61.6672         0.011603   
    299. D(H  15,C  12,C   7,H  13)   -179.2317         0.011603   
    300. D(H  16,C  12,C   7,N   6)     56.4265         0.011603   
    301. D(H  16,C  12,C   7,C   8)   -176.8968         0.011603   
    302. D(H  16,C  12,C   7,H  13)    -57.7957         0.011603   
    303. D(C  18,C  17,N   6,Ir  0)     -8.2168         0.060150   
    304. D(C  18,C  17,N   6,C   7)    173.8765         0.060150   
    305. D(H  19,C  17,N   6,Ir  0)    173.7291         0.060150   
    306. D(H  19,C  17,N   6,C   7)     -4.1776         0.060150   
    307. D(C  20,C  18,C  17,N   6)    -26.8831         0.018693   
    308. D(C  20,C  18,C  17,H  19)    151.1794         0.018693   
    309. D(S  22,C  18,C  17,N   6)    150.1100         0.018693   
    310. D(S  22,C  18,C  17,H  19)    -31.8274         0.018693   
    311. D(C  21,C  20,C  18,C  17)    175.3109         0.030007   
    312. D(C  21,C  20,C  18,S  22)     -2.0358         0.030007   
    313. D(H  24,C  20,C  18,C  17)    -40.8438         0.030007   
    314. D(H  24,C  20,C  18,S  22)    141.8095         0.030007   
    315. D(C  23,C  21,C  20,C  18)      1.7084         0.023057   
    316. D(C  23,C  21,C  20,H  24)   -141.6507         0.023057   
    317. D(H  25,C  21,C  20,C  18)    177.9944         0.023057   
    318. D(H  25,C  21,C  20,H  24)     34.6353         0.023057   
    319. D(C  23,S  22,C  18,C  17)   -175.7549         0.005577   
    320. D(C  23,S  22,C  18,C  20)      1.4467         0.005577   
    321. D(S  22,C  23,C  21,C  20)     -0.6528         0.033342   
    322. D(S  22,C  23,C  21,H  25)   -176.9917         0.033342   
    323. D(H  26,C  23,C  21,C  20)    177.8195         0.033342   
    324. D(H  26,C  23,C  21,H  25)      1.4806         0.033342   
    325. D(C  21,C  23,S  22,C  18)     -0.4365         0.005457   
    326. D(H  26,C  23,S  22,C  18)   -179.0469         0.005457   
    327. D(O  30,H  24,C  20,C  18)    -44.6016         0.023641   
    328. D(O  30,H  24,C  20,C  21)     95.7982         0.023641   
    329. D(C  32,O  30,H  24,C  20)    133.7143         0.014304   
    330. D(C  32,O  31,Ir  0,C   1)    179.4134         0.001881   
    331. D(C  32,O  31,Ir  0,C   2)    169.0924         0.001881   
    332. D(C  32,O  31,Ir  0,C   3)     98.7991         0.001881   
    333. D(C  32,O  31,Ir  0,C   4)     98.0970         0.001881   
    334. D(C  32,O  31,Ir  0,C   5)    132.0239         0.001881   
    335. D(C  32,O  31,Ir  0,N   6)    -79.7213         0.001881   
    336. D(O  31,C  32,O  30,H  24)     -2.3781         0.075823   
    337. D(C  33,C  32,O  30,H  24)    175.8639         0.075823   
    338. D(O  30,C  32,O  31,Ir  0)      3.2168         0.055409   
    339. D(C  33,C  32,O  31,Ir  0)   -175.0846         0.055409   
    340. D(H  34,C  33,C  32,O  30)     30.2615         0.012868   
    341. D(H  34,C  33,C  32,O  31)   -151.3608         0.012868   
    342. D(H  35,C  33,C  32,O  30)    -87.7122         0.012868   
    343. D(H  35,C  33,C  32,O  31)     90.6654         0.012868   
    344. D(H  36,C  33,C  32,O  30)    153.5741         0.012868   
    345. D(H  36,C  33,C  32,O  31)    -28.0482         0.012868   
    -----------------------------------------------------------------

Number of atoms                         .... 39
Number of degrees of freedom            .... 345

         *************************************************************
         *                GEOMETRY OPTIMIZATION CYCLE   1            *
         *************************************************************
---------------------------------
CARTESIAN COORDINATES (ANGSTROEM)
---------------------------------
  Ir     0.588569   -0.737446    0.504898
  C      0.072881   -2.826996    0.363568
  C     -0.010633   -2.370099    1.728306
  C      2.173225   -2.123766    1.021962
  C      1.398961   -2.653313   -0.076596
  C      1.309377   -1.983384    2.126061
  N     -1.041172    0.124720   -0.495791
  C     -2.325946    0.385294    0.177541
  C     -3.098476    1.554671   -0.415470
  H     -3.932830    1.796046    0.241707
  H     -3.528658    1.328359   -1.391948
  H     -2.481623    2.449327   -0.502274
  C     -3.162636   -0.888632    0.191940
  H     -2.059713    0.640788    1.204225
  H     -4.080914   -0.721942    0.753426
  H     -3.440560   -1.189049   -0.819212
  H     -2.638024   -1.718084    0.663824
  C     -0.866235    0.372602   -1.737457
  C      0.463312    0.206390   -2.254604
  H     -1.677300    0.724579   -2.369020
  C      1.574116    0.342747   -1.434132
  C      2.760602    0.026799   -2.150518
  S      0.862961   -0.235741   -3.855599
  C      2.526665   -0.290953   -3.455555
  H      1.585329    1.286967   -0.566734
  H      3.754773    0.089925   -1.732439
  H      3.251815   -0.535389   -4.217180
  H     -0.744456   -3.211225   -0.229423
  H     -0.878339   -2.411677    2.369973
  H      1.577925   -1.574054    3.089689
  O      1.541419    2.337275    0.198070
  O      0.547740    0.967675    1.636760
  C      1.027416    2.101656    1.299868
  C      0.978643    3.176228    2.345321
  H      0.915160    4.159308    1.886056
  H      1.902669    3.144300    2.925931
  H      0.150581    3.028684    3.034054
  H      3.228331   -1.896452    1.006094
  H      1.774416   -2.876946   -1.064584

----------------------------
CARTESIAN COORDINATES (A.U.)
----------------------------
  NO LB      ZA    FRAG     MASS         X           Y           Z
   0 Ir   17.0000*   0   192.220    1.112234   -1.393570    0.954120
   1 C     6.0000    0    12.011    0.137725   -5.342248    0.687044
   2 C     6.0000    0    12.011   -0.020094   -4.478839    3.266026
   3 C     6.0000    0    12.011    4.106800   -4.013336    1.931228
   4 C     6.0000    0    12.011    2.643653   -5.014035   -0.144745
   5 C     6.0000    0    12.011    2.474364   -3.748053    4.017674
   6 N     7.0000    0    14.007   -1.967531    0.235686   -0.936910
   7 C     6.0000    0    12.011   -4.395401    0.728101    0.335504
   8 C     6.0000    0    12.011   -5.855271    2.937902   -0.785124
   9 H     1.0000    0     1.008   -7.431972    3.394034    0.456759
  10 H     1.0000    0     1.008   -6.668198    2.510235   -2.630401
  11 H     1.0000    0     1.008   -4.689587    4.628557   -0.949160
  12 C     6.0000    0    12.011   -5.976516   -1.679272    0.362714
  13 H     1.0000    0     1.008   -3.892294    1.210913    2.275655
  14 H     1.0000    0     1.008   -7.711810   -1.364274    1.423769
  15 H     1.0000    0     1.008   -6.501716   -2.246977   -1.548086
  16 H     1.0000    0     1.008   -4.985143   -3.246709    1.254445
  17 C     6.0000    0    12.011   -1.636947    0.704116   -3.283317
  18 C     6.0000    0    12.011    0.875532    0.390020   -4.260584
  19 H     1.0000    0     1.008   -3.169637    1.369256   -4.476798
  20 C     6.0000    0    12.011    2.974648    0.647697   -2.710117
  21 C     6.0000    0    12.011    5.216782    0.050642   -4.063889
  22 S    16.0000    0    32.060    1.630761   -0.445486   -7.286026
  23 C     6.0000    0    12.011    4.774705   -0.549821   -6.530052
  24 H     1.0000    0     1.008    2.995838    2.432015   -1.070972
  25 H     1.0000    0     1.008    7.095492    0.169934   -3.273834
  26 H     1.0000    0     1.008    6.145040   -1.011739   -7.969315
  27 H     1.0000    0     1.008   -1.406818   -6.068336   -0.433546
  28 H     1.0000    0     1.008   -1.659821   -4.557409    4.478601
  29 H     1.0000    0     1.008    2.981847   -2.974531    5.838665
  30 O     8.0000    0    15.999    2.912859    4.416809    0.374297
  31 O     8.0000    0    15.999    1.035079    1.828641    3.093029
  32 C     6.0000    0    12.011    1.941534    3.971555    2.456395
  33 C     6.0000    0    12.011    1.849367    6.002202    4.432015
  34 H     1.0000    0     1.008    1.729402    7.859954    3.564130
  35 H     1.0000    0     1.008    3.595524    5.941865    5.529208
  36 H     1.0000    0     1.008    0.284557    5.723384    5.733532
  37 H     1.0000    0     1.008    6.100662   -3.583775    1.901242
  38 H     1.0000    0     1.008    3.353160   -5.436640   -2.011773
* core charge reduced due to ECP

--------------------------------
INTERNAL COORDINATES (ANGSTROEM)
--------------------------------
 Ir     0   0   0     0.000000000000     0.00000000     0.00000000
 C      1   0   0     2.157009555915     0.00000000     0.00000000
 C      2   1   0     1.441434541913    69.19408337     0.00000000
 C      1   2   3     2.168101668793    64.57636819    80.91895962
 C      2   1   3     1.407588724954    71.08786393   241.16034417
 C      4   1   2     1.408586607514    71.04109011   279.30716071
 N      1   2   3     2.098317401409   100.45272640   248.21968564
 C      7   1   2     1.473737152046   121.87533974    82.77818834
 C      8   7   1     1.521804280840   113.60160364   151.65181404
 H      9   8   7     1.089165382566   108.90783569   190.29945282
 H      9   8   7     1.090769896199   112.93062381    72.20799894
 H      9   8   7     1.090159937008   111.98699420   308.97569043
 C      8   7   1     1.524185534557   109.57789720   277.15661192
 H      8   7   1     1.090977132234   104.98860313    33.75310570
 H     13   8   7     1.089163371215   109.86263717   175.78202077
 H     13   8   7     1.090832486906   111.17933029   294.99048917
 H     13   8   7     1.088978764228   112.10212896    56.42649874
 C      7   1   2     1.280928536842   116.41106884   264.83315333
 C     18   7   1     1.438169727542   117.56887783   351.52489792
 H     18   7   1     1.086524066064   121.40322609   173.72392623
 C     19  18   7     1.387326012578   121.10509545   333.30852421
 C     21  19  18     1.421263354007   110.45050687   175.36789990
 S     19  18   7     1.708264567164   125.77926210   150.37485876
 C     22  21  19     1.363391510975   112.97460514     1.72453446
 H     21  19  18     1.282797789749   118.49339228   319.48648552
 H     22  21  19     1.080308437146   124.07693915   178.03111992
 H     24  22  21     1.079576494415   127.78867938   177.82484968
 H      2   1   3     1.080414383634   124.14763451   120.19692139
 H      3   2   1     1.079964449163   126.64059363   122.44838853
 H      6   4   1     1.080843659541   125.73499877   243.55670505
 O     25  21  19     1.314285707313   173.14282181   315.10751682
 O      1   2   3     2.046758181018   147.02525144   344.45470203
 C     31  25  21     1.241112572595   112.95311809   133.23167652
 C     33  31  25     1.500017326995   119.64425611   175.96770033
 H     34  33  31     1.086921108754   110.81425890    30.21087410
 H     34  33  31     1.091764254592   108.79473966   272.23717249
 H     34  33  31     1.087110610108   111.65986014   153.52349662
 H      4   1   2     1.079415339434   125.18511238   157.91703144
 H      5   2   1     1.080299286859   125.98327178   241.26972408

---------------------------
INTERNAL COORDINATES (A.U.)
---------------------------
 Ir     0   0   0     0.000000000000     0.00000000     0.00000000
 C      1   0   0     4.076157328931     0.00000000     0.00000000
 C      2   1   0     2.723916524189    69.19408337     0.00000000
 C      1   2   3     4.097118384517    64.57636819    80.91895962
 C      2   1   3     2.659957199359    71.08786393   241.16034417
 C      4   1   2     2.661842924110    71.04109011   279.30716071
 N      1   2   3     3.965245230705   100.45272640   248.21968564
 C      7   1   2     2.784959610752   121.87533974    82.77818834
 C      8   7   1     2.875793320217   113.60160364   151.65181404
 H      9   8   7     2.058224287597   108.90783569   190.29945282
 H      9   8   7     2.061256378942   112.93062381    72.20799894
 H      9   8   7     2.060103723118   111.98699420   308.97569043
 C      8   7   1     2.880293237598   109.57789720   277.15661192
 H      8   7   1     2.061647998293   104.98860313    33.75310570
 H     13   8   7     2.058220486695   109.86263717   175.78202077
 H     13   8   7     2.061374658237   111.17933029   294.99048917
 H     13   8   7     2.057871630046   112.10212896    56.42649874
 C      7   1   2     2.420604131756   116.41106884   264.83315333
 C     18   7   1     2.717746919151   117.56887783   351.52489792
 H     18   7   1     2.053232922775   121.40322609   173.72392623
 C     19  18   7     2.621666222238   121.10509545   333.30852421
 C     21  19  18     2.685798503252   110.45050687   175.36789990
 S     19  18   7     3.228152196222   125.77926210   150.37485876
 C     22  21  19     2.576436569055   112.97460514     1.72453446
 H     21  19  18     2.424136507825   118.49339228   319.48648552
 H     22  21  19     2.041487086370   124.07693915   178.03111992
 H     24  22  21     2.040103915062   127.78867938   177.82484968
 H      2   1   3     2.041687296217   124.14763451   120.19692139
 H      3   2   1     2.040837043290   126.64059363   122.44838853
 H      6   4   1     2.042498510117   125.73499877   243.55670505
 O     25  21  19     2.483640048549   173.14282181   315.10751682
 O      1   2   3     3.867812424487   147.02525144   344.45470203
 C     31  25  21     2.345362863571   112.95311809   133.23167652
 C     33  31  25     2.834621944158   119.64425611   175.96770033
 H     34  33  31     2.053983224722   110.81425890    30.21087410
 H     34  33  31     2.063135443984   108.79473966   272.23717249
 H     34  33  31     2.054341330383   111.65986014   153.52349662
 H      4   1   2     2.039799376284   125.18511238   157.91703144
 H      5   2   1     2.041469794833   125.98327178   241.26972408

---------------------
BASIS SET INFORMATION
---------------------
There are 6 groups of distinct atoms

 Group   1 Type Ir  : 7s6p5d1f contracted to 6s3p2d1f pattern {211111/411/41/1}
 Group   2 Type C   : 8s4p1d contracted to 4s2p1d pattern {5111/31/1}
 Group   3 Type N   : 8s4p1d contracted to 4s2p1d pattern {5111/31/1}
 Group   4 Type H   : 4s contracted to 2s pattern {31}
 Group   5 Type S   : 10s7p1d contracted to 4s3p1d pattern {5311/511/1}
 Group   6 Type O   : 8s4p1d contracted to 4s2p1d pattern {5111/31/1}

Atom   0Ir   basis set group =>   1
Atom   1C    basis set group =>   2
Atom   2C    basis set group =>   2
Atom   3C    basis set group =>   2
Atom   4C    basis set group =>   2
Atom   5C    basis set group =>   2
Atom   6N    basis set group =>   3
Atom   7C    basis set group =>   2
Atom   8C    basis set group =>   2
Atom   9H    basis set group =>   4
Atom  10H    basis set group =>   4
Atom  11H    basis set group =>   4
Atom  12C    basis set group =>   2
Atom  13H    basis set group =>   4
Atom  14H    basis set group =>   4
Atom  15H    basis set group =>   4
Atom  16H    basis set group =>   4
Atom  17C    basis set group =>   2
Atom  18C    basis set group =>   2
Atom  19H    basis set group =>   4
Atom  20C    basis set group =>   2
Atom  21C    basis set group =>   2
Atom  22S    basis set group =>   5
Atom  23C    basis set group =>   2
Atom  24H    basis set group =>   4
Atom  25H    basis set group =>   4
Atom  26H    basis set group =>   4
Atom  27H    basis set group =>   4
Atom  28H    basis set group =>   4
Atom  29H    basis set group =>   4
Atom  30O    basis set group =>   6
Atom  31O    basis set group =>   6
Atom  32C    basis set group =>   2
Atom  33C    basis set group =>   2
Atom  34H    basis set group =>   4
Atom  35H    basis set group =>   4
Atom  36H    basis set group =>   4
Atom  37H    basis set group =>   4
Atom  38H    basis set group =>   4
---------------------------------
AUXILIARY/J BASIS SET INFORMATION
---------------------------------
There are 6 groups of distinct atoms

 Group   1 Type Ir  : 11s5p5d3f3g contracted to 8s5p5d2f3g pattern {41111111/11111/11111/21/111}
 Group   2 Type C   : 12s5p4d2f1g contracted to 6s4p3d1f1g pattern {711111/2111/211/2/1}
 Group   3 Type N   : 12s5p4d2f1g contracted to 6s4p3d1f1g pattern {711111/2111/211/2/1}
 Group   4 Type H   : 5s2p1d contracted to 3s1p1d pattern {311/2/1}
 Group   5 Type S   : 14s5p5d2f1g contracted to 8s4p3d1f1g pattern {71111111/2111/311/2/1}
 Group   6 Type O   : 12s5p4d2f1g contracted to 6s4p3d1f1g pattern {711111/2111/211/2/1}

Atom   0Ir   basis set group =>   1
Atom   1C    basis set group =>   2
Atom   2C    basis set group =>   2
Atom   3C    basis set group =>   2
Atom   4C    basis set group =>   2
Atom   5C    basis set group =>   2
Atom   6N    basis set group =>   3
Atom   7C    basis set group =>   2
Atom   8C    basis set group =>   2
Atom   9H    basis set group =>   4
Atom  10H    basis set group =>   4
Atom  11H    basis set group =>   4
Atom  12C    basis set group =>   2
Atom  13H    basis set group =>   4
Atom  14H    basis set group =>   4
Atom  15H    basis set group =>   4
Atom  16H    basis set group =>   4
Atom  17C    basis set group =>   2
Atom  18C    basis set group =>   2
Atom  19H    basis set group =>   4
Atom  20C    basis set group =>   2
Atom  21C    basis set group =>   2
Atom  22S    basis set group =>   5
Atom  23C    basis set group =>   2
Atom  24H    basis set group =>   4
Atom  25H    basis set group =>   4
Atom  26H    basis set group =>   4
Atom  27H    basis set group =>   4
Atom  28H    basis set group =>   4
Atom  29H    basis set group =>   4
Atom  30O    basis set group =>   6
Atom  31O    basis set group =>   6
Atom  32C    basis set group =>   2
Atom  33C    basis set group =>   2
Atom  34H    basis set group =>   4
Atom  35H    basis set group =>   4
Atom  36H    basis set group =>   4
Atom  37H    basis set group =>   4
Atom  38H    basis set group =>   4
-------------------------
ECP PARAMETER INFORMATION
-------------------------

 Group 1, Type Ir ECP Def2-ECP (replacing 60 core electrons, lmax=3)

Atom   0Ir   ECP group =>   1

------------------------------------------------------------------------------
                           ORCA GTO INTEGRAL CALCULATION
                           -- RI-GTO INTEGRALS CHOSEN --
------------------------------------------------------------------------------
------------------------------------------------------------------------------
                   ___                                                        
                  /   \      - P O W E R E D   B Y -                         
                 /     \                                                     
                 |  |  |   _    _      __       _____    __    __             
                 |  |  |  | |  | |    /  \     |  _  \  |  |  /  |          
                  \  \/   | |  | |   /    \    | | | |  |  | /  /          
                 / \  \   | |__| |  /  /\  \   | |_| |  |  |/  /          
                |  |  |   |  __  | /  /__\  \  |    /   |      \           
                |  |  |   | |  | | |   __   |  |    \   |  |\   \          
                \     /   | |  | | |  |  |  |  | |\  \  |  | \   \       
                 \___/    |_|  |_| |__|  |__|  |_| \__\ |__|  \__/        
                                                                              
                      - O R C A' S   B I G   F R I E N D -                    
                                      &                                       
                       - I N T E G R A L  F E E D E R -                       
                                                                              
 v1 FN, 2020, v2 2021                                                         
------------------------------------------------------------------------------


Reading SHARK input file reaction4-IEIP_ts_guess_scan_4-14_orca.SHARKINP.tmp ... ok
----------------------
SHARK INTEGRAL PACKAGE
----------------------

Number of atoms                             ...     39
Number of basis functions                   ...    358
Number of shells                            ...    184
Maximum angular momentum                    ...      3
Integral batch strategy                     ... SHARK/LIBINT Hybrid
RI-J (if used) integral strategy            ... SPLIT-RIJ (Revised 2003 algorithm where possible)
Printlevel                                  ...      1
Contraction scheme used                     ... SEGMENTED contraction
Coulomb Range Separation                    ... NOT USED
Exchange Range Separation                   ... NOT USED
Finite Nucleus Model                        ... NOT USED
Auxiliary Coulomb fitting basis             ... AVAILABLE
   # of basis functions in Aux-J            ...   1231
   # of shells in Aux-J                     ...    405
   Maximum angular momentum in Aux-J        ...      4
Auxiliary J/K fitting basis                 ... NOT available
Auxiliary Correlation fitting basis         ... NOT available
Auxiliary 'external' fitting basis          ... NOT available
Integral threshold                          ...     2.500000e-11
Primitive cut-off                           ...     2.500000e-12
Primitive pair pre-selection threshold      ...     2.500000e-12

Calculating pre-screening integrals         ... done (  0.1 sec) Dimension = 184
Organizing shell pair data                  ... done (  0.1 sec)
Shell pair information
Total number of shell pairs                 ...     17020
Shell pairs after pre-screening             ...     12941
Total number of primitive shell pairs       ...     60705
Primitive shell pairs kept                  ...     29034
          la=0 lb=0:   4957 shell pairs
          la=1 lb=0:   4247 shell pairs
          la=1 lb=1:    858 shell pairs
          la=2 lb=0:   1742 shell pairs
          la=2 lb=1:    786 shell pairs
          la=2 lb=2:    177 shell pairs
          la=3 lb=0:    111 shell pairs
          la=3 lb=1:     41 shell pairs
          la=3 lb=2:     21 shell pairs
          la=3 lb=3:      1 shell pairs

Calculating one electron integrals          ... done (  0.1 sec)
Calculating ECP integrals                   ... done (  0.8 sec)
Calculating RI/J V-Matrix + Cholesky decomp.... done (  0.1 sec)
Calculating Nuclear repulsion               ... done (  0.0 sec) ENN=   2028.930329944695 Eh

SHARK setup successfully completed in   1.4 seconds

Maximum memory used throughout the entire GTOINT-calculation: 90.3 MB
-------------------------------------------------------------------------------
                                 ORCA SCF
-------------------------------------------------------------------------------

------------
SCF SETTINGS
------------
Hamiltonian:
 Density Functional     Method          .... DFT(GTOs)
 Exchange Functional    Exchange        .... PBE
   PBE kappa parameter   XKappa         ....  1.024500
   PBE mue parameter    XMuePBE         ....  0.123457
 Correlation Functional Correlation     .... PBE
   PBE beta parameter  CBetaPBE         ....  0.030000
 LDA part of GGA corr.  LDAOpt          .... PW91-LDA
 Gradients option       PostSCFGGA      .... off
 Hybrid DFT is turned on
   Fraction HF Exchange ScalHFX         ....  0.420000
   Scaling of DF-GGA-X  ScalDFX         ....  0.580000
   Scaling of DF-GGA-C  ScalDFC         ....  1.000000
   Scaling of DF-LDA-C  ScalLDAC        ....  1.000000
   Perturbative correction              ....  0.000000
   Density functional embedding theory  .... OFF
 RI-approximation to the Coulomb term is turned on
   Number of AuxJ basis functions       .... 1231
   RIJ-ON(X) (HFX calculated with O(N)) .... on
   Number of AuxJ basis functions       .... 1231
   RIJ-COSX (HFX calculated with COS-X)).... on


General Settings:
 Integral files         IntName         .... reaction4-IEIP_ts_guess_scan_4-14_orca
 Hartree-Fock type      HFTyp           .... RHF
 Total Charge           Charge          ....    1
 Multiplicity           Mult            ....    1
 Number of Electrons    NEL             ....  164
 Basis Dimension        Dim             ....  358
 Nuclear Repulsion      ENuc            ....   2028.9303299447 Eh

Convergence Acceleration:
 DIIS                   CNVDIIS         .... on
   Start iteration      DIISMaxIt       ....    12
   Startup error        DIISStart       ....  0.200000
   # of expansion vecs  DIISMaxEq       ....     5
   Bias factor          DIISBfac        ....   1.050
   Max. coefficient     DIISMaxC        ....  10.000
 Trust-Rad. Augm. Hess. CNVTRAH         .... auto
   Auto Start mean grad. ratio tolernc. ....  1.125000
   Auto Start start iteration           ....    20
   Auto Start num. interpolation iter.  ....    10
   Max. Number of Micro iterations      ....    16
   Max. Number of Macro iterations      .... Maxiter - #DIIS iter
   Number of Davidson start vectors     ....     2
   Converg. threshold I  (grad. norm)   ....   1.000e-05
   Converg. threshold II (energy diff.) ....   1.000e-08
   Grad. Scal. Fac. for Micro threshold ....   0.100
   Minimum threshold for Micro iter.    ....   0.010
   NR start threshold (gradient norm)   ....   0.001
   Initial trust radius                 ....   0.400
   Minimum AH scaling param. (alpha)    ....   1.000
   Maximum AH scaling param. (alpha)    .... 1000.000
   Orbital update algorithm             .... Taylor
   White noise on init. David. guess    .... on
   Maximum white noise                  ....   0.010
   Quad. conv. algorithm                .... NR
   COSX micro iterations for RIJONX calc.... off
 SOSCF                  CNVSOSCF        .... off
 Level Shifting         CNVShift        .... on
   Level shift para.    LevelShift      ....    0.2500
   Turn off err/grad.   ShiftErr        ....    0.0010
 Zerner damping         CNVZerner       .... off
 Static damping         CNVDamp         .... on
   Fraction old density DampFac         ....    0.7000
   Max. Damping (<1)    DampMax         ....    0.9800
   Min. Damping (>=0)   DampMin         ....    0.0000
   Turn off err/grad.   DampErr         ....    0.1000
 Fernandez-Rico         CNVRico         .... off

SCF Procedure:
 Maximum # iterations   MaxIter         ....   250
 SCF integral mode      SCFMode         .... Direct
   Integral package                     .... SHARK and LIBINT hybrid scheme
 Reset frequency        DirectResetFreq ....    20
 Integral Threshold     Thresh          ....  2.500e-11 Eh
 Primitive CutOff       TCut            ....  2.500e-12 Eh

Convergence Tolerance:
 Convergence Check Mode ConvCheckMode   .... Total+1el-Energy
 Convergence forced     ConvForced      .... 0
 Energy Change          TolE            ....  1.000e-08 Eh
 1-El. energy change                    ....  1.000e-05 Eh
 DIIS Error             TolErr          ....  5.000e-07


Diagonalization of the overlap matrix:
Smallest eigenvalue                        ... 1.226e-03
Time for diagonalization                   ...    0.034 sec
Threshold for overlap eigenvalues          ... 1.000e-08
Number of eigenvalues below threshold      ... 0
Time for construction of square roots      ...    0.010 sec
Total time needed                          ...    0.045 sec

--------------------
INITIAL GUESS: HCORE
--------------------
                      -----------------
                      INTIAL GUESS DONE 
                      -----------------
-------------------
DFT GRID GENERATION
-------------------

General Integration Accuracy     IntAcc      ... 4.159
Radial Grid Type                 RadialGrid  ... OptM3 with GC (2021)
Angular Grid (max. ang.)         AngularGrid ... 3 (Lebedev-194)
Angular grid pruning method      GridPruning ... 4 (adaptive)
Weight generation scheme         WeightScheme... Becke
Basis function cutoff            BFCut       ... 1.0000e-11
Integration weight cutoff        WCut        ... 1.0000e-14
Angular grids for H and He will be reduced by one unit
Partially contracted basis set               ... off
Rotationally invariant grid construction     ... off

Total number of grid points                  ...    93320
Total number of batches                      ...     1476
Average number of points per batch           ...       63
Average number of grid points per atom       ...     2393
Time for grid setup =    1.774 sec

--------------------
COSX GRID GENERATION
--------------------

GRIDX 1
-------
General Integration Accuracy     IntAcc      ... 3.816
Radial Grid Type                 RadialGrid  ... OptM3 with GC (2021)
Angular Grid (max. ang.)         AngularGrid ... 1 (Lebedev-50)
Angular grid pruning method      GridPruning ... 4 (adaptive)
Weight generation scheme         WeightScheme... Becke
Basis function cutoff            BFCut       ... 1.0000e-11
Integration weight cutoff        WCut        ... 1.0000e-14
Angular grids for H and He will be reduced by one unit
Partially contracted basis set               ... on
Rotationally invariant grid construction     ... off

Total number of grid points                  ...    23203
Total number of batches                      ...      382
Average number of points per batch           ...       60
Average number of grid points per atom       ...      595
UseSFitting                                  ... on

GRIDX 2
-------
General Integration Accuracy     IntAcc      ... 4.020
Radial Grid Type                 RadialGrid  ... OptM3 with GC (2021)
Angular Grid (max. ang.)         AngularGrid ... 2 (Lebedev-110)
Angular grid pruning method      GridPruning ... 4 (adaptive)
Weight generation scheme         WeightScheme... Becke
Basis function cutoff            BFCut       ... 1.0000e-11
Integration weight cutoff        WCut        ... 1.0000e-14
Angular grids for H and He will be reduced by one unit
Partially contracted basis set               ... on
Rotationally invariant grid construction     ... off

Total number of grid points                  ...    50358
Total number of batches                      ...      805
Average number of points per batch           ...       62
Average number of grid points per atom       ...     1291
UseSFitting                                  ... on

GRIDX 3
-------
General Integration Accuracy     IntAcc      ... 4.338
Radial Grid Type                 RadialGrid  ... OptM3 with GC (2021)
Angular Grid (max. ang.)         AngularGrid ... 3 (Lebedev-194)
Angular grid pruning method      GridPruning ... 4 (adaptive)
Weight generation scheme         WeightScheme... Becke
Basis function cutoff            BFCut       ... 1.0000e-11
Integration weight cutoff        WCut        ... 1.0000e-14
Angular grids for H and He will be reduced by one unit
Partially contracted basis set               ... on
Rotationally invariant grid construction     ... off

Total number of grid points                  ...   108859
Total number of batches                      ...     1719
Average number of points per batch           ...       63
Average number of grid points per atom       ...     2791
UseSFitting                                  ... on

Time for X-Grid setup             =    4.520 sec

--------------
SCF ITERATIONS
--------------
ITER       Energy         Delta-E        Max-DP      RMS-DP      [F,P]     Damp
               ***  Starting incremental Fock matrix formation  ***
  0   -855.9658855789   0.00000000000012.76690944  0.14114746  2.6148157 0.7000
  1  -1097.2848613255-241.318975746526 8.28923854  0.10864798  1.4878471 0.7000
  2  -1168.8059828878 -71.521121562361 5.26072713  0.06078754  1.0252270 0.7000
  3  -1196.6634812914 -27.857498403543 3.66990401  0.04029065  0.7238786 0.7000
  4  -1214.8212914798 -18.157810188449 2.57383238  0.03536743  0.4474057 0.7000
  5  -1228.8506961731 -14.029404693283 1.85004879  0.02848055  0.3332272 0.7000
  6  -1240.6211143766 -11.770418203482 1.56459565  0.02650614  0.2573322 0.7000
  7  -1245.9750297281  -5.353915351543 1.57387152  0.02433276  0.2858876 0.7000
  8  -1251.9703739987  -5.995344270526 1.44001579  0.02312340  0.2983898 0.7000
  9  -1254.4424378365  -2.472063837872 1.46260720  0.02319958  0.3103216 0.7000
 10  -1257.8896182743  -3.447180437777 1.41640206  0.02239452  0.3138109 0.7000
 11  -1258.7172037890  -0.827585514699 1.40977803  0.02274769  0.3265900 0.7000
                               ***Turning on DIIS***
 12  -1260.8822608614  -2.165057072359 1.41208987  0.02225208  0.3208385 0.7000
 13  -1260.8516227484   0.030638112958 1.23971991  0.01889967  0.3367235 0.7000
 14  -1268.1629853775  -7.311362629123 0.86984487  0.01348921  0.2708667 0.7000
 15  -1274.6274786205  -6.464493242971 0.61402425  0.00952998  0.1998529 0.7000
 16  -1279.0695480222  -4.442069401726 0.43456700  0.00672169  0.1377677 0.7000
 17  -1282.0348786869  -2.965330664655 1.01718073  0.01579155  0.0906889 0.0000
 18  -1288.4186330087  -6.383754321821 0.04627105  0.00061918  0.0262880 0.0000
 19  -1288.4345541931  -0.015921184416 0.03576881  0.00044486  0.0217688 0.0000
               *** Restarting incremental Fock matrix formation ***
                                   *** Resetting DIIS ***
 20  -1288.4392097951  -0.004655602025 0.03884368  0.00053596  0.0159182 0.0000
 21  -1288.4404578602  -0.001248065090 0.01929953  0.00021638  0.0210628 0.0000
 22  -1288.4427872783  -0.002329418028 0.00295101  0.00007578  0.0028967 0.0000
 23  -1288.4429638874  -0.000176609164 0.00328142  0.00003953  0.0024145 0.0000
 24  -1288.4430095857  -0.000045698296 0.00300572  0.00003435  0.0005803 0.0000
               *** Restarting incremental Fock matrix formation ***
                                   *** Resetting DIIS ***
 25  -1288.4439224474  -0.000912861654 0.00543160  0.00008768  0.0006840 0.0000
 26  -1288.4439394899  -0.000017042565 0.00143067  0.00001406  0.0006371 0.0000
 27  -1288.4439398604  -0.000000370424 0.00082508  0.00000787  0.0006302 0.0000
 28  -1288.4439422684  -0.000002408053 0.00035563  0.00000295  0.0001348 0.0000
 29  -1288.4439423580  -0.000000089578 0.00023280  0.00000175  0.0001045 0.0000
 30  -1288.4439424439  -0.000000085874 0.00011322  0.00000080  0.0000375 0.0000
 31  -1288.4439424724  -0.000000028512 0.00004920  0.00000048  0.0000119 0.0000
 32  -1288.4439424728  -0.000000000432 0.00002720  0.00000025  0.0000060 0.0000
 33  -1288.4439424788  -0.000000005961 0.00001645  0.00000012  0.0000034 0.0000
 34  -1288.4439424933  -0.000000014533 0.00000692  0.00000005  0.0000029 0.0000
 35  -1288.4439424899   0.000000003386 0.00000413  0.00000004  0.0000021 0.0000
 36  -1288.4439424944  -0.000000004434 0.00000343  0.00000003  0.0000016 0.0000
                            ***DIIS convergence achieved***

               *****************************************************
               *                     SUCCESS                       *
               *           SCF CONVERGED AFTER  37 CYCLES          *
               *****************************************************

Old exchange energy                            =    -59.651300580 Eh
New exchange energy                            =    -59.651267327 Eh
Exchange energy change after final integration =      0.000033253 Eh
Total energy after final integration           =  -1288.443909240 Eh
Final COS-X integration done in                =    57.651 sec

----------------
TOTAL SCF ENERGY
----------------

Total Energy       :        -1288.44390924 Eh          -35060.34120 eV

Components:
Nuclear Repulsion  :         2028.93032994 Eh           55210.00110 eV
Electronic Energy  :        -3317.37423918 Eh          -90270.34230 eV
One Electron Energy:        -5813.48757852 Eh         -158193.03939 eV
Two Electron Energy:         2496.11333934 Eh           67922.69709 eV
Max COSX asymmetry :            0.00001718 Eh               0.00047 eV

Virial components:
Potential Energy   :        -2501.52306237 Eh          -68069.90313 eV
Kinetic Energy     :         1213.07915313 Eh           33009.56193 eV
Virial Ratio       :            2.06212682


DFT components:
N(Alpha)           :       81.999959917470 electrons
N(Beta)            :       81.999959917470 electrons
N(Total)           :      163.999919834939 electrons
E(X)               :      -79.587091856089 Eh       
E(C)               :       -7.454723684268 Eh       
E(XC)              :      -87.041815540357 Eh       
DFET-embed. en.    :        0.000000000000 Eh       

---------------
SCF CONVERGENCE
---------------

  Last Energy change         ...    1.6657e-09  Tolerance :   1.0000e-08
  Last MAX-Density change    ...    0.0000e+00  Tolerance :   1.0000e-07
  Last RMS-Density change    ...    0.0000e+00  Tolerance :   5.0000e-09
  Last DIIS Error            ...    4.5471e-07  Tolerance :   5.0000e-07

             **** THE GBW FILE WAS UPDATED (reaction4-IEIP_ts_guess_scan_4-14_orca.gbw) ****
             **** DENSITY reaction4-IEIP_ts_guess_scan_4-14_orca.scfp WAS UPDATED ****
             **** ENERGY FILE WAS UPDATED (reaction4-IEIP_ts_guess_scan_4-14_orca.en.tmp) ****
             **** THE GBW FILE WAS UPDATED (reaction4-IEIP_ts_guess_scan_4-14_orca.gbw) ****
             **** DENSITY reaction4-IEIP_ts_guess_scan_4-14_orca.scfp WAS UPDATED ****
----------------
ORBITAL ENERGIES
----------------

  NO   OCC          E(Eh)            E(eV) 
   0   2.0000     -89.755521     -2442.3719 
   1   2.0000     -19.633028      -534.2419 
   2   2.0000     -19.609990      -533.6150 
   3   2.0000     -14.834411      -403.6648 
   4   2.0000     -10.694271      -291.0059 
   5   2.0000     -10.656085      -289.9668 
   6   2.0000     -10.632871      -289.3351 
   7   2.0000     -10.632253      -289.3183 
   8   2.0000     -10.629952      -289.2557 
   9   2.0000     -10.628099      -289.2053 
  10   2.0000     -10.625022      -289.1215 
  11   2.0000     -10.620783      -289.0062 
  12   2.0000     -10.613990      -288.8213 
  13   2.0000     -10.605065      -288.5785 
  14   2.0000     -10.579466      -287.8819 
  15   2.0000     -10.578402      -287.8529 
  16   2.0000     -10.555219      -287.2221 
  17   2.0000     -10.550622      -287.0970 
  18   2.0000     -10.541566      -286.8506 
  19   2.0000      -8.394982      -228.4391 
  20   2.0000      -6.284959      -171.0224 
  21   2.0000      -6.281394      -170.9254 
  22   2.0000      -6.279812      -170.8824 
  23   2.0000      -4.027078      -109.5824 
  24   2.0000      -2.345954       -63.8367 
  25   2.0000      -2.312265       -62.9199 
  26   2.0000      -2.309876       -62.8549 
  27   2.0000      -1.324068       -36.0297 
  28   2.0000      -1.225494       -33.3474 
  29   2.0000      -1.207274       -32.8516 
  30   2.0000      -1.170004       -31.8374 
  31   2.0000      -1.120090       -30.4792 
  32   2.0000      -1.022967       -27.8364 
  33   2.0000      -0.984353       -26.7856 
  34   2.0000      -0.975106       -26.5340 
  35   2.0000      -0.960538       -26.1376 
  36   2.0000      -0.954472       -25.9725 
  37   2.0000      -0.937309       -25.5055 
  38   2.0000      -0.900861       -24.5137 
  39   2.0000      -0.869582       -23.6625 
  40   2.0000      -0.795521       -21.6472 
  41   2.0000      -0.785809       -21.3829 
  42   2.0000      -0.784656       -21.3516 
  43   2.0000      -0.777296       -21.1513 
  44   2.0000      -0.769460       -20.9381 
  45   2.0000      -0.765905       -20.8413 
  46   2.0000      -0.741834       -20.1863 
  47   2.0000      -0.723606       -19.6903 
  48   2.0000      -0.691436       -18.8149 
  49   2.0000      -0.678876       -18.4732 
  50   2.0000      -0.662564       -18.0293 
  51   2.0000      -0.657467       -17.8906 
  52   2.0000      -0.648779       -17.6542 
  53   2.0000      -0.640629       -17.4324 
  54   2.0000      -0.638086       -17.3632 
  55   2.0000      -0.634349       -17.2615 
  56   2.0000      -0.622059       -16.9271 
  57   2.0000      -0.608191       -16.5497 
  58   2.0000      -0.605665       -16.4810 
  59   2.0000      -0.604666       -16.4538 
  60   2.0000      -0.594714       -16.1830 
  61   2.0000      -0.587131       -15.9766 
  62   2.0000      -0.574811       -15.6414 
  63   2.0000      -0.567473       -15.4417 
  64   2.0000      -0.561763       -15.2864 
  65   2.0000      -0.560414       -15.2496 
  66   2.0000      -0.554094       -15.0777 
  67   2.0000      -0.547754       -14.9052 
  68   2.0000      -0.540611       -14.7108 
  69   2.0000      -0.533963       -14.5299 
  70   2.0000      -0.527787       -14.3618 
  71   2.0000      -0.519055       -14.1242 
  72   2.0000      -0.514802       -14.0085 
  73   2.0000      -0.505683       -13.7603 
  74   2.0000      -0.496127       -13.5003 
  75   2.0000      -0.480058       -13.0631 
  76   2.0000      -0.466655       -12.6983 
  77   2.0000      -0.448738       -12.2108 
  78   2.0000      -0.445923       -12.1342 
  79   2.0000      -0.418636       -11.3917 
  80   2.0000      -0.416210       -11.3256 
  81   2.0000      -0.399593       -10.8735 
  82   0.0000      -0.197766        -5.3815 
  83   0.0000      -0.157046        -4.2734 
  84   0.0000      -0.140582        -3.8254 
  85   0.0000      -0.088335        -2.4037 
  86   0.0000      -0.072813        -1.9813 
  87   0.0000      -0.065822        -1.7911 
  88   0.0000      -0.060972        -1.6591 
  89   0.0000      -0.053913        -1.4671 
  90   0.0000      -0.042635        -1.1602 
  91   0.0000      -0.033080        -0.9002 
  92   0.0000      -0.004154        -0.1130 
  93   0.0000      -0.003021        -0.0822 
  94   0.0000       0.013451         0.3660 
  95   0.0000       0.020169         0.5488 
  96   0.0000       0.025541         0.6950 
  97   0.0000       0.037216         1.0127 
  98   0.0000       0.045638         1.2419 
  99   0.0000       0.061301         1.6681 
 100   0.0000       0.070381         1.9152 
 101   0.0000       0.074535         2.0282 
 102   0.0000       0.076587         2.0840 
 103   0.0000       0.081480         2.2172 
 104   0.0000       0.084568         2.3012 
 105   0.0000       0.091061         2.4779 
 106   0.0000       0.096156         2.6165 
 107   0.0000       0.104207         2.8356 
 108   0.0000       0.106066         2.8862 
 109   0.0000       0.109633         2.9833 
 110   0.0000       0.114327         3.1110 
 111   0.0000       0.119060         3.2398 
 112   0.0000       0.124833         3.3969 
 113   0.0000       0.125605         3.4179 
 114   0.0000       0.127938         3.4814 
 115   0.0000       0.135549         3.6885 
 116   0.0000       0.146398         3.9837 
 117   0.0000       0.151551         4.1239 
 118   0.0000       0.155924         4.2429 
 119   0.0000       0.163357         4.4452 
 120   0.0000       0.169798         4.6204 
 121   0.0000       0.184581         5.0227 
 122   0.0000       0.197573         5.3762 
 123   0.0000       0.200355         5.4519 
 124   0.0000       0.227832         6.1996 
 125   0.0000       0.238300         6.4845 
 126   0.0000       0.255691         6.9577 
 127   0.0000       0.260132         7.0786 
 128   0.0000       0.279852         7.6152 
 129   0.0000       0.291635         7.9358 
 130   0.0000       0.305783         8.3208 
 131   0.0000       0.311087         8.4651 
 132   0.0000       0.323139         8.7931 
 133   0.0000       0.340029         9.2527 
 134   0.0000       0.342799         9.3280 
 135   0.0000       0.352040         9.5795 
 136   0.0000       0.357238         9.7209 
 137   0.0000       0.378872        10.3096 
 138   0.0000       0.381504        10.3812 
 139   0.0000       0.398627        10.8472 
 140   0.0000       0.407109        11.0780 
 141   0.0000       0.418500        11.3880 
 142   0.0000       0.426522        11.6062 
 143   0.0000       0.437170        11.8960 
 144   0.0000       0.444294        12.0899 
 145   0.0000       0.451789        12.2938 
 146   0.0000       0.457560        12.4508 
 147   0.0000       0.464548        12.6410 
 148   0.0000       0.465662        12.6713 
 149   0.0000       0.485265        13.2047 
 150   0.0000       0.487013        13.2523 
 151   0.0000       0.492638        13.4054 
 152   0.0000       0.494700        13.4615 
 153   0.0000       0.498959        13.5774 
[...]

----------------------
LOEWDIN ATOMIC CHARGES
----------------------
   0 Ir:   -0.230963
   1 C :   -0.047524
   2 C :   -0.075960
   3 C :   -0.069497
   4 C :   -0.044047
   5 C :   -0.018639
   6 N :   -0.016412
   7 C :   -0.069001
   8 C :   -0.362692
   9 H :    0.155873
  10 H :    0.133068
  11 H :    0.144636
  12 C :   -0.344091
  13 H :    0.154084
  14 H :    0.151482
  15 H :    0.137568
  16 H :    0.131920
  17 C :    0.034300
  18 C :   -0.201810
  19 H :    0.159324
  20 C :   -0.212096
  21 C :   -0.143287
  22 S :    0.470769
  23 C :   -0.259199
  24 H :    0.331693
  25 H :    0.159222
  26 H :    0.167158
  27 H :    0.184438
  28 H :    0.183720
  29 H :    0.191604
  30 O :   -0.268214
  31 O :   -0.188500
  32 C :    0.169127
  33 C :   -0.372315
  34 H :    0.163429
  35 H :    0.171434
  36 H :    0.155979
  37 H :    0.185866
  38 H :    0.187553

-------------------------------
LOEWDIN REDUCED ORBITAL CHARGES
-------------------------------
  0 Irs       :     2.454338  s :     2.454338
      pz      :     2.243775  p :     6.755274
      px      :     2.243790
      py      :     2.267709
      dz2     :     1.807226  d :     7.933716
      dxz     :     1.690851
      dyz     :     1.334329
      dx2y2   :     1.640001
      dxy     :     1.461309
      f0      :     0.010610  f :     0.087634
      f+1     :     0.003725
      f-1     :     0.013687
      f+2     :     0.015706
      f-2     :     0.016364
      f+3     :     0.011340
      f-3     :     0.016202
  1 C s       :     2.874374  s :     2.874374
      pz      :     1.050793  p :     3.069061
      px      :     1.082241
      py      :     0.936026
      dz2     :     0.025962  d :     0.104089
      dxz     :     0.026374
      dyz     :     0.016872
      dx2y2   :     0.018992
      dxy     :     0.015890
  2 C s       :     2.873954  s :     2.873954
      pz      :     1.040328  p :     3.100550
      px      :     1.082235
      py      :     0.977987
      dz2     :     0.024694  d :     0.101455
      dxz     :     0.028297
      dyz     :     0.017288
      dx2y2   :     0.018103
      dxy     :     0.013072
  3 C s       :     2.873621  s :     2.873621
      pz      :     1.030265  p :     3.095239
      px      :     1.082798
      py      :     0.982176
      dz2     :     0.023130  d :     0.100637
      dxz     :     0.031942
      dyz     :     0.015521
      dx2y2   :     0.015781
      dxy     :     0.014263
  4 C s       :     2.875048  s :     2.875048
      pz      :     1.087059  p :     3.065788
      px      :     1.039464
      py      :     0.939265
      dz2     :     0.022663  d :     0.103211
      dxz     :     0.030606
      dyz     :     0.013058
      dx2y2   :     0.018625
      dxy     :     0.018259
  5 C s       :     2.878259  s :     2.878259
      pz      :     1.056919  p :     3.035425
      px      :     1.036249
      py      :     0.942256
      dz2     :     0.023433  d :     0.104956
      dxz     :     0.031134
      dyz     :     0.015740
      dx2y2   :     0.015795
      dxy     :     0.018853
  6 N s       :     3.121780  s :     3.121780
      pz      :     1.262474  p :     3.797476
      px      :     1.290606
      py      :     1.244395
      dz2     :     0.030092  d :     0.097156
      dxz     :     0.027368
      dyz     :     0.018070
      dx2y2   :     0.011798
      dxy     :     0.009827
  7 C s       :     2.862615  s :     2.862615
      pz      :     1.062424  p :     3.072162
      px      :     0.934108
      py      :     1.075630
      dz2     :     0.027490  d :     0.134224
      dxz     :     0.027311
      dyz     :     0.015528
      dx2y2   :     0.030581
      dxy     :     0.033314
  8 C s       :     2.953572  s :     2.953572
      pz      :     1.134495  p :     3.341646
      px      :     1.125039
      py      :     1.082112
      dz2     :     0.014183  d :     0.067475
      dxz     :     0.017113
      dyz     :     0.007409
      dx2y2   :     0.009981
      dxy     :     0.018788
  9 H s       :     0.844127  s :     0.844127
 10 H s       :     0.866932  s :     0.866932
 11 H s       :     0.855364  s :     0.855364
 12 C s       :     2.953162  s :     2.953162
      pz      :     1.143123  p :     3.322904
      px      :     1.109887
      py      :     1.069895
      dz2     :     0.013382  d :     0.068025
      dxz     :     0.012994
      dyz     :     0.011563
      dx2y2   :     0.012328
      dxy     :     0.017757
 13 H s       :     0.845916  s :     0.845916
 14 H s       :     0.848518  s :     0.848518
 15 H s       :     0.862432  s :     0.862432
 16 H s       :     0.868080  s :     0.868080
 17 C s       :     2.877491  s :     2.877491
      pz      :     1.015372  p :     2.947401
      px      :     1.069872
      py      :     0.862156
      dz2     :     0.039413  d :     0.140808
      dxz     :     0.050684
      dyz     :     0.025577
      dx2y2   :     0.011754
      dxy     :     0.013379
 18 C s       :     2.892765  s :     2.892765
      pz      :     1.044446  p :     3.196833
      px      :     1.091055
      py      :     1.061332
      dz2     :     0.034066  d :     0.112212
      dxz     :     0.032395
      dyz     :     0.016560
      dx2y2   :     0.017577
      dxy     :     0.011614
 19 H s       :     0.840676  s :     0.840676
 20 C s       :     2.926046  s :     2.926046
      pz      :     1.141974  p :     3.197457
      px      :     1.054051
      py      :     1.001432
      dz2     :     0.011355  d :     0.088594
      dxz     :     0.035804
      dyz     :     0.008865
      dx2y2   :     0.016148
      dxy     :     0.016423
 21 C s       :     2.898238  s :     2.898238
      pz      :     1.075986  p :     3.150299
      px      :     1.090343
      py      :     0.983970
      dz2     :     0.028353  d :     0.094750
      dxz     :     0.031467
      dyz     :     0.013904
      dx2y2   :     0.014082
      dxy     :     0.006944
 22 S s       :     5.503485  s :     5.503485
      pz      :     3.250422  p :     9.872404
      px      :     3.092455
      py      :     3.529528
      dz2     :     0.049118  d :     0.153342
      dxz     :     0.030771
      dyz     :     0.018873
      dx2y2   :     0.030181
      dxy     :     0.024399
 23 C s       :     2.965669  s :     2.965669
      pz      :     1.122656  p :     3.207476
      px      :     1.024654
      py      :     1.060166
      dz2     :     0.024002  d :     0.086054
      dxz     :     0.029052
      dyz     :     0.011530
      dx2y2   :     0.012166
      dxy     :     0.009304
 24 H s       :     0.668307  s :     0.668307
 25 H s       :     0.840778  s :     0.840778
 26 H s       :     0.832842  s :     0.832842
 27 H s       :     0.815562  s :     0.815562
 28 H s       :     0.816280  s :     0.816280
 29 H s       :     0.808396  s :     0.808396
 30 O s       :     3.505720  s :     3.505720
      pz      :     1.446096  p :     4.707296
      px      :     1.565711
      py      :     1.695489
      dz2     :     0.016040  d :     0.055198
      dxz     :     0.014188
      dyz     :     0.015611
      dx2y2   :     0.005787
      dxy     :     0.003572
 31 O s       :     3.442028  s :     3.442028
      pz      :     1.692325  p :     4.686427
      px      :     1.602444
      py      :     1.391658
      dz2     :     0.009102  d :     0.060046
      dxz     :     0.004325
      dyz     :     0.015958
      dx2y2   :     0.014734
      dxy     :     0.015927
 32 C s       :     2.812197  s :     2.812197
      pz      :     0.971566  p :     2.699142
      px      :     0.766849
      py      :     0.960727
      dz2     :     0.072144  d :     0.319534
      dxz     :     0.049517
      dyz     :     0.099214
      dx2y2   :     0.048606
      dxy     :     0.050054
 33 C s       :     2.958235  s :     2.958235
      pz      :     1.102736  p :     3.351434
      px      :     1.152451
      py      :     1.096247
      dz2     :     0.004003  d :     0.062646
      dxz     :     0.017133
      dyz     :     0.020935
      dx2y2   :     0.018508
      dxy     :     0.002066
 34 H s       :     0.836571  s :     0.836571
 35 H s       :     0.828566  s :     0.828566
 36 H s       :     0.844021  s :     0.844021
 37 H s       :     0.814134  s :     0.814134
 38 H s       :     0.812447  s :     0.812447


                      *****************************
                      * MAYER POPULATION ANALYSIS *
                      *****************************

  NA   - Mulliken gross atomic population
  ZA   - Total nuclear charge
  QA   - Mulliken gross atomic charge
  VA   - Mayer's total valence
  BVA  - Mayer's bonded valence
  FA   - Mayer's free valence

  ATOM       NA         ZA         QA         VA         BVA        FA
  0 Ir    16.3901    17.0000     0.6099     3.7562     3.7562     0.0000
  1 C      6.2208     6.0000    -0.2208     3.7060     3.7060    -0.0000
  2 C      6.2874     6.0000    -0.2874     3.7390     3.7390    -0.0000
  3 C      6.2450     6.0000    -0.2450     3.7357     3.7357     0.0000
  4 C      6.2355     6.0000    -0.2355     3.7231     3.7231     0.0000
  5 C      6.1650     6.0000    -0.1650     3.6942     3.6942    -0.0000
  6 N      7.4418     7.0000    -0.4418     3.2142     3.2142    -0.0000
  7 C      6.1260     6.0000    -0.1260     3.7066     3.7066    -0.0000
  8 C      6.6835     6.0000    -0.6835     3.6883     3.6883    -0.0000
  9 H      0.7311     1.0000     0.2689     0.8975     0.8975     0.0000
 10 H      0.7747     1.0000     0.2253     0.9105     0.9105     0.0000
 11 H      0.7437     1.0000     0.2563     0.8995     0.8995    -0.0000
 12 C      6.6345     6.0000    -0.6345     3.6734     3.6734     0.0000
 13 H      0.7218     1.0000     0.2782     0.8745     0.8745    -0.0000
 14 H      0.7391     1.0000     0.2609     0.8979     0.8979    -0.0000
 15 H      0.7682     1.0000     0.2318     0.9096     0.9096    -0.0000
 16 H      0.7700     1.0000     0.2300     0.9067     0.9067    -0.0000
 17 C      5.9296     6.0000     0.0704     3.6558     3.6558    -0.0000
 18 C      6.1707     6.0000    -0.1707     3.7115     3.7115     0.0000
 19 H      0.7155     1.0000     0.2845     0.8879     0.8879     0.0000
 20 C      6.4445     6.0000    -0.4445     3.4999     3.4999    -0.0000
 21 C      6.1467     6.0000    -0.1467     3.7779     3.7779     0.0000
 22 S     15.6835    16.0000     0.3165     2.5735     2.5735     0.0000
 23 C      6.4239     6.0000    -0.4239     3.7540     3.7540    -0.0000
 24 H      0.5099     1.0000     0.4901     0.7317     0.7317     0.0000
 25 H      0.7387     1.0000     0.2613     0.9051     0.9051    -0.0000
 26 H      0.7050     1.0000     0.2950     0.8980     0.8980     0.0000
 27 H      0.7101     1.0000     0.2899     0.9031     0.9031    -0.0000
 28 H      0.7112     1.0000     0.2888     0.9067     0.9067    -0.0000
 29 H      0.6967     1.0000     0.3033     0.8931     0.8931    -0.0000
 30 O      8.4958     8.0000    -0.4958     2.1027     2.1027     0.0000
 31 O      8.5211     8.0000    -0.5211     2.1007     2.1007    -0.0000
 32 C      5.3678     6.0000     0.6322     3.8911     3.8911    -0.0000
 33 C      6.7451     6.0000    -0.7451     3.6606     3.6606    -0.0000
 34 H      0.7267     1.0000     0.2733     0.8935     0.8935    -0.0000
 35 H      0.7268     1.0000     0.2732     0.8922     0.8922     0.0000
 36 H      0.7402     1.0000     0.2598     0.8984     0.8984    -0.0000
 37 H      0.7091     1.0000     0.2909     0.9028     0.9028     0.0000
 38 H      0.7032     1.0000     0.2968     0.9008     0.9008     0.0000

  Mayer bond orders larger than 0.100000
B(  0-Ir,  1-C ) :   0.4272 B(  0-Ir,  2-C ) :   0.5116 B(  0-Ir,  3-C ) :   0.4587 
B(  0-Ir,  4-C ) :   0.4521 B(  0-Ir,  5-C ) :   0.4032 B(  0-Ir,  6-N ) :   0.4710 
B(  0-Ir, 20-C ) :   0.3220 B(  0-Ir, 31-O ) :   0.5398 B(  1-C ,  2-C ) :   1.1205 
B(  1-C ,  4-C ) :   1.2359 B(  1-C , 27-H ) :   0.9046 B(  2-C ,  5-C ) :   1.1467 
B(  2-C , 28-H ) :   0.9088 B(  3-C ,  4-C ) :   1.1144 B(  3-C ,  5-C ) :   1.2208 
B(  3-C , 37-H ) :   0.9073 B(  4-C , 38-H ) :   0.9003 B(  5-C , 29-H ) :   0.8988 
B(  6-N ,  7-C ) :   0.8931 B(  6-N , 17-C ) :   1.6575 B(  7-C ,  8-C ) :   0.9910 
B(  7-C , 12-C ) :   0.9681 B(  7-C , 13-H ) :   0.8776 B(  8-C ,  9-H ) :   0.9047 
B(  8-C , 10-H ) :   0.9130 B(  8-C , 11-H ) :   0.9110 B( 12-C , 14-H ) :   0.9074 
B( 12-C , 15-H ) :   0.9156 B( 12-C , 16-H ) :   0.9131 B( 17-C , 18-C ) :   1.0975 
B( 17-C , 19-H ) :   0.8760 B( 18-C , 20-C ) :   1.2875 B( 18-C , 22-S ) :   1.2104 
B( 20-C , 21-C ) :   1.2991 B( 20-C , 24-H ) :   0.3795 B( 21-C , 23-C ) :   1.5336 
B( 21-C , 25-H ) :   0.9058 B( 22-S , 23-C ) :   1.2212 B( 23-C , 26-H ) :   0.8921 
B( 24-H , 30-O ) :   0.3059 B( 30-O , 32-C ) :   1.5876 B( 31-O , 32-C ) :   1.3507 
B( 32-C , 33-C ) :   0.9491 B( 33-C , 34-H ) :   0.9014 B( 33-C , 35-H ) :   0.8941 
B( 33-C , 36-H ) :   0.9079 


------------------
HIRSHFELD ANALYSIS
------------------

Total integrated alpha density =     81.999797295
Total integrated beta density  =     81.999797295

  ATOM     CHARGE      SPIN    
   0 Ir   0.190769    0.000000
   1 C    0.003621    0.000000
   2 C   -0.006344    0.000000
   3 C   -0.006013    0.000000
   4 C    0.003060    0.000000
   5 C    0.020052    0.000000
   6 N   -0.075240    0.000000
   7 C    0.052284    0.000000
   8 C   -0.071494    0.000000
   9 H    0.052878    0.000000
  10 H    0.037688    0.000000
  11 H    0.041842    0.000000
  12 C   -0.071456    0.000000
  13 H    0.044282    0.000000
  14 H    0.050325    0.000000
  15 H    0.036968    0.000000
  16 H    0.029974    0.000000
  17 C    0.096928    0.000000
  18 C   -0.018640    0.000000
  19 H    0.075166    0.000000
  20 C   -0.083615    0.000000
  21 C   -0.037044    0.000000
  22 S    0.121544    0.000000
  23 C   -0.025747    0.000000
  24 H    0.082102    0.000000
  25 H    0.066449    0.000000
  26 H    0.077289    0.000000
  27 H    0.083261    0.000000
  28 H    0.082697    0.000000
  29 H    0.093336    0.000000
  30 O   -0.228808    0.000000
  31 O   -0.246806    0.000000
  32 C    0.252998    0.000000
  33 C   -0.063459    0.000000
  34 H    0.057648    0.000000
  35 H    0.063289    0.000000
  36 H    0.051223    0.000000
  37 H    0.084989    0.000000
  38 H    0.082409    0.000000

  TOTAL   1.000405    0.000000

-------
TIMINGS
-------

Total SCF time: 0 days 0 hours 5 min 2 sec 

Total time                  ....     302.125 sec
Sum of individual times     ....     301.660 sec  ( 99.8%)

Fock matrix formation       ....     293.834 sec  ( 97.3%)
  Split-RI-J                ....      23.526 sec  (  8.0% of F)
  Chain of spheres X        ....     253.786 sec  ( 86.4% of F)
  XC integration            ....      16.498 sec  (  5.6% of F)
    Basis function eval.    ....       7.594 sec  ( 46.0% of XC)
    Density eval.           ....       4.301 sec  ( 26.1% of XC)
    XC-Functional eval.     ....       1.217 sec  (  7.4% of XC)
    XC-Potential eval.      ....       2.768 sec  ( 16.8% of XC)
Diagonalization             ....       0.264 sec  (  0.1%)
Density matrix formation    ....       0.040 sec  (  0.0%)
Population analysis         ....       1.422 sec  (  0.5%)
Initial guess               ....       0.024 sec  (  0.0%)
Orbital Transformation      ....       0.000 sec  (  0.0%)
Orbital Orthonormalization  ....       0.018 sec  (  0.0%)
DIIS solution               ....       0.107 sec  (  0.0%)
Grid generation             ....       5.970 sec  (  2.0%)

Maximum memory used throughout the entire SCF-calculation: 172.6 MB


-------------------------------------------------------------------------------
                          DFT DISPERSION CORRECTION                            
                                                                               
                              DFTD3 V3.1  Rev 1                                
                          USING Becke-Johnson damping                          
-------------------------------------------------------------------------------
The PBEh-3c composite method is recognized
Using three-body term ABC
Active option DFTDOPT                   ...         4   

molecular C6(AA) [au] = 19547.568465 


            DFT-D V3
 parameters
 s6 scaling factor         :     1.0000 
 a1 scaling factor         :     0.4860 
 s8 scaling factor         :     0.0000 
 a2 scaling factor         :     4.5000 
 Damping factor alpha9(ATM):    16.0000 
 ad hoc parameters k1-k3   :    16.0000     1.3333    -4.0000 

 Edisp/kcal,au: -19.080317720892  -0.030406418507 
 E6   /kcal   : -19.416773135 
 E8   /kcal   :  -0.000000000 
 E6(ABC)      :   0.336455414 
 % E8         :   0.000000000 
 % E6(ABC)    :  -1.763363791 

-------------------------   ----------------
Dispersion correction           -0.030406419
-------------------------   ----------------

 ** NOTE ** -> element ir will be treated as co
NOTIFICATION: Different basis set in ORCA and otool_gcp:
ORCA: 358  gCP: 357 
If you are NOT using ECPs, check your basis set inputs!
------------------   -----------------
gCP correction             0.077925133
------------------   -----------------

-------------------------   --------------------
FINAL SINGLE POINT ENERGY     -1288.396841432986
-------------------------   --------------------

                                *** OPTIMIZATION RUN DONE ***

                            ***************************************
                            *     ORCA property calculations      *
                            ***************************************

                                    ---------------------
                                    Active property flags
                                    ---------------------
   (+) Dipole Moment


------------------------------------------------------------------------------
                       ORCA ELECTRIC PROPERTIES CALCULATION
------------------------------------------------------------------------------

Dipole Moment Calculation                       ... on
Quadrupole Moment Calculation                   ... off
Polarizability Calculation                      ... off
GBWName                                         ... reaction4-IEIP_ts_guess_scan_4-14_orca.gbw
Electron density                                ... reaction4-IEIP_ts_guess_scan_4-14_orca.scfp
The origin for moment calculation is the CENTER OF MASS  = ( 0.846994, -0.603151 -0.104688)

-------------
DIPOLE MOMENT
-------------
                                X             Y             Z
Electronic contribution:     35.45241     -72.72761      80.20584
Nuclear contribution   :    -36.05572      71.92918     -80.24586
                        -----------------------------------------
Total Dipole Moment    :     -0.60331      -0.79843      -0.04002
                        -----------------------------------------
Magnitude (a.u.)       :      1.00154
Magnitude (Debye)      :      2.54571



--------------------
Rotational spectrum 
--------------------
 
Rotational constants in cm-1:     0.010542     0.008699     0.008053 
Rotational constants in MHz :   316.031123   260.778981   241.426453 

 Dipole components along the rotational axes: 
x,y,z [a.u.] :     0.202916    -0.209456     0.958141 
x,y,z [Debye]:     0.515772    -0.532396     2.435400 

 

Timings for individual modules:

Sum of individual times         ...     4122.955 sec (=  68.716 min)
GTO integral calculation        ...       12.830 sec (=   0.214 min)   0.3 %
SCF iterations                  ...     3324.876 sec (=  55.415 min)  80.6 %
SCF Gradient evaluation         ...      783.401 sec (=  13.057 min)  19.0 %
Geometry relaxation             ...        1.848 sec (=   0.031 min)   0.0 %
                             ****ORCA TERMINATED NORMALLY****
TOTAL RUN TIME: 0 days 1 hours 8 minutes 45 seconds 774 msec
