
                                 *****************
                                 * O   R   C   A *
                                 *****************

                                            #,                                       
                                            ###                                      
                                            ####                                     
                                            #####                                    
                                            ######                                   
                                           ########,                                 
                                     ,,################,,,,,                         
                               ,,#################################,,                 
                          ,,##########################################,,             
                       ,#########################################, ''#####,          
                    ,#############################################,,   '####,        
                  ,##################################################,,,,####,       
                ,###########''''           ''''###############################       
              ,#####''   ,,,,##########,,,,          '''####'''          '####       
            ,##' ,,,,###########################,,,                        '##       
           ' ,,###''''                  '''############,,,                           
         ,,##''                                '''############,,,,        ,,,,,,###''
      ,#''                                            '''#######################'''  
     '                                                          ''''####''''         
             ,#######,   #######,   ,#######,      ##                                
            ,#'     '#,  ##    ##  ,#'     '#,    #''#        ######   ,####,        
            ##       ##  ##   ,#'  ##            #'  '#       #        #'  '#        
            ##       ##  #######   ##           ,######,      #####,   #    #        
            '#,     ,#'  ##    ##  '#,     ,#' ,#      #,         ##   #,  ,#        
             '#######'   ##     ##  '#######'  #'      '#     #####' # '####'        



                  #######################################################
                  #                        -***-                        #
                  #          Department of theory and spectroscopy      #
                  #    Directorship and core code : Frank Neese         #
                  #        Max Planck Institute fuer Kohlenforschung    #
                  #                Kaiser Wilhelm Platz 1               #
                  #                 D-45470 Muelheim/Ruhr               #
                  #                      Germany                        #
                  #                                                     #
                  #                  All rights reserved                #
                  #                        -***-                        #
                  #######################################################


                         Program Version 5.0.3 -  RELEASE  -


 With contributions from (in alphabetic order):
   Daniel Aravena         : Magnetic Suceptibility
   Michael Atanasov       : Ab Initio Ligand Field Theory (pilot matlab implementation)
   Alexander A. Auer      : GIAO ZORA, VPT2 properties, NMR spectrum
   Ute Becker             : Parallelization
   Giovanni Bistoni       : ED, misc. LED, open-shell LED, HFLD
   Martin Brehm           : Molecular dynamics
   Dmytro Bykov           : SCF Hessian
   Vijay G. Chilkuri      : MRCI spin determinant printing, contributions to CSF-ICE
   Dipayan Datta          : RHF DLPNO-CCSD density
   Achintya Kumar Dutta   : EOM-CC, STEOM-CC
   Dmitry Ganyushin       : Spin-Orbit,Spin-Spin,Magnetic field MRCI
   Miquel Garcia          : C-PCM and meta-GGA Hessian, CC/C-PCM, Gaussian charge scheme
   Yang Guo               : DLPNO-NEVPT2, F12-NEVPT2, CIM, IAO-localization
   Andreas Hansen         : Spin unrestricted coupled pair/coupled cluster methods
   Benjamin Helmich-Paris : MC-RPA, TRAH-SCF, COSX integrals
   Lee Huntington         : MR-EOM, pCC
   Robert Izsak           : Overlap fitted RIJCOSX, COSX-SCS-MP3, EOM
   Marcus Kettner         : VPT2
   Christian Kollmar      : KDIIS, OOCD, Brueckner-CCSD(T), CCSD density, CASPT2, CASPT2-K
   Simone Kossmann        : Meta GGA functionals, TD-DFT gradient, OOMP2, MP2 Hessian
   Martin Krupicka        : Initial AUTO-CI
   Lucas Lang             : DCDCAS
   Marvin Lechner         : AUTO-CI (C++ implementation), FIC-MRCC
   Dagmar Lenk            : GEPOL surface, SMD
   Dimitrios Liakos       : Extrapolation schemes; Compound Job, initial MDCI parallelization
   Dimitrios Manganas     : Further ROCIS development; embedding schemes
   Dimitrios Pantazis     : SARC Basis sets
   Anastasios Papadopoulos: AUTO-CI, single reference methods and gradients
   Taras Petrenko         : DFT Hessian,TD-DFT gradient, ASA, ECA, R-Raman, ABS, FL, XAS/XES, NRVS
   Peter Pinski           : DLPNO-MP2, DLPNO-MP2 Gradient
   Christoph Reimann      : Effective Core Potentials
   Marius Retegan         : Local ZFS, SOC
   Christoph Riplinger    : Optimizer, TS searches, QM/MM, DLPNO-CCSD(T), (RO)-DLPNO pert. Triples
   Tobias Risthaus        : Range-separated hybrids, TD-DFT gradient, RPA, STAB
   Michael Roemelt        : Original ROCIS implementation
   Masaaki Saitow         : Open-shell DLPNO-CCSD energy and density
   Barbara Sandhoefer     : DKH picture change effects
   Avijit Sen             : IP-ROCIS
   Kantharuban Sivalingam : CASSCF convergence, NEVPT2, FIC-MRCI
   Bernardo de Souza      : ESD, SOC TD-DFT
   Georgi Stoychev        : AutoAux, RI-MP2 NMR, DLPNO-MP2 response
   Willem Van den Heuvel  : Paramagnetic NMR
   Boris Wezisla          : Elementary symmetry handling
   Frank Wennmohs         : Technical directorship


 We gratefully acknowledge several colleagues who have allowed us to
 interface, adapt or use parts of their codes:
   Stefan Grimme, W. Hujo, H. Kruse, P. Pracht,  : VdW corrections, initial TS optimization,
                  C. Bannwarth, S. Ehlert          DFT functionals, gCP, sTDA/sTD-DF
   Ed Valeev, F. Pavosevic, A. Kumar             : LibInt (2-el integral package), F12 methods
   Garnet Chan, S. Sharma, J. Yang, R. Olivares  : DMRG
   Ulf Ekstrom                                   : XCFun DFT Library
   Mihaly Kallay                                 : mrcc  (arbitrary order and MRCC methods)
   Jiri Pittner, Ondrej Demel                    : Mk-CCSD
   Frank Weinhold                                : gennbo (NPA and NBO analysis)
   Christopher J. Cramer and Donald G. Truhlar   : smd solvation model
   Lars Goerigk                                  : TD-DFT with DH, B97 family of functionals
   V. Asgeirsson, H. Jonsson                     : NEB implementation
   FAccTs GmbH                                   : IRC, NEB, NEB-TS, DLPNO-Multilevel, CI-OPT
                                                   MM, QMMM, 2- and 3-layer-ONIOM, Crystal-QMMM,
                                                   LR-CPCM, SF, NACMEs, symmetry and pop. for TD-DFT,
                                                   nearIR, NL-DFT gradient (VV10), updates on ESD,
                                                   ML-optimized integration grids
   S Lehtola, MJT Oliveira, MAL Marques          : LibXC Library
   Liviu Ungur et al                             : ANISO software


 Your calculation uses the libint2 library for the computation of 2-el integrals
 For citations please refer to: http://libint.valeyev.net

 Your ORCA version has been built with support for libXC version: 5.1.0
 For citations please refer to: https://tddft.org/programs/libxc/

 This ORCA versions uses:
   CBLAS   interface :  Fast vector & matrix operations
   LAPACKE interface :  Fast linear algebra routines
   SCALAPACK package :  Parallel linear algebra routines
   Shared memory     :  Shared parallel matrices
   BLAS/LAPACK       :  OpenBLAS 0.3.15  USE64BITINT DYNAMIC_ARCH NO_AFFINITY SkylakeX SINGLE_THREADED
        Core in use  :  SkylakeX
   Copyright (c) 2011-2014, The OpenBLAS Project


Your calculation utilizes the geometrical counterpoise correction gCP
Please cite in your paper:
H.Kruse, S. Grimme J.Chem.Phys., 136, (2012), 154101 
   

Your calculation utilizes the atom-pairwise dispersion correction
with the Becke-Johnson damping scheme (D3BJ)
Cite in your paper:
S.Grimme, S.Ehrlich, L.Goerigk, J Comput Chem, (2011), 32, 1456–1465 
S.Grimme, J.Antony, S.Ehrlich and H.Krieg, J.Chem.Phys., 132, (2010), 154104 
   

Your calculation employs the composite approach PBEh-3c.
Please cite in your paper:
S. Grimme, J. G. Brandenburg, C. Bannwarth, A. Hansen J.Chem.Phys., 143, (2015), 054107 
   

================================================================================

cite the ECPs for Ir [Def2-ECP] as follows:
Ce-Yb(ecp-28): M. Dolg, H. Stoll, H.Preuss, J. Chem. Phys., 1989, 90, 1730-1734.
Y-Cd(ecp-28), Hf-Hg(ecp-46): D. Andrae,U. Haeussermann, M. Dolg, H. Stoll, H. Preuss, Theor. Chim. Acta, 1990, 77, 123-141.
In-Sb(ecp-28), Tl-Bi(ecp-46): B. Metz, H. Stoll, M. Dolg, J. Chem. Phys., 2000, 113, 2563-2569.
Te-Xe(ecp-28), Po-Rn(ecp-46): K. A. Peterson, D. Figgen, E. Goll, H. Stoll, M. Dolg, J. Chem. Phys., 2003, 119, 11113-11123.
Rb(ecp-28), Cs(ecp-46): T. Leininger, A. Nicklass, W. Kuechle, H. Stoll, M. Dolg, A. Bergner, Chem. Phys. Lett., 1996, 255, 274-280.
Sr(ecp-28), Ba(ecp-46): M. Kaupp, P. V. Schleyer, H. Stoll and H. Preuss, J. Chem. Phys., 1991, 94, 1360-1366.
La(ecp-46): M. Dolg, H. Stoll, A. Savin, H. Preuss, Theor. Chim. Acta, 1989, 75, 173-194.
Lu(ecp-28): X. Cao, M. Dolg, J. Chem. Phys., 2001, 115, 7348-7355.

ECP parameters for Ir [Def2-ECP] have been obtained from:
TURBOMOLE (7.0.2)

----- Orbital basis set information -----
Your calculation utilizes the basis: def2-mSVP

----- AuxJ basis set information -----
Your calculation utilizes the auxiliary basis: def2/J
   F. Weigend, Phys. Chem. Chem. Phys. 8, 1057 (2006).

================================================================================
                                        WARNINGS
                       Please study these warnings very carefully!
================================================================================


WARNING: Geometry Optimization
  ===> : Switching off AutoStart
         For restart on a previous wavefunction, please use MOREAD

WARNING: No Hueckel Guess possible with ECP basis!
  ===> : Switching to HCORE guess!

INFO   : the flag for use of the SHARK integral package has been found!

================================================================================
                                       INPUT FILE
================================================================================
NAME = reaction4-IEIP_ts_guess_scan_4-11_orca.inp
|  1> ! Opt PBEh-3c
|  2> %geom Constraints
|  3> { B 0 20 2.428571428571429 C }
|  4> { B 24 30 1.342857142857143 C }
|  5>     end
|  6> end
|  7> %output 
|  8> xyzfile=True 
|  9> end 
| 10> %scf 
| 11> maxiter 250 
| 12> end
| 13> %output
| 14> Print[P_Hirshfeld] = 1
| 15> end
| 16> % maxcore
| 17> 4000
| 18> *xyz 1 1
| 19> Ir   0.58619716  -0.73351410   0.49683809 
| 20> C    0.04114210  -2.81782909   0.37913922 
| 21> C    0.04629186  -2.36069287   1.74602979 
| 22> C    2.18243988  -2.13911592   0.90722979 
| 23> C    1.33697010  -2.65669538  -0.14474933 
| 24> C    1.39494962  -1.99284824   2.06428935 
| 25> N   -1.03898702   0.13829862  -0.50645015 
| 26> C   -2.32007147   0.43018694   0.15906333 
| 27> C   -3.10461581   1.55513786  -0.49844736 
| 28> H   -3.93692215   1.82967678   0.14822524 
| 29> H   -3.53918177   1.26685247  -1.45668662 
| 30> H   -2.49564512   2.44797476  -0.64209932 
| 31> C   -3.14646756  -0.84642109   0.26109335 
| 32> H   -2.04515966   0.74770083   1.16613814 
| 33> H   -4.06627069  -0.64570527   0.80855138 
| 34> H   -3.42130438  -1.21996121  -0.72622864 
| 35> H   -2.61716748  -1.63487307   0.79407708 
| 36> C   -0.85333562   0.36405467  -1.75203697 
| 37> C    0.48575428   0.18522262  -2.25484729 
| 38> H   -1.65557235   0.71267513  -2.39632829 
| 39> C    1.59150740   0.41575185  -1.44648339 
| 40> C    2.78823130   0.06754331  -2.13280909 
| 41> S    0.90074504  -0.38712505  -3.80839215 
| 42> C    2.56664732  -0.37028522  -3.40298985 
| 43> H    1.54938237   1.32972684  -0.61095528 
| 44> H    3.77856648   0.19179820  -1.71937857 
| 45> H    3.29884929  -0.66465492  -4.13969509 
| 46> H   -0.81729270  -3.18847142  -0.16237023 
| 47> H   -0.78189574  -2.39256841   2.43848432 
| 48> H    1.72841808  -1.59133399   3.01056274 
| 49> O    1.42903528   2.39511792   0.22108747 
| 50> O    0.53954027   0.94248788   1.65969107 
| 51> C    0.97191123   2.10634005   1.33251440 
| 52> C    0.92642247   3.13733966   2.42265796 
| 53> H    0.88219191   4.13964837   2.00520297 
| 54> H    1.84072774   3.06515428   3.01505557 
| 55> H    0.08810143   2.97372786   3.09588748 
| 56> H    3.23534241  -1.91553897   0.82289372 
| 57> H    1.64989455  -2.88559265  -1.15302479 
| 58> *
| 59> 
| 60>                          ****END OF INPUT****
================================================================================

                       *****************************
                       * Geometry Optimization Run *
                       *****************************

Geometry optimization settings:
Update method            Update   .... BFGS
Choice of coordinates    CoordSys .... Z-matrix Internals
Initial Hessian          InHess   .... Almoef's Model

Convergence Tolerances:
Energy Change            TolE     ....  5.0000e-06 Eh
Max. Gradient            TolMAXG  ....  3.0000e-04 Eh/bohr
RMS Gradient             TolRMSG  ....  1.0000e-04 Eh/bohr
Max. Displacement        TolMAXD  ....  4.0000e-03 bohr
RMS Displacement         TolRMSD  ....  2.0000e-03 bohr
Strict Convergence                ....  False
------------------------------------------------------------------------------
                        ORCA OPTIMIZATION COORDINATE SETUP
------------------------------------------------------------------------------

The optimization will be done in new redundant internal coordinates
Making redundant internal coordinates   ...  (new redundants) done
Evaluating the initial hessian          ...  (Almloef) done
Evaluating the coordinates              ...  done
Calculating the B-matrix                .... done
Calculating the G-matrix                .... done
Diagonalizing the G-matrix              .... done
Imposing constraints:
 Iter   0:  RMS(Cart)=    0.0228739785 RMS(Int)=    0.0067887625
 Iter   1:  RMS(Cart)=    0.0026555073 RMS(Int)=    0.0008775331
 Iter   2:  RMS(Cart)=    0.0003395545 RMS(Int)=    0.0001154951
 Iter   3:  RMS(Cart)=    0.0000444023 RMS(Int)=    0.0000152386
 Iter   4:  RMS(Cart)=    0.0000058437 RMS(Int)=    0.0000020115
 Iter   5:  RMS(Cart)=    0.0000007707 RMS(Int)=    0.0000002655
 Iter   6:  RMS(Cart)=    0.0000001017 RMS(Int)=    0.0000000351
 Iter   7:  RMS(Cart)=    0.0000000134 RMS(Int)=    0.0000000046
CONVERGED
Small eigenvalue found = 1.359e-02
Small eigenvalue found = 2.458e-02
Small eigenvalue found = 2.493e-02
The first mode is                       ....  234
The number of degrees of freedom        ....  111
Storing new coordinates                 .... done

    -----------------------------------------------------------------
                    Redundant Internal Coordinates


    -----------------------------------------------------------------
         Definition                    Initial Value    Approx d2E/dq
    -----------------------------------------------------------------
      1. B(C   1,Ir  0)                  2.1575         0.086697   
      2. B(C   2,C   1)                  1.4415         0.517450   
      3. B(C   2,Ir  0)                  2.1212         0.099090   
      4. B(C   3,Ir  0)                  2.1661         0.084027   
      5. B(C   4,Ir  0)                  2.1618         0.085336   
      6. B(C   4,C   1)                  1.4074         0.587013   
      7. B(C   4,C   3)                  1.4455         0.509622   
      8. B(C   5,C   3)                  1.4075         0.586455   
      9. B(C   5,C   2)                  1.4338         0.532143   
     10. B(C   5,Ir  0)                  2.1672         0.083687   
     11. B(N   6,Ir  0)                  2.0990         0.096134   
     12. B(C   7,N   6)                  1.4729         0.412758   
     13. B(C   8,C   7)                  1.5210         0.386177   
     14. B(H   9,C   8)                  1.0892         0.361200   
     15. B(H  10,C   8)                  1.0910         0.358841   
     16. B(H  11,C   8)                  1.0902         0.359773   
     17. B(C  12,C   7)                  1.5242         0.381674   
     18. B(H  13,C   7)                  1.0911         0.358592   
     19. B(H  14,C  12)                  1.0891         0.361356   
     20. B(H  15,C  12)                  1.0908         0.359027   
     21. B(H  16,C  12)                  1.0890         0.361446   
     22. B(C  17,N   6)                  1.2767         0.840034   
     23. B(C  18,C  17)                  1.4397         0.517073   
     24. B(H  19,C  17)                  1.0864         0.364915   
     25. B(C  20,C  18)                  1.3892         0.627125   
     26. B(C  20,Ir  0)                  2.4286         0.027374 C 
     27. B(C  21,C  20)                  1.4231         0.553813   
     28. B(S  22,C  18)                  1.7069         0.526028   
     29. B(C  23,C  21)                  1.3617         0.693319   
     30. B(C  23,S  22)                  1.7145         0.511237   
     31. B(H  24,C  20)                  1.2385         0.208272   
     32. B(H  25,C  21)                  1.0804         0.373113   
     33. B(H  26,C  23)                  1.0797         0.374142   
     34. B(H  27,C   1)                  1.0805         0.372865   
     35. B(H  28,C   2)                  1.0800         0.373572   
     36. B(H  29,C   5)                  1.0807         0.372656   
     37. B(O  30,H  24)                  1.3429         0.120879 C 
     38. B(O  31,Ir  0)                  2.0407         0.119425   
     39. B(C  32,O  30)                  1.2333         0.985414   
     40. B(C  32,O  31)                  1.2819         0.826158   
     41. B(C  33,C  32)                  1.5011         0.415347   
     42. B(H  34,C  33)                  1.0867         0.364535   
     43. B(H  35,C  33)                  1.0918         0.357683   
     44. B(H  36,C  33)                  1.0876         0.363341   
     45. B(H  37,C   3)                  1.0797         0.374018   
     46. B(H  38,C   4)                  1.0803         0.373235   
     47. A(C   4,Ir  0,N   6)          119.7677         0.250215   
     48. A(C   1,Ir  0,C   2)           39.3652         0.253080   
     49. A(C   5,Ir  0,N   6)          151.1056         0.249505   
     50. A(N   6,Ir  0,O  31)           85.0450         0.261712   
     51. A(C   1,Ir  0,C   3)           64.5237         0.247070   
     52. A(C   4,Ir  0,C   5)           64.4272         0.246360   
     53. A(C   3,Ir  0,N   6)          158.5141         0.249652   
     54. A(C   1,Ir  0,N   6)          100.3229         0.250794   
     55. A(C   3,Ir  0,O  31)          116.2122         0.257737   
     56. A(C   2,Ir  0,C   4)           65.2319         0.252494   
     57. A(C   2,Ir  0,N   6)          113.7292         0.255761   
     58. A(C   1,Ir  0,C   4)           38.0328         0.247623   
     59. A(C   1,Ir  0,O  31)          144.9168         0.258936   
     60. A(C   4,Ir  0,O  31)          155.1871         0.258329   
     61. A(C   5,Ir  0,O  31)           94.1843         0.257583   
     62. A(C   2,Ir  0,C   5)           39.0478         0.251773   
     63. A(C   2,Ir  0,C   3)           65.0672         0.251923   
     64. A(C   3,Ir  0,C   4)           39.0241         0.246504   
     65. A(C   1,Ir  0,C   5)           64.6956         0.246925   
     66. A(C   2,Ir  0,O  31)          106.7238         0.264154   
     67. A(C   3,Ir  0,C   5)           37.9094         0.245810   
     68. A(C   2,C   1,H  27)          125.9357         0.344332   
     69. A(Ir  0,C   1,C   2)           68.9586         0.313978   
     70. A(Ir  0,C   1,H  27)          124.0171         0.269671   
     71. A(C   2,C   1,C   4)          108.2688         0.416156   
     72. A(C   4,C   1,H  27)          125.7638         0.351727   
     73. A(Ir  0,C   1,C   4)           71.1508         0.320493   
     74. A(C   1,C   2,C   5)          107.1747         0.408970   
     75. A(Ir  0,C   2,H  28)          126.5454         0.275298   
     76. A(Ir  0,C   2,C   5)           72.2089         0.322360   
     77. A(Ir  0,C   2,C   1)           71.6762         0.320885   
     78. A(C   1,C   2,H  28)          126.5811         0.344442   
     79. A(C   5,C   2,H  28)          125.9145         0.346066   
     80. A(C   4,C   3,H  37)          125.9886         0.343631   
     81. A(C   4,C   3,C   5)          107.9593         0.414959   
     82. A(Ir  0,C   3,C   4)           70.3293         0.311621   
     83. A(Ir  0,C   3,H  37)          124.7174         0.268522   
     84. A(Ir  0,C   3,C   5)           71.0880         0.318811   
     85. A(C   5,C   3,H  37)          126.0484         0.351854   
     86. A(C   3,C   4,H  38)          125.8484         0.343510   
     87. A(Ir  0,C   4,C   1)           70.8164         0.319665   
     88. A(C   1,C   4,H  38)          126.1717         0.351786   
     89. A(Ir  0,C   4,H  38)          124.4814         0.269065   
     90. A(Ir  0,C   4,C   3)           70.6465         0.312401   
     91. A(C   1,C   4,C   3)          107.9784         0.415030   
     92. A(Ir  0,C   5,H  29)          122.1834         0.268209   
     93. A(C   3,C   5,H  29)          125.8680         0.351637   
     94. A(C   2,C   5,H  29)          125.4460         0.345923   
     95. A(Ir  0,C   5,C   3)           71.0026         0.318600   
     96. A(C   2,C   5,C   3)          108.4964         0.418165   
     97. A(Ir  0,C   5,C   2)           68.7433         0.313605   
     98. A(Ir  0,N   6,C  17)          114.6923         0.342056   
     99. A(C   7,N   6,C  17)          122.3404         0.420579   
    100. A(Ir  0,N   6,C   7)          122.9352         0.304461   
    101. A(N   6,C   7,C   8)          113.5721         0.369404   
    102. A(N   6,C   7,C  12)          109.6250         0.368661   
    103. A(C   8,C   7,C  12)          111.6392         0.366765   
    104. A(N   6,C   7,H  13)          104.8070         0.327485   
    105. A(C   8,C   7,H  13)          108.2840         0.325868   
    106. A(C  12,C   7,H  13)          108.5751         0.325239   
    107. A(C   7,C   8,H  11)          111.9963         0.326044   
    108. A(H   9,C   8,H  11)          107.3763         0.290937   
    109. A(H  10,C   8,H  11)          108.8543         0.290638   
    110. A(C   7,C   8,H   9)          108.9011         0.326256   
    111. A(C   7,C   8,H  10)          112.9379         0.325905   
    112. A(H   9,C   8,H  10)          106.4820         0.290819   
    113. A(C   7,C  12,H  14)          109.7076         0.325650   
    114. A(C   7,C  12,H  15)          111.2746         0.325304   
    115. A(H  14,C  12,H  15)          107.7769         0.290862   
    116. A(C   7,C  12,H  16)          112.0649         0.325664   
    117. A(H  14,C  12,H  16)          107.3326         0.291169   
    118. A(H  15,C  12,H  16)          108.5134         0.290874   
    119. A(N   6,C  17,C  18)          116.3298         0.440823   
    120. A(N   6,C  17,H  19)          122.0822         0.370207   
    121. A(C  18,C  17,H  19)          121.5528         0.343048   
    122. A(C  17,C  18,C  20)          121.0749         0.421033   
    123. A(C  17,C  18,S  22)          125.7448         0.430482   
    124. A(C  20,C  18,S  22)          113.1028         0.445726   
    125. A(C  18,C  20,C  21)          110.3181         0.426232   
    126. A(C  18,C  20,H  24)          119.3481         0.322752   
    127. A(C  21,C  20,H  24)          122.1014         0.316267   
    128. A(C  20,C  21,H  25)          123.9209         0.348326   
    129. A(C  23,C  21,H  25)          122.8728         0.361854   
    130. A(C  20,C  21,C  23)          113.1036         0.433978   
    131. A(C  18,S  22,C  23)           91.0091         0.453517   
    132. A(C  21,C  23,H  26)          127.8707         0.362024   
    133. A(S  22,C  23,H  26)          119.6687         0.361722   
    134. A(C  21,C  23,S  22)          112.4405         0.451573   
    135. A(C  20,H  24,O  30)          174.5513         0.226656   
    136. A(H  24,O  30,C  32)          113.2165         0.313398   
    137. A(Ir  0,O  31,C  32)          126.2145         0.353792   
    138. A(O  30,C  32,O  31)          124.0916         0.491243   
    139. A(O  30,C  32,C  33)          120.4181         0.436121   
    140. A(O  31,C  32,C  33)          115.4697         0.422544   
    141. A(C  32,C  33,H  34)          110.8390         0.330701   
    142. A(C  32,C  33,H  35)          108.8588         0.329665   
    143. A(H  34,C  33,H  35)          107.6680         0.291091   
    144. A(C  32,C  33,H  36)          111.6895         0.330522   
    145. A(H  34,C  33,H  36)          110.1935         0.291810   
    146. A(H  35,C  33,H  36)          107.4384         0.290941   
    147. D(H  27,C   1,Ir  0,C   5)    158.8452         0.001707   
    148. D(C   2,C   1,Ir  0,C   5)     38.9125         0.001707   
    149. D(C   4,C   1,Ir  0,C   5)    -80.1808         0.001707   
    150. D(C   2,C   1,Ir  0,O  31)    -18.8984         0.001707   
    151. D(H  27,C   1,Ir  0,C   2)    119.9327         0.001707   
    152. D(C   2,C   1,Ir  0,C   4)    119.0932         0.001707   
    153. D(C   2,C   1,Ir  0,N   6)   -115.0166         0.001707   
    154. D(C   4,C   1,Ir  0,O  31)   -137.9917         0.001707   
    155. D(C   4,C   1,Ir  0,C   3)    -38.0360         0.001707   
    156. D(H  27,C   1,Ir  0,C   3)   -159.0100         0.001707   
    157. D(C   2,C   1,Ir  0,C   3)     81.0572         0.001707   
    158. D(H  27,C   1,Ir  0,O  31)    101.0343         0.001707   
    159. D(C   4,C   1,Ir  0,C   2)   -119.0932         0.001707   
    160. D(H  27,C   1,Ir  0,N   6)      4.9161         0.001707   
    161. D(C   4,C   1,Ir  0,N   6)    125.8902         0.001707   
    162. D(H  27,C   1,Ir  0,C   4)   -120.9740         0.001707   
    163. D(C   5,C   2,Ir  0,N   6)   -167.4768         0.001769   
    164. D(C   5,C   2,C   1,H  27)    178.5739         0.021242   
    165. D(H  28,C   2,Ir  0,C   4)   -158.7740         0.001769   
    166. D(C   5,C   2,Ir  0,C   3)     36.0957         0.001769   
    167. D(C   5,C   2,Ir  0,O  31)    -75.5535         0.001769   
    168. D(C   5,C   2,Ir  0,C   1)    115.6552         0.001769   
    169. D(H  28,C   2,Ir  0,N   6)    -45.5416         0.001769   
    170. D(C   1,C   2,Ir  0,C   3)    -79.5595         0.001769   
    171. D(C   5,C   2,Ir  0,C   4)     79.2908         0.001769   
    172. D(H  28,C   2,C   1,H  27)      4.8859         0.021242   
    173. D(C   5,C   2,C   1,C   4)     -3.3851         0.021242   
    174. D(Ir  0,C   2,C   1,C   4)     60.5590         0.021242   
    175. D(H  28,C   2,Ir  0,C   1)   -122.4095         0.001769   
    176. D(H  28,C   2,C   1,C   4)   -177.0731         0.021242   
    177. D(C   1,C   2,Ir  0,O  31)    168.7913         0.001769   
    178. D(H  28,C   2,Ir  0,C   5)    121.9352         0.001769   
    179. D(H  28,C   2,C   1,Ir  0)    122.3679         0.021242   
    180. D(Ir  0,C   2,C   1,H  27)   -117.4819         0.021242   
    181. D(C   1,C   2,Ir  0,N   6)     76.8679         0.001769   
    182. D(H  28,C   2,Ir  0,C   3)    158.0310         0.001769   
    183. D(H  28,C   2,Ir  0,O  31)     46.3818         0.001769   
    184. D(C   1,C   2,Ir  0,C   5)   -115.6552         0.001769   
    185. D(C   1,C   2,Ir  0,C   4)    -36.3644         0.001769   
    186. D(C   5,C   2,C   1,Ir  0)    -63.9442         0.021242   
    187. D(C   5,C   3,Ir  0,C   4)   -117.9441         0.001694   
    188. D(C   4,C   3,Ir  0,C   5)    117.9441         0.001694   
    189. D(C   4,C   3,Ir  0,O  31)    177.9548         0.001694   
    190. D(C   4,C   3,Ir  0,N   6)    -10.9684         0.001694   
    191. D(C   4,C   3,Ir  0,C   1)     37.0787         0.001694   
    192. D(C   5,C   3,Ir  0,O  31)     60.0107         0.001694   
    193. D(H  37,C   3,Ir  0,C   4)    120.7647         0.001694   
    194. D(C   4,C   3,Ir  0,C   2)     80.7836         0.001694   
    195. D(H  37,C   3,Ir  0,C   1)    157.8434         0.001694   
    196. D(C   5,C   3,Ir  0,C   1)    -80.8654         0.001694   
    197. D(C   5,C   3,Ir  0,N   6)   -128.9125         0.001694   
    198. D(H  37,C   3,Ir  0,C   2)   -158.4516         0.001694   
    199. D(H  37,C   3,Ir  0,O  31)    -61.2805         0.001694   
    200. D(C   5,C   3,Ir  0,C   2)    -37.1605         0.001694   
    201. D(H  37,C   3,Ir  0,C   5)   -121.2912         0.001694   
    202. D(H  37,C   3,Ir  0,N   6)    109.7964         0.001694   
    203. D(C   1,C   4,Ir  0,C   3)    117.9423         0.001700   
    204. D(H  38,C   4,C   3,H  37)     -0.0909         0.020585   
    205. D(C   1,C   4,Ir  0,C   5)     80.9489         0.001700   
    206. D(C   1,C   4,Ir  0,N   6)    -66.6626         0.001700   
    207. D(C   1,C   4,Ir  0,O  31)    113.5665         0.001700   
    208. D(C   1,C   4,Ir  0,C   2)     37.6173         0.001700   
    209. D(C   3,C   4,Ir  0,C   1)   -117.9423         0.001700   
    210. D(H  38,C   4,C   3,C   5)   -179.4246         0.020585   
    211. D(C   3,C   4,Ir  0,C   5)    -36.9934         0.001700   
    212. D(C   3,C   4,Ir  0,N   6)    175.3952         0.001700   
    213. D(C   3,C   4,Ir  0,O  31)     -4.3758         0.001700   
    214. D(Ir  0,C   4,C   1,C   2)    -59.1881         0.027657   
    215. D(H  38,C   4,Ir  0,C   2)    158.8925         0.001700   
    216. D(H  38,C   4,Ir  0,C   3)   -120.7825         0.001700   
    217. D(H  38,C   4,C   1,C   2)   -178.4089         0.027657   
    218. D(H  38,C   4,Ir  0,N   6)     54.6126         0.001700   
    219. D(H  38,C   4,Ir  0,O  31)   -125.1583         0.001700   
    220. D(Ir  0,C   4,C   1,H  27)    118.8571         0.027657   
    221. D(C   3,C   4,C   1,Ir  0)     61.1976         0.027657   
    222. D(C   3,C   4,C   1,H  27)   -179.9453         0.027657   
    223. D(H  38,C   4,C   1,Ir  0)   -119.2208         0.027657   
    224. D(H  38,C   4,Ir  0,C   5)   -157.7759         0.001700   
    225. D(H  38,C   4,C   1,H  27)     -0.3637         0.027657   
    226. D(Ir  0,C   4,C   3,C   5)     61.4646         0.020585   
    227. D(Ir  0,C   4,C   3,H  37)   -119.2017         0.020585   
    228. D(C   3,C   4,C   1,C   2)      2.0095         0.027657   
    229. D(C   1,C   4,C   3,C   5)      0.1588         0.020585   
    230. D(C   1,C   4,C   3,H  37)    179.4925         0.020585   
    231. D(H  38,C   4,C   3,Ir  0)    119.1108         0.020585   
    232. D(H  38,C   4,Ir  0,C   1)    121.2752         0.001700   
    233. D(C   1,C   4,C   3,Ir  0)    -61.3058         0.020585   
    234. D(C   3,C   4,Ir  0,C   2)    -80.3250         0.001700   
    235. D(C   2,C   5,Ir  0,C   1)    -39.2283         0.001693   
    236. D(H  29,C   5,C   3,C   4)   -177.4818         0.027602   
    237. D(C   2,C   5,Ir  0,C   4)    -81.5287         0.001693   
    238. D(C   2,C   5,Ir  0,N   6)     24.2558         0.001693   
    239. D(C   2,C   5,Ir  0,O  31)    111.5808         0.001693   
    240. D(C   3,C   5,Ir  0,C   1)     80.3717         0.001693   
    241. D(C   3,C   5,Ir  0,C   2)    119.6000         0.001693   
    242. D(C   3,C   5,Ir  0,C   4)     38.0713         0.001693   
    243. D(H  29,C   5,C   2,C   1)    178.7175         0.022511   
    244. D(C   3,C   5,Ir  0,O  31)   -128.8192         0.001693   
    245. D(H  29,C   5,Ir  0,C   1)   -158.5969         0.001693   
    246. D(C   3,C   5,C   2,Ir  0)    -60.1025         0.022511   
    247. D(H  29,C   5,Ir  0,C   3)    121.0314         0.001693   
    248. D(H  29,C   5,Ir  0,C   4)    159.1027         0.001693   
    249. D(H  29,C   5,Ir  0,N   6)    -95.1127         0.001693   
    250. D(H  29,C   5,Ir  0,O  31)     -7.7878         0.001693   
    251. D(Ir  0,C   5,C   2,C   1)     63.5917         0.022511   
    252. D(H  29,C   5,Ir  0,C   2)   -119.3686         0.001693   
    253. D(Ir  0,C   5,C   2,H  28)   -122.6665         0.022511   
    254. D(C   3,C   5,C   2,C   1)      3.4892         0.022511   
    255. D(C   3,C   5,C   2,H  28)    177.2310         0.022511   
    256. D(C   3,C   5,Ir  0,N   6)    143.8558         0.001693   
    257. D(H  29,C   5,C   2,Ir  0)    115.1258         0.022511   
    258. D(H  29,C   5,C   2,H  28)     -7.5407         0.022511   
    259. D(Ir  0,C   5,C   3,C   4)    -60.9811         0.027602   
    260. D(Ir  0,C   5,C   3,H  37)    119.6857         0.027602   
    261. D(C   2,C   5,C   3,Ir  0)     58.7022         0.027602   
    262. D(C   2,C   5,C   3,C   4)     -2.2789         0.027602   
    263. D(C   2,C   5,C   3,H  37)    178.3879         0.027602   
    264. D(C   2,C   5,Ir  0,C   3)   -119.6000         0.001693   
    265. D(H  29,C   5,C   3,Ir  0)   -116.5007         0.027602   
    266. D(H  29,C   5,C   3,H  37)      3.1850         0.027602   
    267. D(C  17,N   6,Ir  0,C   1)    -94.8756         0.001774   
    268. D(C   7,N   6,Ir  0,C   2)     44.2154         0.001774   
    269. D(C   7,N   6,Ir  0,C   3)    126.1396         0.001774   
    270. D(C   7,N   6,Ir  0,C   4)    118.2067         0.001774   
    271. D(C   7,N   6,Ir  0,C   5)     27.7940         0.001774   
    272. D(C   7,N   6,Ir  0,C   1)     83.1061         0.001774   
    273. D(C   7,N   6,Ir  0,O  31)    -61.8898         0.001774   
    274. D(C  17,N   6,Ir  0,C   2)   -133.7662         0.001774   
    275. D(C  17,N   6,Ir  0,C   3)    -51.8421         0.001774   
    276. D(C  17,N   6,Ir  0,C   4)    -59.7749         0.001774   
    277. D(C  17,N   6,Ir  0,C   5)   -150.1876         0.001774   
    278. D(C  17,N   6,Ir  0,O  31)    120.1286         0.001774   
    279. D(C   8,C   7,N   6,Ir  0)    154.6557         0.014532   
    280. D(C   8,C   7,N   6,C  17)    -27.5149         0.014532   
    281. D(C  12,C   7,N   6,Ir  0)    -79.7022         0.014532   
    282. D(C  12,C   7,N   6,C  17)     98.1272         0.014532   
    283. D(H  13,C   7,N   6,Ir  0)     36.6615         0.014532   
    284. D(H  13,C   7,N   6,C  17)   -145.5091         0.014532   
    285. D(H   9,C   8,C   7,N   6)   -169.7741         0.011867   
    286. D(H   9,C   8,C   7,C  12)     65.6627         0.011867   
    287. D(H   9,C   8,C   7,H  13)    -53.8095         0.011867   
    288. D(H  10,C   8,C   7,N   6)     72.1569         0.011867   
    289. D(H  10,C   8,C   7,C  12)    -52.4063         0.011867   
    290. D(H  10,C   8,C   7,H  13)   -171.8785         0.011867   
    291. D(H  11,C   8,C   7,N   6)    -51.1697         0.011867   
    292. D(H  11,C   8,C   7,C  12)   -175.7328         0.011867   
    293. D(H  11,C   8,C   7,H  13)     64.7950         0.011867   
    294. D(H  14,C  12,C   7,N   6)    176.4461         0.011605   
    295. D(H  14,C  12,C   7,C   8)    -56.8117         0.011605   
    296. D(H  14,C  12,C   7,H  13)     62.4883         0.011605   
    297. D(H  15,C  12,C   7,N   6)    -64.3775         0.011605   
    298. D(H  15,C  12,C   7,C   8)     62.3647         0.011605   
    299. D(H  15,C  12,C   7,H  13)   -178.3354         0.011605   
    300. D(H  16,C  12,C   7,N   6)     57.3249         0.011605   
    301. D(H  16,C  12,C   7,C   8)   -175.9329         0.011605   
    302. D(H  16,C  12,C   7,H  13)    -56.6329         0.011605   
    303. D(C  18,C  17,N   6,Ir  0)     -8.7594         0.060908   
    304. D(C  18,C  17,N   6,C   7)    173.2456         0.060908   
    305. D(H  19,C  17,N   6,Ir  0)    173.3669         0.060908   
    306. D(H  19,C  17,N   6,C   7)     -4.6281         0.060908   
    307. D(C  20,C  18,C  17,N   6)    -31.1269         0.018230   
    308. D(C  20,C  18,C  17,H  19)    146.7589         0.018230   
    309. D(S  22,C  18,C  17,N   6)    145.4460         0.018230   
    310. D(S  22,C  18,C  17,H  19)    -36.6681         0.018230   
    311. D(C  21,C  20,C  18,C  17)    175.2184         0.029618   
    312. D(C  21,C  20,C  18,S  22)     -1.7580         0.029618   
    313. D(H  24,C  20,C  18,C  17)    -35.6542         0.029618   
    314. D(H  24,C  20,C  18,S  22)    147.3694         0.029618   
    315. D(C  23,C  21,C  20,C  18)      1.3712         0.022782   
    316. D(C  23,C  21,C  20,H  24)   -146.7583         0.022782   
    317. D(H  25,C  21,C  20,C  18)    177.7735         0.022782   
    318. D(H  25,C  21,C  20,H  24)     29.6439         0.022782   
    319. D(C  23,S  22,C  18,C  17)   -175.4822         0.005622   
    320. D(C  23,S  22,C  18,C  20)      1.3269         0.005622   
    321. D(S  22,C  23,C  21,C  20)     -0.4011         0.033801   
    322. D(S  22,C  23,C  21,H  25)   -176.8465         0.033801   
    323. D(H  26,C  23,C  21,C  20)    177.9413         0.033801   
    324. D(H  26,C  23,C  21,H  25)      1.4959         0.033801   
    325. D(C  21,C  23,S  22,C  18)     -0.5146         0.005383   
    326. D(H  26,C  23,S  22,C  18)   -179.0087         0.005383   
    327. D(O  30,H  24,C  20,C  18)    -32.9812         0.033697   
    328. D(O  30,H  24,C  20,C  21)    112.4042         0.033697   
    329. D(C  32,O  30,H  24,C  20)    123.8840         0.010441   
    330. D(C  32,O  31,Ir  0,C   1)   -177.6494         0.001899   
    331. D(C  32,O  31,Ir  0,C   2)    169.9642         0.001899   
    332. D(C  32,O  31,Ir  0,C   3)    100.0056         0.001899   
    333. D(C  32,O  31,Ir  0,C   4)    103.0751         0.001899   
    334. D(C  32,O  31,Ir  0,C   5)    132.2532         0.001899   
    335. D(C  32,O  31,Ir  0,N   6)    -76.7253         0.001899   
    336. D(O  31,C  32,O  30,H  24)     -5.5559         0.079189   
    337. D(C  33,C  32,O  30,H  24)    172.7201         0.079189   
    338. D(O  30,C  32,O  31,Ir  0)      3.3355         0.053018   
    339. D(C  33,C  32,O  31,Ir  0)   -175.0178         0.053018   
    340. D(H  34,C  33,C  32,O  30)     26.1323         0.012765   
    341. D(H  34,C  33,C  32,O  31)   -155.4491         0.012765   
    342. D(H  35,C  33,C  32,O  30)    -92.1089         0.012765   
    343. D(H  35,C  33,C  32,O  31)     86.3098         0.012765   
    344. D(H  36,C  33,C  32,O  30)    149.4233         0.012765   
    345. D(H  36,C  33,C  32,O  31)    -32.1581         0.012765   
    -----------------------------------------------------------------

Number of atoms                         .... 39
Number of degrees of freedom            .... 345

         *************************************************************
         *                GEOMETRY OPTIMIZATION CYCLE   1            *
         *************************************************************
---------------------------------
CARTESIAN COORDINATES (ANGSTROEM)
---------------------------------
  Ir     0.587864   -0.726041    0.482032
  C      0.047738   -2.811245    0.359995
  C      0.059367   -2.358861    1.728613
  C      2.190441   -2.128350    0.878408
  C      1.340529   -2.644591   -0.170753
  C      1.408891   -1.988342    2.040607
  N     -1.045687    0.144203   -0.507934
  C     -2.325543    0.434014    0.160856
  C     -3.113296    1.558123   -0.494266
  H     -3.944395    1.831226    0.154569
  H     -3.549817    1.269611   -1.451551
  H     -2.505940    2.451878   -0.639059
  C     -3.149885   -0.843802    0.264408
  H     -2.048596    0.751509    1.167381
  H     -4.068622   -0.644605    0.814215
  H     -3.426629   -1.217331   -0.722387
  H     -2.618158   -1.631722    0.795768
  C     -0.858627    0.367742   -1.750963
  C      0.482610    0.179089   -2.238910
  H     -1.656448    0.715639   -2.401144
  C      1.582001    0.408492   -1.421251
  C      2.782648    0.048208   -2.094961
  S      0.908177   -0.406368   -3.784774
  C      2.570201   -0.397067   -3.364091
  H      1.542128    1.330177   -0.594919
  H      3.770072    0.169653   -1.673710
  H      3.307442   -0.700784   -4.092053
  H     -0.812768   -3.182308   -0.177944
  H     -0.764830   -2.395416    2.425626
  H      1.746511   -1.589174    2.986413
  O      1.426150    2.393046    0.217561
  O      0.542363    0.945062    1.652399
  C      0.970893    2.108810    1.327945
  C      0.925064    3.140505    2.417416
  H      0.879486    4.142482    1.999308
  H      1.839854    3.069690    3.009234
  H      0.087380    2.976465    3.091335
  H      3.242230   -1.901482    0.788895
  H      1.648571   -2.868943   -1.181575

----------------------------
CARTESIAN COORDINATES (A.U.)
----------------------------
  NO LB      ZA    FRAG     MASS         X           Y           Z
   0 Ir   17.0000*   0   192.220    1.110902   -1.372018    0.910908
   1 C     6.0000    0    12.011    0.090212   -5.312484    0.680292
   2 C     6.0000    0    12.011    0.112187   -4.457601    3.266606
   3 C     6.0000    0    12.011    4.139334   -4.021999    1.659951
   4 C     6.0000    0    12.011    2.533233   -4.997553   -0.322676
   5 C     6.0000    0    12.011    2.662419   -3.757421    3.856189
   6 N     7.0000    0    14.007   -1.976062    0.272504   -0.959856
   7 C     6.0000    0    12.011   -4.394639    0.820168    0.303973
   8 C     6.0000    0    12.011   -5.883276    2.944426   -0.934028
   9 H     1.0000    0     1.008   -7.453827    3.460516    0.292093
  10 H     1.0000    0     1.008   -6.708183    2.399218   -2.743033
  11 H     1.0000    0     1.008   -4.735539    4.633377   -1.207647
  12 C     6.0000    0    12.011   -5.952420   -1.594554    0.499659
  13 H     1.0000    0     1.008   -3.871285    1.420147    2.206030
  14 H     1.0000    0     1.008   -7.688581   -1.218127    1.538643
  15 H     1.0000    0     1.008   -6.475391   -2.300422   -1.365114
  16 H     1.0000    0     1.008   -4.947602   -3.083507    1.503784
  17 C     6.0000    0    12.011   -1.622570    0.694932   -3.308841
  18 C     6.0000    0    12.011    0.912000    0.338428   -4.230927
  19 H     1.0000    0     1.008   -3.130233    1.352361   -4.537505
  20 C     6.0000    0    12.011    2.989548    0.771937   -2.685776
  21 C     6.0000    0    12.011    5.258443    0.091099   -3.958902
  22 S    16.0000    0    32.060    1.716207   -0.767925   -7.152187
  23 C     6.0000    0    12.011    4.856976   -0.750348   -6.357210
  24 H     1.0000    0     1.008    2.914199    2.513670   -1.124234
  25 H     1.0000    0     1.008    7.124403    0.320597   -3.162854
  26 H     1.0000    0     1.008    6.250160   -1.324291   -7.732859
  27 H     1.0000    0     1.008   -1.535909   -6.013690   -0.336265
  28 H     1.0000    0     1.008   -1.445319   -4.526681    4.583769
  29 H     1.0000    0     1.008    3.300427   -3.003103    5.643504
  30 O     8.0000    0    15.999    2.695032    4.522201    0.411130
  31 O     8.0000    0    15.999    1.024917    1.785909    3.122582
  32 C     6.0000    0    12.011    1.834721    3.985072    2.509452
  33 C     6.0000    0    12.011    1.748118    5.934694    4.568255
  34 H     1.0000    0     1.008    1.661988    7.828156    3.778145
  35 H     1.0000    0     1.008    3.476819    5.800874    5.686628
  36 H     1.0000    0     1.008    0.165124    5.624705    5.841776
  37 H     1.0000    0     1.008    6.126927   -3.593280    1.490796
  38 H     1.0000    0     1.008    3.115347   -5.421517   -2.232854
* core charge reduced due to ECP

--------------------------------
INTERNAL COORDINATES (ANGSTROEM)
--------------------------------
 Ir     0   0   0     0.000000000000     0.00000000     0.00000000
 C      1   0   0     2.157616050174     0.00000000     0.00000000
 C      2   1   0     1.441315327754    68.95954200     0.00000000
 C      1   2   3     2.166132185479    64.50947531    81.05377085
 C      2   1   3     1.406980273815    71.15652118   240.90844196
 C      4   1   2     1.407239130068    71.09233842   279.13409132
 N      1   2   3     2.099492398224   100.34211344   244.95312785
 C      7   1   2     1.472849059288   122.66077225    83.02902524
 C      8   7   1     1.520968343293   113.57211297   154.62505308
 H      9   8   7     1.089169827800   108.90111937   190.22590039
 H      9   8   7     1.090953032483   112.93773620    72.15687987
 H      9   8   7     1.090247181557   111.99632745   308.83019311
 C      8   7   1     1.524161633426   109.62483911   280.26720387
 H      8   7   1     1.091142175226   104.80706064    36.63108180
 H     13   8   7     1.089052309564   109.70739887   176.44613402
 H     13   8   7     1.090812637814   111.27483414   295.62256112
 H     13   8   7     1.088984277159   112.06499796    57.32495258
 C      7   1   2     1.279421260802   115.22548920   265.00440112
 C     18   7   1     1.441513399274   116.90344052   350.98142929
 H     18   7   1     1.086384508873   121.79266832   173.35937819
 C     19  18   7     1.388987358869   121.05981879   329.06373904
 C     21  19  18     1.422828256200   110.37922801   175.26966440
 S     19  18   7     1.706839423693   125.79867661   145.70545405
 C     22  21  19     1.361672664391   113.06509576     1.39106519
 H     21  19  18     1.239044802700   119.19671195   324.65749589
 H     22  21  19     1.080336911015   123.93657526   177.81428425
 H     24  22  21     1.079586891266   127.86848390   177.94624160
 H      2   1   3     1.080517712524   124.01466170   119.93645368
 H      3   2   1     1.080001864332   126.58054625   122.36611432
 H      6   4   1     1.080670271355   125.86687100   243.50212489
 O     25  21  19     1.357142849240   174.56663573   326.74153581
 O      1   2   3     2.040437834251   144.96485281   341.10823932
 C     31  25  21     1.235971227828   113.62108583   123.37408090
 C     33  31  25     1.501147029613   120.24962948   172.80003725
 H     34  33  31     1.086668192806   110.83901418    26.08217002
 H     34  33  31     1.091833221774   108.85874567   267.84103310
 H     34  33  31     1.087561020727   111.68953082   149.37317005
 H      4   1   2     1.079677249438   124.71280033   157.84423308
 H      5   2   1     1.080247691439   126.16185114   240.77854872

---------------------------
INTERNAL COORDINATES (A.U.)
---------------------------
 Ir     0   0   0     0.000000000000     0.00000000     0.00000000
 C      1   0   0     4.077303436982     0.00000000     0.00000000
 C      2   1   0     2.723691242078    68.95954200     0.00000000
 C      1   2   3     4.093396600428    64.50947531    81.05377085
 C      2   1   3     2.658807393339    71.15652118   240.90844196
 C      4   1   2     2.659296560766    71.09233842   279.13409132
 N      1   2   3     3.967465652892   100.34211344   244.95312785
 C      7   1   2     2.783281358658   122.66077225    83.02902524
 C      8   7   1     2.874213627188   113.57211297   154.62505308
 H      9   8   7     2.058232687872   108.90111937   190.22590039
 H      9   8   7     2.061602456363   112.93773620    72.15687987
 H      9   8   7     2.060268591422   111.99632745   308.83019311
 C      8   7   1     2.880248071006   109.62483911   280.26720387
 H      8   7   1     2.061959884348   104.80706064    36.63108180
 H     13   8   7     2.058010610591   109.70739887   176.44613402
 H     13   8   7     2.061337148889   111.27483414   295.62256112
 H     13   8   7     2.057882047976   112.06499796    57.32495258
 C      7   1   2     2.417755792831   115.22548920   265.00440112
 C     18   7   1     2.724065543007   116.90344052   350.98142929
 H     18   7   1     2.052969197904   121.79266832   173.35937819
 C     19  18   7     2.624805711741   121.05981879   329.06373904
 C     21  19  18     2.688755739822   110.37922801   175.26966440
 S     19  18   7     3.225459065360   125.79867661   145.70545405
 C     22  21  19     2.573188419745   113.06509576     1.39106519
 H     21  19  18     2.341455344762   119.19671195   324.65749589
 H     22  21  19     2.041540894185   123.93657526   177.81428425
 H     24  22  21     2.040123562264   127.86848390   177.94624160
 H      2   1   3     2.041882559521   124.01466170   119.93645368
 H      3   2   1     2.040907747713   126.58054625   122.36611432
 H      6   4   1     2.042170853931   125.86687100   243.50212489
 O     25  21  19     2.564628309673   174.56663573   326.74153581
 O      1   2   3     3.855868700026   144.96485281   341.10823932
 C     31  25  21     2.335647130002   113.62108583   123.37408090
 C     33  31  25     2.836756772718   120.24962948   172.80003725
 H     34  33  31     2.053505282846   110.83901418    26.08217002
 H     34  33  31     2.063265773070   108.85874567   267.84103310
 H     34  33  31     2.055192483102   111.68953082   149.37317005
 H      4   1   2     2.040294314464   124.71280033   157.84423308
 H      5   2   1     2.041372293621   126.16185114   240.77854872

---------------------
BASIS SET INFORMATION
---------------------
There are 6 groups of distinct atoms

 Group   1 Type Ir  : 7s6p5d1f contracted to 6s3p2d1f pattern {211111/411/41/1}
 Group   2 Type C   : 8s4p1d contracted to 4s2p1d pattern {5111/31/1}
 Group   3 Type N   : 8s4p1d contracted to 4s2p1d pattern {5111/31/1}
 Group   4 Type H   : 4s contracted to 2s pattern {31}
 Group   5 Type S   : 10s7p1d contracted to 4s3p1d pattern {5311/511/1}
 Group   6 Type O   : 8s4p1d contracted to 4s2p1d pattern {5111/31/1}

Atom   0Ir   basis set group =>   1
Atom   1C    basis set group =>   2
Atom   2C    basis set group =>   2
Atom   3C    basis set group =>   2
Atom   4C    basis set group =>   2
Atom   5C    basis set group =>   2
Atom   6N    basis set group =>   3
Atom   7C    basis set group =>   2
Atom   8C    basis set group =>   2
Atom   9H    basis set group =>   4
Atom  10H    basis set group =>   4
Atom  11H    basis set group =>   4
Atom  12C    basis set group =>   2
Atom  13H    basis set group =>   4
Atom  14H    basis set group =>   4
Atom  15H    basis set group =>   4
Atom  16H    basis set group =>   4
Atom  17C    basis set group =>   2
Atom  18C    basis set group =>   2
Atom  19H    basis set group =>   4
Atom  20C    basis set group =>   2
Atom  21C    basis set group =>   2
Atom  22S    basis set group =>   5
Atom  23C    basis set group =>   2
Atom  24H    basis set group =>   4
Atom  25H    basis set group =>   4
Atom  26H    basis set group =>   4
Atom  27H    basis set group =>   4
Atom  28H    basis set group =>   4
Atom  29H    basis set group =>   4
Atom  30O    basis set group =>   6
Atom  31O    basis set group =>   6
Atom  32C    basis set group =>   2
Atom  33C    basis set group =>   2
Atom  34H    basis set group =>   4
Atom  35H    basis set group =>   4
Atom  36H    basis set group =>   4
Atom  37H    basis set group =>   4
Atom  38H    basis set group =>   4
---------------------------------
AUXILIARY/J BASIS SET INFORMATION
---------------------------------
There are 6 groups of distinct atoms

 Group   1 Type Ir  : 11s5p5d3f3g contracted to 8s5p5d2f3g pattern {41111111/11111/11111/21/111}
 Group   2 Type C   : 12s5p4d2f1g contracted to 6s4p3d1f1g pattern {711111/2111/211/2/1}
 Group   3 Type N   : 12s5p4d2f1g contracted to 6s4p3d1f1g pattern {711111/2111/211/2/1}
 Group   4 Type H   : 5s2p1d contracted to 3s1p1d pattern {311/2/1}
 Group   5 Type S   : 14s5p5d2f1g contracted to 8s4p3d1f1g pattern {71111111/2111/311/2/1}
 Group   6 Type O   : 12s5p4d2f1g contracted to 6s4p3d1f1g pattern {711111/2111/211/2/1}

Atom   0Ir   basis set group =>   1
Atom   1C    basis set group =>   2
Atom   2C    basis set group =>   2
Atom   3C    basis set group =>   2
Atom   4C    basis set group =>   2
Atom   5C    basis set group =>   2
Atom   6N    basis set group =>   3
Atom   7C    basis set group =>   2
Atom   8C    basis set group =>   2
Atom   9H    basis set group =>   4
Atom  10H    basis set group =>   4
Atom  11H    basis set group =>   4
Atom  12C    basis set group =>   2
Atom  13H    basis set group =>   4
Atom  14H    basis set group =>   4
Atom  15H    basis set group =>   4
Atom  16H    basis set group =>   4
Atom  17C    basis set group =>   2
Atom  18C    basis set group =>   2
Atom  19H    basis set group =>   4
Atom  20C    basis set group =>   2
Atom  21C    basis set group =>   2
Atom  22S    basis set group =>   5
Atom  23C    basis set group =>   2
Atom  24H    basis set group =>   4
Atom  25H    basis set group =>   4
Atom  26H    basis set group =>   4
Atom  27H    basis set group =>   4
Atom  28H    basis set group =>   4
Atom  29H    basis set group =>   4
Atom  30O    basis set group =>   6
Atom  31O    basis set group =>   6
Atom  32C    basis set group =>   2
Atom  33C    basis set group =>   2
Atom  34H    basis set group =>   4
Atom  35H    basis set group =>   4
Atom  36H    basis set group =>   4
Atom  37H    basis set group =>   4
Atom  38H    basis set group =>   4
-------------------------
ECP PARAMETER INFORMATION
-------------------------

 Group 1, Type Ir ECP Def2-ECP (replacing 60 core electrons, lmax=3)

Atom   0Ir   ECP group =>   1

------------------------------------------------------------------------------
                           ORCA GTO INTEGRAL CALCULATION
                           -- RI-GTO INTEGRALS CHOSEN --
------------------------------------------------------------------------------
------------------------------------------------------------------------------
                   ___                                                        
                  /   \      - P O W E R E D   B Y -                         
                 /     \                                                     
                 |  |  |   _    _      __       _____    __    __             
                 |  |  |  | |  | |    /  \     |  _  \  |  |  /  |          
                  \  \/   | |  | |   /    \    | | | |  |  | /  /          
                 / \  \   | |__| |  /  /\  \   | |_| |  |  |/  /          
                |  |  |   |  __  | /  /__\  \  |    /   |      \           
                |  |  |   | |  | | |   __   |  |    \   |  |\   \          
                \     /   | |  | | |  |  |  |  | |\  \  |  | \   \       
                 \___/    |_|  |_| |__|  |__|  |_| \__\ |__|  \__/        
                                                                              
                      - O R C A' S   B I G   F R I E N D -                    
                                      &                                       
                       - I N T E G R A L  F E E D E R -                       
                                                                              
 v1 FN, 2020, v2 2021                                                         
------------------------------------------------------------------------------


Reading SHARK input file reaction4-IEIP_ts_guess_scan_4-11_orca.SHARKINP.tmp ... ok
----------------------
SHARK INTEGRAL PACKAGE
----------------------

Number of atoms                             ...     39
Number of basis functions                   ...    358
Number of shells                            ...    184
Maximum angular momentum                    ...      3
Integral batch strategy                     ... SHARK/LIBINT Hybrid
RI-J (if used) integral strategy            ... SPLIT-RIJ (Revised 2003 algorithm where possible)
Printlevel                                  ...      1
Contraction scheme used                     ... SEGMENTED contraction
Coulomb Range Separation                    ... NOT USED
Exchange Range Separation                   ... NOT USED
Finite Nucleus Model                        ... NOT USED
Auxiliary Coulomb fitting basis             ... AVAILABLE
   # of basis functions in Aux-J            ...   1231
   # of shells in Aux-J                     ...    405
   Maximum angular momentum in Aux-J        ...      4
Auxiliary J/K fitting basis                 ... NOT available
Auxiliary Correlation fitting basis         ... NOT available
Auxiliary 'external' fitting basis          ... NOT available
Integral threshold                          ...     2.500000e-11
Primitive cut-off                           ...     2.500000e-12
Primitive pair pre-selection threshold      ...     2.500000e-12

Calculating pre-screening integrals         ... done (  0.1 sec) Dimension = 184
Organizing shell pair data                  ... done (  0.1 sec)
Shell pair information
Total number of shell pairs                 ...     17020
Shell pairs after pre-screening             ...     12960
Total number of primitive shell pairs       ...     60705
Primitive shell pairs kept                  ...     29131
          la=0 lb=0:   4967 shell pairs
          la=1 lb=0:   4250 shell pairs
          la=1 lb=1:    855 shell pairs
          la=2 lb=0:   1746 shell pairs
          la=2 lb=1:    787 shell pairs
          la=2 lb=2:    179 shell pairs
          la=3 lb=0:    112 shell pairs
          la=3 lb=1:     42 shell pairs
          la=3 lb=2:     21 shell pairs
          la=3 lb=3:      1 shell pairs

Calculating one electron integrals          ... done (  0.1 sec)
Calculating ECP integrals                   ... done (  0.8 sec)
Calculating RI/J V-Matrix + Cholesky decomp.... done (  0.1 sec)
Calculating Nuclear repulsion               ... done (  0.0 sec) ENN=   2034.792691761086 Eh

SHARK setup successfully completed in   1.3 seconds

Maximum memory used throughout the entire GTOINT-calculation: 90.6 MB
-------------------------------------------------------------------------------
                                 ORCA SCF
-------------------------------------------------------------------------------

------------
SCF SETTINGS
------------
Hamiltonian:
 Density Functional     Method          .... DFT(GTOs)
 Exchange Functional    Exchange        .... PBE
   PBE kappa parameter   XKappa         ....  1.024500
   PBE mue parameter    XMuePBE         ....  0.123457
 Correlation Functional Correlation     .... PBE
   PBE beta parameter  CBetaPBE         ....  0.030000
 LDA part of GGA corr.  LDAOpt          .... PW91-LDA
 Gradients option       PostSCFGGA      .... off
 Hybrid DFT is turned on
   Fraction HF Exchange ScalHFX         ....  0.420000
   Scaling of DF-GGA-X  ScalDFX         ....  0.580000
   Scaling of DF-GGA-C  ScalDFC         ....  1.000000
   Scaling of DF-LDA-C  ScalLDAC        ....  1.000000
   Perturbative correction              ....  0.000000
   Density functional embedding theory  .... OFF
 RI-approximation to the Coulomb term is turned on
   Number of AuxJ basis functions       .... 1231
   RIJ-ON(X) (HFX calculated with O(N)) .... on
   Number of AuxJ basis functions       .... 1231
   RIJ-COSX (HFX calculated with COS-X)).... on


General Settings:
 Integral files         IntName         .... reaction4-IEIP_ts_guess_scan_4-11_orca
 Hartree-Fock type      HFTyp           .... RHF
 Total Charge           Charge          ....    1
 Multiplicity           Mult            ....    1
 Number of Electrons    NEL             ....  164
 Basis Dimension        Dim             ....  358
 Nuclear Repulsion      ENuc            ....   2034.7926917611 Eh

Convergence Acceleration:
 DIIS                   CNVDIIS         .... on
   Start iteration      DIISMaxIt       ....    12
   Startup error        DIISStart       ....  0.200000
   # of expansion vecs  DIISMaxEq       ....     5
   Bias factor          DIISBfac        ....   1.050
   Max. coefficient     DIISMaxC        ....  10.000
 Trust-Rad. Augm. Hess. CNVTRAH         .... auto
   Auto Start mean grad. ratio tolernc. ....  1.125000
   Auto Start start iteration           ....    20
   Auto Start num. interpolation iter.  ....    10
   Max. Number of Micro iterations      ....    16
   Max. Number of Macro iterations      .... Maxiter - #DIIS iter
   Number of Davidson start vectors     ....     2
   Converg. threshold I  (grad. norm)   ....   1.000e-05
   Converg. threshold II (energy diff.) ....   1.000e-08
   Grad. Scal. Fac. for Micro threshold ....   0.100
   Minimum threshold for Micro iter.    ....   0.010
   NR start threshold (gradient norm)   ....   0.001
   Initial trust radius                 ....   0.400
   Minimum AH scaling param. (alpha)    ....   1.000
   Maximum AH scaling param. (alpha)    .... 1000.000
   Orbital update algorithm             .... Taylor
   White noise on init. David. guess    .... on
   Maximum white noise                  ....   0.010
   Quad. conv. algorithm                .... NR
   COSX micro iterations for RIJONX calc.... off
 SOSCF                  CNVSOSCF        .... off
 Level Shifting         CNVShift        .... on
   Level shift para.    LevelShift      ....    0.2500
   Turn off err/grad.   ShiftErr        ....    0.0010
 Zerner damping         CNVZerner       .... off
 Static damping         CNVDamp         .... on
   Fraction old density DampFac         ....    0.7000
   Max. Damping (<1)    DampMax         ....    0.9800
   Min. Damping (>=0)   DampMin         ....    0.0000
   Turn off err/grad.   DampErr         ....    0.1000
 Fernandez-Rico         CNVRico         .... off

SCF Procedure:
 Maximum # iterations   MaxIter         ....   250
 SCF integral mode      SCFMode         .... Direct
   Integral package                     .... SHARK and LIBINT hybrid scheme
 Reset frequency        DirectResetFreq ....    20
 Integral Threshold     Thresh          ....  2.500e-11 Eh
 Primitive CutOff       TCut            ....  2.500e-12 Eh

Convergence Tolerance:
 Convergence Check Mode ConvCheckMode   .... Total+1el-Energy
 Convergence forced     ConvForced      .... 0
 Energy Change          TolE            ....  1.000e-08 Eh
 1-El. energy change                    ....  1.000e-05 Eh
 DIIS Error             TolErr          ....  5.000e-07


Diagonalization of the overlap matrix:
Smallest eigenvalue                        ... 1.197e-03
Time for diagonalization                   ...    0.016 sec
Threshold for overlap eigenvalues          ... 1.000e-08
Number of eigenvalues below threshold      ... 0
Time for construction of square roots      ...    0.006 sec
Total time needed                          ...    0.023 sec

--------------------
INITIAL GUESS: HCORE
--------------------
                      -----------------
                      INTIAL GUESS DONE 
                      -----------------
-------------------
DFT GRID GENERATION
-------------------

General Integration Accuracy     IntAcc      ... 4.159
Radial Grid Type                 RadialGrid  ... OptM3 with GC (2021)
Angular Grid (max. ang.)         AngularGrid ... 3 (Lebedev-194)
Angular grid pruning method      GridPruning ... 4 (adaptive)
Weight generation scheme         WeightScheme... Becke
Basis function cutoff            BFCut       ... 1.0000e-11
Integration weight cutoff        WCut        ... 1.0000e-14
Angular grids for H and He will be reduced by one unit
Partially contracted basis set               ... off
Rotationally invariant grid construction     ... off

Total number of grid points                  ...    93304
Total number of batches                      ...     1478
Average number of points per batch           ...       63
Average number of grid points per atom       ...     2392
Time for grid setup =    1.678 sec

--------------------
COSX GRID GENERATION
--------------------

GRIDX 1
-------
General Integration Accuracy     IntAcc      ... 3.816
Radial Grid Type                 RadialGrid  ... OptM3 with GC (2021)
Angular Grid (max. ang.)         AngularGrid ... 1 (Lebedev-50)
Angular grid pruning method      GridPruning ... 4 (adaptive)
Weight generation scheme         WeightScheme... Becke
Basis function cutoff            BFCut       ... 1.0000e-11
Integration weight cutoff        WCut        ... 1.0000e-14
Angular grids for H and He will be reduced by one unit
Partially contracted basis set               ... on
Rotationally invariant grid construction     ... off

Total number of grid points                  ...    23171
Total number of batches                      ...      382
Average number of points per batch           ...       60
Average number of grid points per atom       ...      594
UseSFitting                                  ... on

GRIDX 2
-------
General Integration Accuracy     IntAcc      ... 4.020
Radial Grid Type                 RadialGrid  ... OptM3 with GC (2021)
Angular Grid (max. ang.)         AngularGrid ... 2 (Lebedev-110)
Angular grid pruning method      GridPruning ... 4 (adaptive)
Weight generation scheme         WeightScheme... Becke
Basis function cutoff            BFCut       ... 1.0000e-11
Integration weight cutoff        WCut        ... 1.0000e-14
Angular grids for H and He will be reduced by one unit
Partially contracted basis set               ... on
Rotationally invariant grid construction     ... off

Total number of grid points                  ...    50328
Total number of batches                      ...      806
Average number of points per batch           ...       62
Average number of grid points per atom       ...     1290
UseSFitting                                  ... on

GRIDX 3
-------
General Integration Accuracy     IntAcc      ... 4.338
Radial Grid Type                 RadialGrid  ... OptM3 with GC (2021)
Angular Grid (max. ang.)         AngularGrid ... 3 (Lebedev-194)
Angular grid pruning method      GridPruning ... 4 (adaptive)
Weight generation scheme         WeightScheme... Becke
Basis function cutoff            BFCut       ... 1.0000e-11
Integration weight cutoff        WCut        ... 1.0000e-14
Angular grids for H and He will be reduced by one unit
Partially contracted basis set               ... on
Rotationally invariant grid construction     ... off

Total number of grid points                  ...   108779
Total number of batches                      ...     1719
Average number of points per batch           ...       63
Average number of grid points per atom       ...     2789
UseSFitting                                  ... on

Time for X-Grid setup             =    4.464 sec

--------------
SCF ITERATIONS
--------------
ITER       Energy         Delta-E        Max-DP      RMS-DP      [F,P]     Damp
               ***  Starting incremental Fock matrix formation  ***
  0   -862.5156435842   0.00000000000018.35322198  0.14953417  2.8432030 0.7000
  1  -1097.9186751291-235.40303154488713.97319434  0.14292439  1.4881487 0.7000
  2  -1166.9200057616 -69.001330632500 5.37913909  0.06623797  1.0238192 0.7000
  3  -1193.3128289761 -26.392823214467 3.74528715  0.04600464  0.7287469 0.7000
  4  -1210.8523463041 -17.539517328067 2.63360030  0.03732892  0.4442390 0.7000
  5  -1226.3374018852 -15.485055581110 2.33683434  0.02987797  0.3397263 0.7000
  6  -1236.6524346205 -10.315032735265 1.75902117  0.03011031  0.3230747 0.7000
  7  -1242.7242396320  -6.071805011508 1.95103878  0.02527622  0.3378509 0.7000
  8  -1246.8310025886  -4.106762956542 1.50218817  0.02472258  0.4262190 0.7000
  9  -1250.8393789204  -4.008376331807 1.68267526  0.02382618  0.3632498 0.7000
 10  -1253.8463087892  -3.006929868787 1.67227827  0.02486543  0.4105637 0.7000
 11  -1255.0070033272  -1.160694538083 1.62154322  0.02376486  0.3788220 0.7000
                               ***Turning on DIIS***
 12  -1255.9409520399  -0.933948712699 1.45157820  0.02345156  0.4578897 0.7000
 13  -1257.0072978047  -1.066345764740 1.43741505  0.02023885  0.3835297 0.7000
 14  -1267.6612458162 -10.653948011535 1.00141048  0.01432871  0.2591926 0.7000
 15  -1274.0372396750  -6.375993858750 0.69888357  0.01017446  0.1674134 0.7000
 16  -1278.1248024848  -4.087562809837 0.48614670  0.00719798  0.1154402 0.7000
 17  -1280.9113666125  -2.786564127688 0.33490787  0.00510184  0.1485852 0.7000
 18  -1282.9662189329  -2.054852320435 0.23117537  0.00364115  0.1448713 0.7000
 19  -1284.4820505923  -1.515831659367 0.15647411  0.00269357  0.1339360 0.7000
               *** Restarting incremental Fock matrix formation ***
                                   *** Resetting DIIS ***
 20  -1285.6228002674  -1.140749675158 0.11735939  0.00227652  0.1126454 0.7000
 21  -1286.4867388742  -0.863938606800 0.26817964  0.00517019  0.0418308 0.0000
 22  -1288.4152719372  -1.928533062923 0.03099820  0.00072867  0.0401639 0.0000
 23  -1288.4380441067  -0.022772169511 0.02712900  0.00048081  0.0126586 0.0000
 24  -1288.4409772151  -0.002933108462 0.01685403  0.00019471  0.0121991 0.0000
 25  -1288.4424838790  -0.001506663880 0.00535995  0.00009129  0.0025106 0.0000
 26  -1288.4427639856  -0.000280106551 0.00247999  0.00005049  0.0015275 0.0000
 27  -1288.4428651253  -0.000101139719 0.00355493  0.00007365  0.0008826 0.0000
               *** Restarting incremental Fock matrix formation ***
                                   *** Resetting DIIS ***
 28  -1288.4440295926  -0.001164467287 0.00456147  0.00008417  0.0006848 0.0000
 29  -1288.4440473782  -0.000017785609 0.00083697  0.00001103  0.0010141 0.0000
 30  -1288.4440504166  -0.000003038436 0.00073206  0.00000762  0.0003493 0.0000
 31  -1288.4440514465  -0.000001029863 0.00035503  0.00000291  0.0001461 0.0000
 32  -1288.4440516030  -0.000000156515 0.00027789  0.00000227  0.0001257 0.0000
 33  -1288.4440517011  -0.000000098076 0.00012261  0.00000112  0.0000390 0.0000
 34  -1288.4440517355  -0.000000034435 0.00005562  0.00000058  0.0000176 0.0000
 35  -1288.4440517337   0.000000001835 0.00003268  0.00000030  0.0000084 0.0000
 36  -1288.4440517307   0.000000002936 0.00001393  0.00000012  0.0000032 0.0000
 37  -1288.4440517302   0.000000000584 0.00000202  0.00000003  0.0000022 0.0000
                            ***DIIS convergence achieved***

               *****************************************************
               *                     SUCCESS                       *
               *           SCF CONVERGED AFTER  38 CYCLES          *
               *****************************************************

Old exchange energy                            =    -59.656750500 Eh
New exchange energy                            =    -59.656693008 Eh
Exchange energy change after final integration =      0.000057493 Eh
Total energy after final integration           =  -1288.443994243 Eh
Final COS-X integration done in                =    56.103 sec

----------------
TOTAL SCF ENERGY
----------------

Total Energy       :        -1288.44399424 Eh          -35060.34352 eV

Components:
Nuclear Repulsion  :         2034.79269176 Eh           55369.52408 eV
Electronic Energy  :        -3323.23668600 Eh          -90429.86759 eV
One Electron Energy:        -5825.13225565 Eh         -158509.90716 eV
Two Electron Energy:         2501.89556964 Eh           68080.03957 eV
Max COSX asymmetry :            0.00001934 Eh               0.00053 eV

Virial components:
Potential Energy   :        -2501.56156202 Eh          -68070.95076 eV
Kinetic Energy     :         1213.11756778 Eh           33010.60725 eV
Virial Ratio       :            2.06209326


DFT components:
N(Alpha)           :       82.000392807955 electrons
N(Beta)            :       82.000392807955 electrons
N(Total)           :      164.000785615910 electrons
E(X)               :      -79.592472178572 Eh       
E(C)               :       -7.455336925804 Eh       
E(XC)              :      -87.047809104375 Eh       
DFET-embed. en.    :        0.000000000000 Eh       

---------------
SCF CONVERGENCE
---------------

  Last Energy change         ...   -4.9895e-09  Tolerance :   1.0000e-08
  Last MAX-Density change    ...    0.0000e+00  Tolerance :   1.0000e-07
  Last RMS-Density change    ...    0.0000e+00  Tolerance :   5.0000e-09
  Last DIIS Error            ...    7.8562e-07  Tolerance :   5.0000e-07

             **** THE GBW FILE WAS UPDATED (reaction4-IEIP_ts_guess_scan_4-11_orca.gbw) ****
             **** DENSITY reaction4-IEIP_ts_guess_scan_4-11_orca.scfp WAS UPDATED ****
             **** ENERGY FILE WAS UPDATED (reaction4-IEIP_ts_guess_scan_4-11_orca.en.tmp) ****
             **** THE GBW FILE WAS UPDATED (reaction4-IEIP_ts_guess_scan_4-11_orca.gbw) ****
             **** DENSITY reaction4-IEIP_ts_guess_scan_4-11_orca.scfp WAS UPDATED ****
----------------
ORBITAL ENERGIES
----------------

  NO   OCC          E(Eh)            E(eV) 
   0   2.0000     -89.758812     -2442.4615 
   1   2.0000     -19.628386      -534.1155 
   2   2.0000     -19.599909      -533.3407 
   3   2.0000     -14.837552      -403.7503 
   4   2.0000     -10.688041      -290.8364 
   5   2.0000     -10.658764      -290.0397 
   6   2.0000     -10.634804      -289.3877 
   7   2.0000     -10.632954      -289.3374 
   8   2.0000     -10.629897      -289.2542 
   9   2.0000     -10.629793      -289.2514 
  10   2.0000     -10.628251      -289.2094 
  11   2.0000     -10.626186      -289.1532 
  12   2.0000     -10.615082      -288.8511 
  13   2.0000     -10.607273      -288.6386 
  14   2.0000     -10.581654      -287.9415 
  15   2.0000     -10.579062      -287.8709 
  16   2.0000     -10.556221      -287.2494 
  17   2.0000     -10.551355      -287.1170 
  18   2.0000     -10.537614      -286.7431 
  19   2.0000      -8.398214      -228.5270 
  20   2.0000      -6.288219      -171.1111 
  21   2.0000      -6.284617      -171.0131 
  22   2.0000      -6.283029      -170.9699 
  23   2.0000      -4.028160      -109.6118 
  24   2.0000      -2.347160       -63.8695 
  25   2.0000      -2.313299       -62.9481 
  26   2.0000      -2.311290       -62.8934 
  27   2.0000      -1.316565       -35.8256 
  28   2.0000      -1.218465       -33.1561 
  29   2.0000      -1.210497       -32.9393 
  30   2.0000      -1.171366       -31.8745 
  31   2.0000      -1.123123       -30.5617 
  32   2.0000      -1.025188       -27.8968 
  33   2.0000      -0.985998       -26.8304 
  34   2.0000      -0.976392       -26.5690 
  35   2.0000      -0.962956       -26.2034 
  36   2.0000      -0.956931       -26.0394 
  37   2.0000      -0.932827       -25.3835 
  38   2.0000      -0.902135       -24.5483 
  39   2.0000      -0.871742       -23.7213 
  40   2.0000      -0.796976       -21.6868 
  41   2.0000      -0.787279       -21.4229 
  42   2.0000      -0.786001       -21.3882 
  43   2.0000      -0.779253       -21.2046 
  44   2.0000      -0.770885       -20.9769 
  45   2.0000      -0.761569       -20.7234 
  46   2.0000      -0.743160       -20.2224 
  47   2.0000      -0.723705       -19.6930 
  48   2.0000      -0.692626       -18.8473 
  49   2.0000      -0.677589       -18.4381 
  50   2.0000      -0.663991       -18.0681 
  51   2.0000      -0.653348       -17.7785 
  52   2.0000      -0.649136       -17.6639 
  53   2.0000      -0.639306       -17.3964 
  54   2.0000      -0.638941       -17.3865 
  55   2.0000      -0.633729       -17.2446 
  56   2.0000      -0.622765       -16.9463 
  57   2.0000      -0.610141       -16.6028 
  58   2.0000      -0.607107       -16.5202 
  59   2.0000      -0.606097       -16.4927 
  60   2.0000      -0.596231       -16.2243 
  61   2.0000      -0.587973       -15.9996 
  62   2.0000      -0.576209       -15.6794 
  63   2.0000      -0.568634       -15.4733 
  64   2.0000      -0.562744       -15.3130 
  65   2.0000      -0.558804       -15.2058 
  66   2.0000      -0.552647       -15.0383 
  67   2.0000      -0.548505       -14.9256 
  68   2.0000      -0.540322       -14.7029 
  69   2.0000      -0.534993       -14.5579 
  70   2.0000      -0.527940       -14.3660 
  71   2.0000      -0.519854       -14.1459 
  72   2.0000      -0.515497       -14.0274 
  73   2.0000      -0.505808       -13.7637 
  74   2.0000      -0.493021       -13.4158 
  75   2.0000      -0.480599       -13.0778 
  76   2.0000      -0.466476       -12.6935 
  77   2.0000      -0.449645       -12.2355 
  78   2.0000      -0.443995       -12.0817 
  79   2.0000      -0.420577       -11.4445 
  80   2.0000      -0.416872       -11.3437 
  81   2.0000      -0.401247       -10.9185 
  82   0.0000      -0.199265        -5.4223 
  83   0.0000      -0.159341        -4.3359 
  84   0.0000      -0.140750        -3.8300 
  85   0.0000      -0.093500        -2.5443 
  86   0.0000      -0.074404        -2.0246 
  87   0.0000      -0.066427        -1.8076 
  88   0.0000      -0.057784        -1.5724 
  89   0.0000      -0.056249        -1.5306 
  90   0.0000      -0.043943        -1.1957 
  91   0.0000      -0.033965        -0.9242 
  92   0.0000      -0.004333        -0.1179 
  93   0.0000      -0.003100        -0.0844 
  94   0.0000       0.012772         0.3475 
  95   0.0000       0.021096         0.5740 
  96   0.0000       0.025925         0.7055 
  97   0.0000       0.036288         0.9874 
  98   0.0000       0.045285         1.2323 
  99   0.0000       0.059776         1.6266 
 100   0.0000       0.069614         1.8943 
 101   0.0000       0.072723         1.9789 
 102   0.0000       0.074417         2.0250 
 103   0.0000       0.080040         2.1780 
 104   0.0000       0.083768         2.2794 
 105   0.0000       0.090752         2.4695 
 106   0.0000       0.094856         2.5812 
 107   0.0000       0.101989         2.7753 
 108   0.0000       0.106762         2.9051 
 109   0.0000       0.111900         3.0450 
 110   0.0000       0.114914         3.1270 
 111   0.0000       0.120754         3.2859 
 112   0.0000       0.123526         3.3613 
 113   0.0000       0.125638         3.4188 
 114   0.0000       0.129628         3.5273 
 115   0.0000       0.135748         3.6939 
 116   0.0000       0.143664         3.9093 
 117   0.0000       0.154089         4.1930 
 118   0.0000       0.157545         4.2870 
 119   0.0000       0.159964         4.3528 
 120   0.0000       0.168743         4.5917 
 121   0.0000       0.182547         4.9674 
 122   0.0000       0.193159         5.2561 
 123   0.0000       0.199750         5.4355 
 124   0.0000       0.227763         6.1977 
 125   0.0000       0.234856         6.3908 
 126   0.0000       0.257254         7.0002 
 127   0.0000       0.264211         7.1895 
 128   0.0000       0.279390         7.6026 
 129   0.0000       0.292308         7.9541 
 130   0.0000       0.304008         8.2725 
 131   0.0000       0.311608         8.4793 
 132   0.0000       0.322504         8.7758 
 133   0.0000       0.339301         9.2328 
 134   0.0000       0.341481         9.2922 
 135   0.0000       0.353946         9.6314 
 136   0.0000       0.358815         9.7638 
 137   0.0000       0.374720        10.1966 
 138   0.0000       0.381289        10.3754 
 139   0.0000       0.398386        10.8406 
 140   0.0000       0.404211        10.9991 
 141   0.0000       0.418965        11.4006 
 142   0.0000       0.424379        11.5480 
 143   0.0000       0.437234        11.8977 
 144   0.0000       0.443442        12.0667 
 145   0.0000       0.450986        12.2719 
 146   0.0000       0.457227        12.4418 
 147   0.0000       0.461968        12.5708 
 148   0.0000       0.466949        12.7063 
 149   0.0000       0.483115        13.1462 
 150   0.0000       0.486530        13.2391 
 151   0.0000       0.490302        13.3418 
[...]

----------------------
LOEWDIN ATOMIC CHARGES
----------------------
   0 Ir:   -0.226919
   1 C :   -0.047314
   2 C :   -0.071262
   3 C :   -0.066704
   4 C :   -0.045553
   5 C :   -0.018609
   6 N :   -0.011943
   7 C :   -0.069370
   8 C :   -0.362808
   9 H :    0.156270
  10 H :    0.133053
  11 H :    0.145666
  12 C :   -0.343820
  13 H :    0.155003
  14 H :    0.152020
  15 H :    0.137446
  16 H :    0.132354
  17 C :    0.034782
  18 C :   -0.194353
  19 H :    0.160400
  20 C :   -0.207952
  21 C :   -0.140023
  22 S :    0.472038
  23 C :   -0.260739
  24 H :    0.317989
  25 H :    0.160394
  26 H :    0.167471
  27 H :    0.184581
  28 H :    0.184242
  29 H :    0.192451
  30 O :   -0.272408
  31 O :   -0.195873
  32 C :    0.163434
  33 C :   -0.373700
  34 H :    0.161892
  35 H :    0.169823
  36 H :    0.154664
  37 H :    0.186207
  38 H :    0.187171

-------------------------------
LOEWDIN REDUCED ORBITAL CHARGES
-------------------------------
  0 Irs       :     2.452923  s :     2.452923
      pz      :     2.242144  p :     6.752036
      px      :     2.241872
      py      :     2.268020
      dz2     :     1.821328  d :     7.933524
      dxz     :     1.707282
      dyz     :     1.311982
      dx2y2   :     1.636901
      dxy     :     1.456031
      f0      :     0.010950  f :     0.088437
      f+1     :     0.003555
      f-1     :     0.013495
      f+2     :     0.016326
      f-2     :     0.016376
      f+3     :     0.011294
      f-3     :     0.016441
  1 C s       :     2.874557  s :     2.874557
      pz      :     1.050515  p :     3.068759
      px      :     1.082915
      py      :     0.935329
      dz2     :     0.026149  d :     0.103998
      dxz     :     0.026447
      dyz     :     0.016931
      dx2y2   :     0.018818
      dxy     :     0.015653
  2 C s       :     2.874200  s :     2.874200
      pz      :     1.041240  p :     3.095302
      px      :     1.081544
      py      :     0.972517
      dz2     :     0.024938  d :     0.101760
      dxz     :     0.028209
      dyz     :     0.017411
      dx2y2   :     0.018122
      dxy     :     0.013081
  3 C s       :     2.873714  s :     2.873714
      pz      :     1.030969  p :     3.092136
      px      :     1.081699
      py      :     0.979468
      dz2     :     0.023318  d :     0.100854
      dxz     :     0.032007
      dyz     :     0.015678
      dx2y2   :     0.015616
      dxy     :     0.014235
  4 C s       :     2.875108  s :     2.875108
      pz      :     1.088352  p :     3.067448
      px      :     1.038977
      py      :     0.940118
      dz2     :     0.022731  d :     0.102997
      dxz     :     0.030797
      dyz     :     0.012997
      dx2y2   :     0.018410
      dxy     :     0.018063
  5 C s       :     2.878101  s :     2.878101
      pz      :     1.059339  p :     3.035601
      px      :     1.034770
      py      :     0.941492
      dz2     :     0.023800  d :     0.104907
      dxz     :     0.031023
      dyz     :     0.015728
      dx2y2   :     0.015726
      dxy     :     0.018630
  6 N s       :     3.122308  s :     3.122308
      pz      :     1.263535  p :     3.791991
      px      :     1.292013
      py      :     1.236443
      dz2     :     0.030284  d :     0.097644
      dxz     :     0.027559
      dyz     :     0.018400
      dx2y2   :     0.011581
      dxy     :     0.009820
  7 C s       :     2.862630  s :     2.862630
      pz      :     1.061914  p :     3.072544
      px      :     0.935479
      py      :     1.075151
      dz2     :     0.026641  d :     0.134196
      dxz     :     0.027883
      dyz     :     0.016292
      dx2y2   :     0.030105
      dxy     :     0.033275
  8 C s       :     2.953415  s :     2.953415
      pz      :     1.133618  p :     3.341925
      px      :     1.125133
      py      :     1.083174
      dz2     :     0.013689  d :     0.067468
      dxz     :     0.017278
      dyz     :     0.007996
      dx2y2   :     0.009677
      dxy     :     0.018828
  9 H s       :     0.843730  s :     0.843730
 10 H s       :     0.866947  s :     0.866947
 11 H s       :     0.854334  s :     0.854334
 12 C s       :     2.953179  s :     2.953179
      pz      :     1.142927  p :     3.322643
      px      :     1.109643
      py      :     1.070073
      dz2     :     0.012621  d :     0.067998
      dxz     :     0.013418
      dyz     :     0.012153
      dx2y2   :     0.011859
      dxy     :     0.017948
 13 H s       :     0.844997  s :     0.844997
 14 H s       :     0.847980  s :     0.847980
 15 H s       :     0.862554  s :     0.862554
 16 H s       :     0.867646  s :     0.867646
 17 C s       :     2.877766  s :     2.877766
      pz      :     1.017892  p :     2.946781
      px      :     1.067591
      py      :     0.861298
      dz2     :     0.039925  d :     0.140671
      dxz     :     0.051090
      dyz     :     0.025226
      dx2y2   :     0.011647
      dxy     :     0.012782
 18 C s       :     2.894304  s :     2.894304
      pz      :     1.044771  p :     3.187929
      px      :     1.090714
      py      :     1.052445
      dz2     :     0.032989  d :     0.112120
      dxz     :     0.031661
      dyz     :     0.016843
      dx2y2   :     0.018504
      dxy     :     0.012124
 19 H s       :     0.839600  s :     0.839600
 20 C s       :     2.922615  s :     2.922615
      pz      :     1.127183  p :     3.196492
      px      :     1.051180
      py      :     1.018129
      dz2     :     0.011044  d :     0.088844
      dxz     :     0.035045
      dyz     :     0.009022
      dx2y2   :     0.016692
      dxy     :     0.017042
 21 C s       :     2.898363  s :     2.898363
      pz      :     1.073821  p :     3.147095
      px      :     1.090354
      py      :     0.982920
      dz2     :     0.027153  d :     0.094566
      dxz     :     0.030431
      dyz     :     0.014100
      dx2y2   :     0.014929
      dxy     :     0.007952
 22 S s       :     5.503640  s :     5.503640
      pz      :     3.262210  p :     9.871040
      px      :     3.089983
      py      :     3.518847
      dz2     :     0.046069  d :     0.153282
      dxz     :     0.031228
      dyz     :     0.020531
      dx2y2   :     0.031171
      dxy     :     0.024282
 23 C s       :     2.965449  s :     2.965449
      pz      :     1.120606  p :     3.209373
      px      :     1.022809
      py      :     1.065958
      dz2     :     0.022938  d :     0.085917
      dxz     :     0.028570
      dyz     :     0.011923
      dx2y2   :     0.012680
      dxy     :     0.009805
 24 H s       :     0.682011  s :     0.682011
 25 H s       :     0.839606  s :     0.839606
 26 H s       :     0.832529  s :     0.832529
 27 H s       :     0.815419  s :     0.815419
 28 H s       :     0.815758  s :     0.815758
 29 H s       :     0.807549  s :     0.807549
 30 O s       :     3.506314  s :     3.506314
      pz      :     1.450866  p :     4.711147
      px      :     1.551321
      py      :     1.708960
      dz2     :     0.017023  d :     0.054947
      dxz     :     0.013609
      dyz     :     0.015984
      dx2y2   :     0.004936
      dxy     :     0.003395
 31 O s       :     3.443432  s :     3.443432
      pz      :     1.694566  p :     4.692755
      px      :     1.612853
      py      :     1.385336
      dz2     :     0.009194  d :     0.059686
      dxz     :     0.003976
      dyz     :     0.016274
      dx2y2   :     0.015092
      dxy     :     0.015151
 32 C s       :     2.812696  s :     2.812696
      pz      :     0.986080  p :     2.702976
      px      :     0.759606
      py      :     0.957289
      dz2     :     0.074051  d :     0.320894
      dxz     :     0.047695
      dyz     :     0.103980
      dx2y2   :     0.046347
      dxy     :     0.048821
 33 C s       :     2.958870  s :     2.958870
      pz      :     1.100185  p :     3.352170
      px      :     1.151410
      py      :     1.100576
      dz2     :     0.004663  d :     0.062660
      dxz     :     0.017137
      dyz     :     0.020390
      dx2y2   :     0.018318
      dxy     :     0.002152
 34 H s       :     0.838108  s :     0.838108
 35 H s       :     0.830177  s :     0.830177
 36 H s       :     0.845336  s :     0.845336
 37 H s       :     0.813793  s :     0.813793
 38 H s       :     0.812829  s :     0.812829


                      *****************************
                      * MAYER POPULATION ANALYSIS *
                      *****************************

  NA   - Mulliken gross atomic population
  ZA   - Total nuclear charge
  QA   - Mulliken gross atomic charge
  VA   - Mayer's total valence
  BVA  - Mayer's bonded valence
  FA   - Mayer's free valence

  ATOM       NA         ZA         QA         VA         BVA        FA
  0 Ir    16.3867    17.0000     0.6133     3.7500     3.7500     0.0000
  1 C      6.2191     6.0000    -0.2191     3.7047     3.7047    -0.0000
  2 C      6.2874     6.0000    -0.2874     3.7399     3.7399     0.0000
  3 C      6.2445     6.0000    -0.2445     3.7356     3.7356    -0.0000
  4 C      6.2362     6.0000    -0.2362     3.7220     3.7220    -0.0000
  5 C      6.1642     6.0000    -0.1642     3.6927     3.6927     0.0000
  6 N      7.4359     7.0000    -0.4359     3.2151     3.2151    -0.0000
  7 C      6.1268     6.0000    -0.1268     3.7039     3.7039     0.0000
  8 C      6.6842     6.0000    -0.6842     3.6871     3.6871     0.0000
  9 H      0.7304     1.0000     0.2696     0.8973     0.8973     0.0000
 10 H      0.7751     1.0000     0.2249     0.9106     0.9106     0.0000
 11 H      0.7417     1.0000     0.2583     0.8987     0.8987     0.0000
 12 C      6.6348     6.0000    -0.6348     3.6732     3.6732     0.0000
 13 H      0.7202     1.0000     0.2798     0.8747     0.8747     0.0000
 14 H      0.7380     1.0000     0.2620     0.8976     0.8976     0.0000
 15 H      0.7684     1.0000     0.2316     0.9096     0.9096     0.0000
 16 H      0.7696     1.0000     0.2304     0.9065     0.9065     0.0000
 17 C      5.9297     6.0000     0.0703     3.6496     3.6496     0.0000
 18 C      6.1757     6.0000    -0.1757     3.7136     3.7136    -0.0000
 19 H      0.7135     1.0000     0.2865     0.8876     0.8876    -0.0000
 20 C      6.4525     6.0000    -0.4525     3.4804     3.4804    -0.0000
 21 C      6.1398     6.0000    -0.1398     3.7669     3.7669    -0.0000
 22 S     15.6860    16.0000     0.3140     2.5758     2.5758     0.0000
 23 C      6.4269     6.0000    -0.4269     3.7505     3.7505    -0.0000
 24 H      0.5056     1.0000     0.4944     0.7304     0.7304    -0.0000
 25 H      0.7370     1.0000     0.2630     0.9045     0.9045     0.0000
 26 H      0.7041     1.0000     0.2959     0.8978     0.8978     0.0000
 27 H      0.7099     1.0000     0.2901     0.9028     0.9028     0.0000
 28 H      0.7101     1.0000     0.2899     0.9061     0.9061    -0.0000
 29 H      0.6952     1.0000     0.3048     0.8923     0.8923    -0.0000
 30 O      8.4903     8.0000    -0.4903     2.1091     2.1091     0.0000
 31 O      8.5289     8.0000    -0.5289     2.0904     2.0904    -0.0000
 32 C      5.3732     6.0000     0.6268     3.9013     3.9013    -0.0000
 33 C      6.7453     6.0000    -0.7453     3.6640     3.6640     0.0000
 34 H      0.7284     1.0000     0.2716     0.8943     0.8943    -0.0000
 35 H      0.7294     1.0000     0.2706     0.8935     0.8935     0.0000
 36 H      0.7431     1.0000     0.2569     0.8995     0.8995     0.0000
 37 H      0.7085     1.0000     0.2915     0.9027     0.9027    -0.0000
 38 H      0.7037     1.0000     0.2963     0.9012     0.9012    -0.0000

  Mayer bond orders larger than 0.100000
B(  0-Ir,  1-C ) :   0.4241 B(  0-Ir,  2-C ) :   0.5190 B(  0-Ir,  3-C ) :   0.4611 
B(  0-Ir,  4-C ) :   0.4504 B(  0-Ir,  5-C ) :   0.4023 B(  0-Ir,  6-N ) :   0.4682 
B(  0-Ir, 20-C ) :   0.2976 B(  0-Ir, 31-O ) :   0.5558 B(  1-C ,  2-C ) :   1.1184 
B(  1-C ,  4-C ) :   1.2407 B(  1-C , 27-H ) :   0.9045 B(  2-C ,  5-C ) :   1.1439 
B(  2-C , 28-H ) :   0.9082 B(  3-C ,  4-C ) :   1.1112 B(  3-C ,  5-C ) :   1.2236 
B(  3-C , 37-H ) :   0.9069 B(  4-C , 38-H ) :   0.8999 B(  5-C , 29-H ) :   0.8981 
B(  6-N ,  7-C ) :   0.8920 B(  6-N , 17-C ) :   1.6691 B(  7-C ,  8-C ) :   0.9912 
B(  7-C , 12-C ) :   0.9682 B(  7-C , 13-H ) :   0.8761 B(  8-C ,  9-H ) :   0.9044 
B(  8-C , 10-H ) :   0.9131 B(  8-C , 11-H ) :   0.9100 B( 12-C , 14-H ) :   0.9071 
B( 12-C , 15-H ) :   0.9156 B( 12-C , 16-H ) :   0.9128 B( 17-C , 18-C ) :   1.0846 
B( 17-C , 19-H ) :   0.8756 B( 18-C , 20-C ) :   1.2872 B( 18-C , 22-S ) :   1.2200 
B( 20-C , 21-C ) :   1.2852 B( 20-C , 24-H ) :   0.4135 B( 21-C , 23-C ) :   1.5400 
B( 21-C , 25-H ) :   0.9054 B( 22-S , 23-C ) :   1.2137 B( 23-C , 26-H ) :   0.8921 
B( 24-H , 30-O ) :   0.2799 B( 30-O , 32-C ) :   1.6269 B( 31-O , 32-C ) :   1.3218 
B( 32-C , 33-C ) :   0.9482 B( 33-C , 34-H ) :   0.9029 B( 33-C , 35-H ) :   0.8959 
B( 33-C , 36-H ) :   0.9086 


------------------
HIRSHFELD ANALYSIS
------------------

Total integrated alpha density =     82.000012605
Total integrated beta density  =     82.000012605

  ATOM     CHARGE      SPIN    
   0 Ir   0.195618    0.000000
   1 C    0.003629    0.000000
   2 C   -0.003856    0.000000
   3 C   -0.004669    0.000000
   4 C    0.001907    0.000000
   5 C    0.020475    0.000000
   6 N   -0.071762    0.000000
   7 C    0.052728    0.000000
   8 C   -0.071325    0.000000
   9 H    0.053211    0.000000
  10 H    0.037668    0.000000
  11 H    0.042657    0.000000
  12 C   -0.071131    0.000000
  13 H    0.045032    0.000000
  14 H    0.050804    0.000000
  15 H    0.036894    0.000000
  16 H    0.030090    0.000000
  17 C    0.098651    0.000000
  18 C   -0.012689    0.000000
  19 H    0.076497    0.000000
  20 C   -0.078840    0.000000
  21 C   -0.034463    0.000000
  22 S    0.123567    0.000000
  23 C   -0.026377    0.000000
  24 H    0.074021    0.000000
  25 H    0.067702    0.000000
  26 H    0.077434    0.000000
  27 H    0.083373    0.000000
  28 H    0.083438    0.000000
  29 H    0.094030    0.000000
  30 O   -0.240165    0.000000
  31 O   -0.251632    0.000000
  32 C    0.248608    0.000000
  33 C   -0.065197    0.000000
  34 H    0.056259    0.000000
  35 H    0.061737    0.000000
  36 H    0.049828    0.000000
  37 H    0.085274    0.000000
  38 H    0.080949    0.000000

  TOTAL   0.999975    0.000000

-------
TIMINGS
-------

Total SCF time: 0 days 0 hours 4 min 6 sec 

Total time                  ....     246.834 sec
Sum of individual times     ....     246.324 sec  ( 99.8%)

Fock matrix formation       ....     239.008 sec  ( 96.8%)
  Split-RI-J                ....      16.697 sec  (  7.0% of F)
  Chain of spheres X        ....     212.470 sec  ( 88.9% of F)
  XC integration            ....       9.848 sec  (  4.1% of F)
    Basis function eval.    ....       4.514 sec  ( 45.8% of XC)
    Density eval.           ....       2.584 sec  ( 26.2% of XC)
    XC-Functional eval.     ....       0.728 sec  (  7.4% of XC)
    XC-Potential eval.      ....       1.609 sec  ( 16.3% of XC)
Diagonalization             ....       0.152 sec  (  0.1%)
Density matrix formation    ....       0.025 sec  (  0.0%)
Population analysis         ....       1.085 sec  (  0.4%)
Initial guess               ....       0.025 sec  (  0.0%)
Orbital Transformation      ....       0.000 sec  (  0.0%)
Orbital Orthonormalization  ....       0.018 sec  (  0.0%)
DIIS solution               ....       0.060 sec  (  0.0%)
Grid generation             ....       5.968 sec  (  2.4%)

Maximum memory used throughout the entire SCF-calculation: 172.9 MB


-------------------------------------------------------------------------------
                          DFT DISPERSION CORRECTION                            
                                                                               
                              DFTD3 V3.1  Rev 1                                
                          USING Becke-Johnson damping                          
-------------------------------------------------------------------------------
The PBEh-3c composite method is recognized
Using three-body term ABC
Active option DFTDOPT                   ...         4   

molecular C6(AA) [au] = 19554.318797 


            DFT-D V3
 parameters
 s6 scaling factor         :     1.0000 
 a1 scaling factor         :     0.4860 
 s8 scaling factor         :     0.0000 
 a2 scaling factor         :     4.5000 
 Damping factor alpha9(ATM):    16.0000 
 ad hoc parameters k1-k3   :    16.0000     1.3333    -4.0000 

 Edisp/kcal,au: -19.179576382152  -0.030564597236 
 E6   /kcal   : -19.521427977 
 E8   /kcal   :  -0.000000000 
 E6(ABC)      :   0.341851595 
 % E8         :   0.000000000 
 % E6(ABC)    :  -1.782373021 

-------------------------   ----------------
Dispersion correction           -0.030564597
-------------------------   ----------------

 ** NOTE ** -> element ir will be treated as co
NOTIFICATION: Different basis set in ORCA and otool_gcp:
ORCA: 358  gCP: 357 
If you are NOT using ECPs, check your basis set inputs!
------------------   -----------------
gCP correction             0.078055941
------------------   -----------------

-------------------------   --------------------
FINAL SINGLE POINT ENERGY     -1288.396985454442
-------------------------   --------------------

                                *** OPTIMIZATION RUN DONE ***

                            ***************************************
                            *     ORCA property calculations      *
                            ***************************************

                                    ---------------------
                                    Active property flags
                                    ---------------------
   (+) Dipole Moment


------------------------------------------------------------------------------
                       ORCA ELECTRIC PROPERTIES CALCULATION
------------------------------------------------------------------------------

Dipole Moment Calculation                       ... on
Quadrupole Moment Calculation                   ... off
Polarizability Calculation                      ... off
GBWName                                         ... reaction4-IEIP_ts_guess_scan_4-11_orca.gbw
Electron density                                ... reaction4-IEIP_ts_guess_scan_4-11_orca.scfp
The origin for moment calculation is the CENTER OF MASS  = ( 0.850072, -0.612407 -0.116151)

-------------
DIPOLE MOMENT
-------------
                                X             Y             Z
Electronic contribution:     36.04744     -70.90836      78.17776
Nuclear contribution   :    -36.66882      69.94762     -78.31068
                        -----------------------------------------
Total Dipole Moment    :     -0.62138      -0.96074      -0.13292
                        -----------------------------------------
Magnitude (a.u.)       :      1.15187
Magnitude (Debye)      :      2.92781



--------------------
Rotational spectrum 
--------------------
 
Rotational constants in cm-1:     0.010550     0.008861     0.008114 
Rotational constants in MHz :   316.284467   265.657558   243.247434 

 Dipole components along the rotational axes: 
x,y,z [a.u.] :     0.062843     0.344113    -1.097466 
x,y,z [Debye]:     0.159733     0.874667    -2.789538 

 

Timings for individual modules:

Sum of individual times         ...     6853.927 sec (= 114.232 min)
GTO integral calculation        ...       24.797 sec (=   0.413 min)   0.4 %
SCF iterations                  ...     5381.501 sec (=  89.692 min)  78.5 %
SCF Gradient evaluation         ...     1444.081 sec (=  24.068 min)  21.1 %
Geometry relaxation             ...        3.549 sec (=   0.059 min)   0.1 %
                             ****ORCA TERMINATED NORMALLY****
TOTAL RUN TIME: 0 days 1 hours 54 minutes 18 seconds 988 msec
