
                                 *****************
                                 * O   R   C   A *
                                 *****************

                                            #,                                       
                                            ###                                      
                                            ####                                     
                                            #####                                    
                                            ######                                   
                                           ########,                                 
                                     ,,################,,,,,                         
                               ,,#################################,,                 
                          ,,##########################################,,             
                       ,#########################################, ''#####,          
                    ,#############################################,,   '####,        
                  ,##################################################,,,,####,       
                ,###########''''           ''''###############################       
              ,#####''   ,,,,##########,,,,          '''####'''          '####       
            ,##' ,,,,###########################,,,                        '##       
           ' ,,###''''                  '''############,,,                           
         ,,##''                                '''############,,,,        ,,,,,,###''
      ,#''                                            '''#######################'''  
     '                                                          ''''####''''         
             ,#######,   #######,   ,#######,      ##                                
            ,#'     '#,  ##    ##  ,#'     '#,    #''#        ######   ,####,        
            ##       ##  ##   ,#'  ##            #'  '#       #        #'  '#        
            ##       ##  #######   ##           ,######,      #####,   #    #        
            '#,     ,#'  ##    ##  '#,     ,#' ,#      #,         ##   #,  ,#        
             '#######'   ##     ##  '#######'  #'      '#     #####' # '####'        



                  #######################################################
                  #                        -***-                        #
                  #          Department of theory and spectroscopy      #
                  #    Directorship and core code : Frank Neese         #
                  #        Max Planck Institute fuer Kohlenforschung    #
                  #                Kaiser Wilhelm Platz 1               #
                  #                 D-45470 Muelheim/Ruhr               #
                  #                      Germany                        #
                  #                                                     #
                  #                  All rights reserved                #
                  #                        -***-                        #
                  #######################################################


                         Program Version 5.0.3 -  RELEASE  -


 With contributions from (in alphabetic order):
   Daniel Aravena         : Magnetic Suceptibility
   Michael Atanasov       : Ab Initio Ligand Field Theory (pilot matlab implementation)
   Alexander A. Auer      : GIAO ZORA, VPT2 properties, NMR spectrum
   Ute Becker             : Parallelization
   Giovanni Bistoni       : ED, misc. LED, open-shell LED, HFLD
   Martin Brehm           : Molecular dynamics
   Dmytro Bykov           : SCF Hessian
   Vijay G. Chilkuri      : MRCI spin determinant printing, contributions to CSF-ICE
   Dipayan Datta          : RHF DLPNO-CCSD density
   Achintya Kumar Dutta   : EOM-CC, STEOM-CC
   Dmitry Ganyushin       : Spin-Orbit,Spin-Spin,Magnetic field MRCI
   Miquel Garcia          : C-PCM and meta-GGA Hessian, CC/C-PCM, Gaussian charge scheme
   Yang Guo               : DLPNO-NEVPT2, F12-NEVPT2, CIM, IAO-localization
   Andreas Hansen         : Spin unrestricted coupled pair/coupled cluster methods
   Benjamin Helmich-Paris : MC-RPA, TRAH-SCF, COSX integrals
   Lee Huntington         : MR-EOM, pCC
   Robert Izsak           : Overlap fitted RIJCOSX, COSX-SCS-MP3, EOM
   Marcus Kettner         : VPT2
   Christian Kollmar      : KDIIS, OOCD, Brueckner-CCSD(T), CCSD density, CASPT2, CASPT2-K
   Simone Kossmann        : Meta GGA functionals, TD-DFT gradient, OOMP2, MP2 Hessian
   Martin Krupicka        : Initial AUTO-CI
   Lucas Lang             : DCDCAS
   Marvin Lechner         : AUTO-CI (C++ implementation), FIC-MRCC
   Dagmar Lenk            : GEPOL surface, SMD
   Dimitrios Liakos       : Extrapolation schemes; Compound Job, initial MDCI parallelization
   Dimitrios Manganas     : Further ROCIS development; embedding schemes
   Dimitrios Pantazis     : SARC Basis sets
   Anastasios Papadopoulos: AUTO-CI, single reference methods and gradients
   Taras Petrenko         : DFT Hessian,TD-DFT gradient, ASA, ECA, R-Raman, ABS, FL, XAS/XES, NRVS
   Peter Pinski           : DLPNO-MP2, DLPNO-MP2 Gradient
   Christoph Reimann      : Effective Core Potentials
   Marius Retegan         : Local ZFS, SOC
   Christoph Riplinger    : Optimizer, TS searches, QM/MM, DLPNO-CCSD(T), (RO)-DLPNO pert. Triples
   Tobias Risthaus        : Range-separated hybrids, TD-DFT gradient, RPA, STAB
   Michael Roemelt        : Original ROCIS implementation
   Masaaki Saitow         : Open-shell DLPNO-CCSD energy and density
   Barbara Sandhoefer     : DKH picture change effects
   Avijit Sen             : IP-ROCIS
   Kantharuban Sivalingam : CASSCF convergence, NEVPT2, FIC-MRCI
   Bernardo de Souza      : ESD, SOC TD-DFT
   Georgi Stoychev        : AutoAux, RI-MP2 NMR, DLPNO-MP2 response
   Willem Van den Heuvel  : Paramagnetic NMR
   Boris Wezisla          : Elementary symmetry handling
   Frank Wennmohs         : Technical directorship


 We gratefully acknowledge several colleagues who have allowed us to
 interface, adapt or use parts of their codes:
   Stefan Grimme, W. Hujo, H. Kruse, P. Pracht,  : VdW corrections, initial TS optimization,
                  C. Bannwarth, S. Ehlert          DFT functionals, gCP, sTDA/sTD-DF
   Ed Valeev, F. Pavosevic, A. Kumar             : LibInt (2-el integral package), F12 methods
   Garnet Chan, S. Sharma, J. Yang, R. Olivares  : DMRG
   Ulf Ekstrom                                   : XCFun DFT Library
   Mihaly Kallay                                 : mrcc  (arbitrary order and MRCC methods)
   Jiri Pittner, Ondrej Demel                    : Mk-CCSD
   Frank Weinhold                                : gennbo (NPA and NBO analysis)
   Christopher J. Cramer and Donald G. Truhlar   : smd solvation model
   Lars Goerigk                                  : TD-DFT with DH, B97 family of functionals
   V. Asgeirsson, H. Jonsson                     : NEB implementation
   FAccTs GmbH                                   : IRC, NEB, NEB-TS, DLPNO-Multilevel, CI-OPT
                                                   MM, QMMM, 2- and 3-layer-ONIOM, Crystal-QMMM,
                                                   LR-CPCM, SF, NACMEs, symmetry and pop. for TD-DFT,
                                                   nearIR, NL-DFT gradient (VV10), updates on ESD,
                                                   ML-optimized integration grids
   S Lehtola, MJT Oliveira, MAL Marques          : LibXC Library
   Liviu Ungur et al                             : ANISO software


 Your calculation uses the libint2 library for the computation of 2-el integrals
 For citations please refer to: http://libint.valeyev.net

 Your ORCA version has been built with support for libXC version: 5.1.0
 For citations please refer to: https://tddft.org/programs/libxc/

 This ORCA versions uses:
   CBLAS   interface :  Fast vector & matrix operations
   LAPACKE interface :  Fast linear algebra routines
   SCALAPACK package :  Parallel linear algebra routines
   Shared memory     :  Shared parallel matrices
   BLAS/LAPACK       :  OpenBLAS 0.3.15  USE64BITINT DYNAMIC_ARCH NO_AFFINITY SkylakeX SINGLE_THREADED
        Core in use  :  SkylakeX
   Copyright (c) 2011-2014, The OpenBLAS Project


Your calculation utilizes the geometrical counterpoise correction gCP
Please cite in your paper:
H.Kruse, S. Grimme J.Chem.Phys., 136, (2012), 154101 
   

Your calculation utilizes the atom-pairwise dispersion correction
with the Becke-Johnson damping scheme (D3BJ)
Cite in your paper:
S.Grimme, S.Ehrlich, L.Goerigk, J Comput Chem, (2011), 32, 1456–1465 
S.Grimme, J.Antony, S.Ehrlich and H.Krieg, J.Chem.Phys., 132, (2010), 154104 
   

Your calculation employs the composite approach PBEh-3c.
Please cite in your paper:
S. Grimme, J. G. Brandenburg, C. Bannwarth, A. Hansen J.Chem.Phys., 143, (2015), 054107 
   

================================================================================

cite the ECPs for Ir [Def2-ECP] as follows:
Ce-Yb(ecp-28): M. Dolg, H. Stoll, H.Preuss, J. Chem. Phys., 1989, 90, 1730-1734.
Y-Cd(ecp-28), Hf-Hg(ecp-46): D. Andrae,U. Haeussermann, M. Dolg, H. Stoll, H. Preuss, Theor. Chim. Acta, 1990, 77, 123-141.
In-Sb(ecp-28), Tl-Bi(ecp-46): B. Metz, H. Stoll, M. Dolg, J. Chem. Phys., 2000, 113, 2563-2569.
Te-Xe(ecp-28), Po-Rn(ecp-46): K. A. Peterson, D. Figgen, E. Goll, H. Stoll, M. Dolg, J. Chem. Phys., 2003, 119, 11113-11123.
Rb(ecp-28), Cs(ecp-46): T. Leininger, A. Nicklass, W. Kuechle, H. Stoll, M. Dolg, A. Bergner, Chem. Phys. Lett., 1996, 255, 274-280.
Sr(ecp-28), Ba(ecp-46): M. Kaupp, P. V. Schleyer, H. Stoll and H. Preuss, J. Chem. Phys., 1991, 94, 1360-1366.
La(ecp-46): M. Dolg, H. Stoll, A. Savin, H. Preuss, Theor. Chim. Acta, 1989, 75, 173-194.
Lu(ecp-28): X. Cao, M. Dolg, J. Chem. Phys., 2001, 115, 7348-7355.

ECP parameters for Ir [Def2-ECP] have been obtained from:
TURBOMOLE (7.0.2)

----- Orbital basis set information -----
Your calculation utilizes the basis: def2-mSVP

----- AuxJ basis set information -----
Your calculation utilizes the auxiliary basis: def2/J
   F. Weigend, Phys. Chem. Chem. Phys. 8, 1057 (2006).

================================================================================
                                        WARNINGS
                       Please study these warnings very carefully!
================================================================================


WARNING: Geometry Optimization
  ===> : Switching off AutoStart
         For restart on a previous wavefunction, please use MOREAD

WARNING: No Hueckel Guess possible with ECP basis!
  ===> : Switching to HCORE guess!

INFO   : the flag for use of the SHARK integral package has been found!

================================================================================
                                       INPUT FILE
================================================================================
NAME = reaction4-IEIP_ts_guess_scan_11-13_orca.inp
|  1> ! Opt PBEh-3c
|  2> %geom Constraints
|  3> { B 0 20 2.1285714285714286 C }
|  4> { B 24 30 1.3142857142857143 C }
|  5>     end
|  6> end
|  7> %output 
|  8> xyzfile=True 
|  9> end 
| 10> %scf 
| 11> maxiter 250 
| 12> end
| 13> %output
| 14> Print[P_Hirshfeld] = 1
| 15> end
| 16> % maxcore
| 17> 4000
| 18> *xyz 1 1
| 19> Ir   0.60684088  -0.74035967   0.44225897 
| 20> C    0.13070079  -2.84886420   0.36108471 
| 21> C   -0.10458635  -2.38811559   1.70535387 
| 22> C    2.13514111  -2.07620608   1.21385930 
| 23> C    1.50148837  -2.66871458   0.06870089 
| 24> C    1.13597375  -1.93484100   2.21543178 
| 25> N   -1.06760495   0.10613545  -0.50615582 
| 26> C   -2.34684165   0.29423358   0.19616211 
| 27> C   -3.13765033   1.50401871  -0.28171392 
| 28> H   -3.97281839   1.66874246   0.39721331 
| 29> H   -3.56651042   1.36628438  -1.27517823 
| 30> H   -2.53303721   2.41124343  -0.28314284 
| 31> C   -3.17115325  -0.98438959   0.09677943 
| 32> H   -2.07656160   0.45934362   1.24025164 
| 33> H   -4.08289701  -0.88636285   0.68473924 
| 34> H   -3.45992118  -1.18589244  -0.93558898 
| 35> H   -2.63014020  -1.85126816   0.47270708 
| 36> C   -0.91390527   0.46519529  -1.72807971 
| 37> C    0.40181903   0.30793362  -2.26926269 
| 38> H   -1.72748120   0.89125172  -2.30663851 
| 39> C    1.45111918   0.06991824  -1.38687900 
| 40> C    2.65708097  -0.15369192  -2.11376533 
| 41> S    0.87394791   0.29325407  -3.90234052 
| 42> C    2.49026169  -0.05521605  -3.46351567 
| 43> H    1.65390611   1.16413808  -0.60792360 
| 44> H    3.62040194  -0.32312610  -1.65487312 
| 45> H    3.24411228  -0.15220892  -4.23005385 
| 46> H   -0.60207011  -3.28374917  -0.30283175 
| 47> H   -1.03523335  -2.43302482   2.25009101 
| 48> H    1.28522657  -1.48602647   3.18739589 
| 49> O    1.76999234   2.27620574   0.10966370 
| 50> O    0.57216745   1.03433532   1.51461458 
| 51> C    1.15712529   2.10907614   1.18834942 
| 52> C    1.13041604   3.23844301   2.17340782 
| 53> H    1.00525514   4.19004664   1.66149131 
| 54> H    2.08934843   3.27696414   2.69301601 
| 55> H    0.34595719   3.10499226   2.91262351 
| 56> H    3.18486096  -1.85324114   1.32571890 
| 57> H    1.98463895  -2.92726722  -0.86223093 
| 58> *
| 59> 
| 60>                          ****END OF INPUT****
================================================================================

                       *****************************
                       * Geometry Optimization Run *
                       *****************************

Geometry optimization settings:
Update method            Update   .... BFGS
Choice of coordinates    CoordSys .... Z-matrix Internals
Initial Hessian          InHess   .... Almoef's Model

Convergence Tolerances:
Energy Change            TolE     ....  5.0000e-06 Eh
Max. Gradient            TolMAXG  ....  3.0000e-04 Eh/bohr
RMS Gradient             TolRMSG  ....  1.0000e-04 Eh/bohr
Max. Displacement        TolMAXD  ....  4.0000e-03 bohr
RMS Displacement         TolRMSD  ....  2.0000e-03 bohr
Strict Convergence                ....  False
------------------------------------------------------------------------------
                        ORCA OPTIMIZATION COORDINATE SETUP
------------------------------------------------------------------------------

The optimization will be done in new redundant internal coordinates
Making redundant internal coordinates   ...  (new redundants) done
Evaluating the initial hessian          ...  (Almloef) done
Evaluating the coordinates              ...  done
Calculating the B-matrix                .... done
Calculating the G-matrix                .... done
Diagonalizing the G-matrix              .... done
Imposing constraints:
 Iter   0:  RMS(Cart)=    0.0165006731 RMS(Int)=    0.0109509600
 Iter   1:  RMS(Cart)=    0.0030404925 RMS(Int)=    0.0021622103
 Iter   2:  RMS(Cart)=    0.0005997287 RMS(Int)=    0.0004308193
 Iter   3:  RMS(Cart)=    0.0001193938 RMS(Int)=    0.0000859489
 Iter   4:  RMS(Cart)=    0.0000238117 RMS(Int)=    0.0000171512
 Iter   5:  RMS(Cart)=    0.0000047512 RMS(Int)=    0.0000034228
 Iter   6:  RMS(Cart)=    0.0000009481 RMS(Int)=    0.0000006831
 Iter   7:  RMS(Cart)=    0.0000001892 RMS(Int)=    0.0000001363
 Iter   8:  RMS(Cart)=    0.0000000378 RMS(Int)=    0.0000000272
CONVERGED
Small eigenvalue found = 1.441e-02
Small eigenvalue found = 2.362e-02
The first mode is                       ....  288
The number of degrees of freedom        ....  111
Storing new coordinates                 .... done

    -----------------------------------------------------------------
                    Redundant Internal Coordinates


    -----------------------------------------------------------------
         Definition                    Initial Value    Approx d2E/dq
    -----------------------------------------------------------------
      1. B(C   1,Ir  0)                  2.1627         0.084962   
      2. B(C   2,Ir  0)                  2.1942         0.075660   
      3. B(C   2,C   1)                  1.4406         0.519221   
      4. B(C   3,Ir  0)                  2.1711         0.082376   
      5. B(C   4,C   3)                  1.4364         0.526390   
      6. B(C   4,Ir  0)                  2.1581         0.086463   
      7. B(C   4,C   1)                  1.4139         0.573852   
      8. B(C   5,Ir  0)                  2.2018         0.073525   
      9. B(C   5,C   2)                  1.4172         0.568197   
     10. B(C   5,C   3)                  1.4233         0.555944   
     11. B(N   6,Ir  0)                  2.1026         0.095135   
     12. B(C   7,N   6)                  1.4714         0.414930   
     13. B(C   8,C   7)                  1.5223         0.384327   
     14. B(H   9,C   8)                  1.0889         0.361632   
     15. B(H  10,C   8)                  1.0908         0.359032   
     16. B(H  11,C   8)                  1.0902         0.359787   
     17. B(C  12,C   7)                  1.5245         0.381134   
     18. B(H  13,C   7)                  1.0911         0.358686   
     19. B(H  14,C  12)                  1.0893         0.361022   
     20. B(H  15,C  12)                  1.0908         0.359085   
     21. B(H  16,C  12)                  1.0888         0.361685   
     22. B(C  17,N   6)                  1.2769         0.829589   
     23. B(C  18,C  17)                  1.4258         0.536759   
     24. B(H  19,C  17)                  1.0854         0.366195   
     25. B(C  20,Ir  0)                  2.1286         0.082408 C 
     26. B(C  20,C  18)                  1.3925         0.621354   
     27. B(C  21,C  20)                  1.4263         0.547939   
     28. B(S  22,C  18)                  1.7000         0.539375   
     29. B(C  23,C  21)                  1.3634         0.688476   
     30. B(C  23,S  22)                  1.7101         0.518635   
     31. B(H  24,C  20)                  1.3584         0.134348   
     32. B(H  25,C  21)                  1.0804         0.373018   
     33. B(H  26,C  23)                  1.0795         0.374288   
     34. B(H  27,C   1)                  1.0802         0.373281   
     35. B(H  28,C   2)                  1.0793         0.374555   
     36. B(H  29,C   5)                  1.0809         0.372291   
     37. B(O  30,H  24)                  1.3143         0.134256 C 
     38. B(O  31,Ir  0)                  2.0740         0.105645   
     39. B(C  32,O  30)                  1.2485         0.929613   
     40. B(C  32,O  31)                  1.2636         0.881291   
     41. B(C  33,C  32)                  1.4988         0.418881   
     42. B(H  34,C  33)                  1.0878         0.363044   
     43. B(H  35,C  33)                  1.0913         0.358329   
     44. B(H  36,C  33)                  1.0861         0.365289   
     45. B(H  37,C   3)                  1.0790         0.375016   
     46. B(H  38,C   4)                  1.0802         0.373246   
     47. A(C   3,Ir  0,C  20)          104.6085         0.244564   
     48. A(C   2,Ir  0,N   6)          107.5659         0.245513   
     49. A(C   5,Ir  0,C  20)          141.7963         0.240613   
     50. A(C   2,Ir  0,C   5)           37.6136         0.237709   
     51. A(N   6,Ir  0,O  31)           82.8531         0.256589   
     52. A(N   6,Ir  0,C  20)           77.4567         0.248568   
     53. A(C   4,Ir  0,C   5)           63.6347         0.242270   
     54. A(C   1,Ir  0,C   4)           38.2025         0.247369   
     55. A(C   5,Ir  0,O  31)           92.9024         0.248234   
     56. A(C   3,Ir  0,C   4)           38.7551         0.246265   
     57. A(C   1,Ir  0,O  31)          148.1458         0.253531   
     58. A(C   1,Ir  0,N   6)          101.4803         0.249674   
     59. A(C   4,Ir  0,N   6)          127.7061         0.250313   
     60. A(C   2,Ir  0,C   3)           64.0865         0.241585   
     61. A(C   3,Ir  0,O  31)          110.7565         0.252384   
     62. A(C   1,Ir  0,C   2)           38.6071         0.242656   
     63. A(C   4,Ir  0,C  20)           91.3524         0.246278   
     64. A(C   2,Ir  0,C  20)          152.9017         0.241599   
     65. A(C   1,Ir  0,C  20)          114.5861         0.245656   
     66. A(C   1,Ir  0,C   3)           64.4841         0.245643   
     67. A(C   1,Ir  0,C   5)           63.5869         0.241664   
     68. A(C   2,Ir  0,O  31)          109.7793         0.249269   
     69. A(C   5,Ir  0,N   6)          140.5337         0.244502   
     70. A(C   2,Ir  0,C   4)           64.1487         0.243267   
     71. A(C   4,Ir  0,O  31)          149.4291         0.254184   
     72. A(C   3,Ir  0,C   5)           37.9804         0.240600   
     73. A(C   3,Ir  0,N   6)          165.5647         0.248555   
     74. A(C  20,Ir  0,O  31)           97.2097         0.252398   
     75. A(C   2,C   1,H  27)          126.2540         0.344594   
     76. A(C   4,C   1,H  27)          125.5933         0.350448   
     77. A(Ir  0,C   1,C   2)           71.8780         0.313124   
     78. A(Ir  0,C   1,H  27)          124.4045         0.268892   
     79. A(C   2,C   1,C   4)          108.1316         0.414733   
     80. A(Ir  0,C   1,C   4)           70.7196         0.318257   
     81. A(Ir  0,C   2,C   1)           69.5149         0.307319   
     82. A(C   1,C   2,C   5)          107.1642         0.414004   
     83. A(Ir  0,C   2,H  28)          126.9735         0.264367   
     84. A(C   5,C   2,H  28)          125.9714         0.350064   
     85. A(Ir  0,C   2,C   5)           71.4831         0.311818   
     86. A(C   1,C   2,H  28)          126.7667         0.344791   
     87. A(C   4,C   3,H  37)          126.6426         0.345658   
     88. A(C   5,C   3,H  37)          126.1861         0.348851   
     89. A(C   4,C   3,C   5)          107.0044         0.413410   
     90. A(Ir  0,C   3,C   4)           70.1314         0.312254   
     91. A(Ir  0,C   3,C   5)           72.1777         0.315031   
     92. A(Ir  0,C   3,H  37)          126.4887         0.267825   
     93. A(Ir  0,C   4,C   1)           71.0779         0.319167   
     94. A(C   3,C   4,H  38)          126.0125         0.345383   
     95. A(Ir  0,C   4,C   3)           71.1134         0.314713   
     96. A(Ir  0,C   4,H  38)          123.2746         0.269602   
     97. A(C   1,C   4,H  38)          125.5698         0.350442   
     98. A(C   1,C   4,C   3)          108.4160         0.415746   
     99. A(Ir  0,C   5,H  29)          122.1432         0.262995   
    100. A(C   2,C   5,H  29)          125.3099         0.349706   
    101. A(C   3,C   5,H  29)          125.2970         0.348422   
    102. A(Ir  0,C   5,C   3)           69.8418         0.309289   
    103. A(C   2,C   5,C   3)          109.2562         0.419070   
    104. A(Ir  0,C   5,C   2)           70.9033         0.310379   
    105. A(Ir  0,N   6,C  17)          116.4277         0.340745   
    106. A(C   7,N   6,C  17)          121.5989         0.420035   
    107. A(Ir  0,N   6,C   7)          121.9694         0.304208   
    108. A(C   8,C   7,H  13)          107.9889         0.325624   
    109. A(C  12,C   7,H  13)          108.8587         0.325178   
    110. A(N   6,C   7,C   8)          113.7906         0.369433   
    111. A(N   6,C   7,C  12)          109.3748         0.368903   
    112. A(C   8,C   7,C  12)          111.4184         0.366374   
    113. A(N   6,C   7,H  13)          105.1136         0.327782   
    114. A(C   7,C   8,H   9)          108.8414         0.326063   
    115. A(C   7,C   8,H  10)          112.9424         0.325676   
    116. A(H   9,C   8,H  10)          106.5844         0.290898   
    117. A(C   7,C   8,H  11)          111.9398         0.325788   
    118. A(H   9,C   8,H  11)          107.4756         0.290994   
    119. A(H  10,C   8,H  11)          108.7784         0.290664   
    120. A(C   7,C  12,H  14)          109.9927         0.325525   
    121. A(C   7,C  12,H  15)          111.0861         0.325237   
    122. A(H  14,C  12,H  15)          107.8122         0.290827   
    123. A(C   7,C  12,H  16)          112.1215         0.325623   
    124. A(H  14,C  12,H  16)          107.5285         0.291157   
    125. A(H  15,C  12,H  16)          108.1345         0.290911   
    126. A(N   6,C  17,C  18)          115.3767         0.442808   
    127. A(N   6,C  17,H  19)          122.2012         0.369634   
    128. A(C  18,C  17,H  19)          122.3993         0.345409   
    129. A(C  17,C  18,S  22)          128.1615         0.435341   
    130. A(C  20,C  18,S  22)          113.5666         0.447005   
    131. A(C  17,C  18,C  20)          118.1914         0.423153   
    132. A(C  18,C  20,C  21)          109.7779         0.424716   
    133. A(Ir  0,C  20,H  24)           83.2037         0.230762   
    134. A(C  18,C  20,H  24)          109.7616         0.300229   
    135. A(C  21,C  20,H  24)          106.7978         0.294302   
    136. A(Ir  0,C  20,C  18)          108.3249         0.320814   
    137. A(Ir  0,C  20,C  21)          133.9680         0.314310   
    138. A(C  20,C  21,C  23)          113.0573         0.432601   
    139. A(C  20,C  21,H  25)          124.1584         0.347686   
    140. A(C  23,C  21,H  25)          122.6809         0.361406   
    141. A(C  18,S  22,C  23)           90.9959         0.456784   
    142. A(C  21,C  23,S  22)          112.5905         0.452177   
    143. A(C  21,C  23,H  26)          127.6620         0.361615   
    144. A(S  22,C  23,H  26)          119.7352         0.362635   
    145. L(C  20,H  24,O  30,Ir  0, 1) 181.3034         0.216649   
    146. L(C  20,H  24,O  30,Ir  0, 2) 184.8686         0.216649   
    147. A(H  24,O  30,C  32)          107.7134         0.315781   
    148. A(Ir  0,O  31,C  32)          125.6773         0.350339   
    149. A(O  30,C  32,O  31)          123.6916         0.491818   
    150. A(O  30,C  32,C  33)          118.5538         0.432229   
    151. A(O  31,C  32,C  33)          117.7425         0.428107   
    152. A(C  32,C  33,H  34)          110.6053         0.330941   
    153. A(C  32,C  33,H  35)          108.8958         0.330226   
    154. A(H  34,C  33,H  35)          107.1146         0.290986   
    155. A(C  32,C  33,H  36)          111.5675         0.331279   
    156. A(H  34,C  33,H  36)          110.1626         0.291868   
    157. A(H  35,C  33,H  36)          108.3560         0.291268   
    158. D(C   4,C   1,Ir  0,C   5)    -80.1739         0.001699   
    159. D(H  27,C   1,Ir  0,C   5)    159.3098         0.001699   
    160. D(C   4,C   1,Ir  0,C  20)     57.3563         0.001699   
    161. D(C   2,C   1,Ir  0,N   6)   -103.8396         0.001699   
    162. D(C   2,C   1,Ir  0,C   3)     79.7299         0.001699   
    163. D(H  27,C   1,Ir  0,C   3)   -158.2628         0.001699   
    164. D(C   4,C   1,Ir  0,N   6)    138.6841         0.001699   
    165. D(H  27,C   1,Ir  0,O  31)    113.1194         0.001699   
    166. D(C   2,C   1,Ir  0,C   4)    117.4764         0.001699   
    167. D(H  27,C   1,Ir  0,C  20)    -63.1600         0.001699   
    168. D(C   2,C   1,Ir  0,C  20)    174.8326         0.001699   
    169. D(C   4,C   1,Ir  0,C   3)    -37.7465         0.001699   
    170. D(C   4,C   1,Ir  0,C   2)   -117.4764         0.001699   
    171. D(C   2,C   1,Ir  0,C   5)     37.3025         0.001699   
    172. D(H  27,C   1,Ir  0,C   4)   -120.5163         0.001699   
    173. D(C   4,C   1,Ir  0,O  31)   -126.3643         0.001699   
    174. D(H  27,C   1,Ir  0,C   2)    122.0073         0.001699   
    175. D(C   2,C   1,Ir  0,O  31)     -8.8879         0.001699   
    176. D(H  27,C   1,Ir  0,N   6)     18.1678         0.001699   
    177. D(C   1,C   2,Ir  0,C   5)   -117.2166         0.001658   
    178. D(H  28,C   2,C   1,C   4)   -176.7237         0.021393   
    179. D(C   5,C   2,C   1,H  27)    178.2301         0.021393   
    180. D(C   1,C   2,Ir  0,N   6)     86.4523         0.001658   
    181. D(C   1,C   2,Ir  0,C   3)    -80.8488         0.001658   
    182. D(C   1,C   2,Ir  0,C   4)    -37.5676         0.001658   
    183. D(H  28,C   2,C   1,Ir  0)    121.4891         0.021393   
    184. D(C   5,C   2,Ir  0,C  20)    106.8588         0.001658   
    185. D(H  28,C   2,Ir  0,C   1)   -121.2346         0.001658   
    186. D(H  28,C   2,C   1,H  27)      1.6710         0.021393   
    187. D(H  28,C   2,Ir  0,N   6)    -34.7823         0.001658   
    188. D(C   5,C   2,Ir  0,C   3)     36.3678         0.001658   
    189. D(H  28,C   2,Ir  0,C  20)   -131.5923         0.001658   
    190. D(C   5,C   2,C   1,Ir  0)    -61.9518         0.021393   
    191. D(Ir  0,C   2,C   1,H  27)   -119.8181         0.021393   
    192. D(H  28,C   2,Ir  0,C   3)    157.9167         0.001658   
    193. D(C   5,C   2,Ir  0,N   6)   -156.3311         0.001658   
    194. D(C   5,C   2,Ir  0,C   1)    117.2166         0.001658   
    195. D(C   5,C   2,Ir  0,C   4)     79.6490         0.001658   
    196. D(H  28,C   2,Ir  0,O  31)     53.7944         0.001658   
    197. D(C   5,C   2,Ir  0,O  31)    -67.7545         0.001658   
    198. D(H  28,C   2,Ir  0,C   5)    121.5489         0.001658   
    199. D(C   1,C   2,Ir  0,C  20)    -10.3578         0.001658   
    200. D(C   1,C   2,Ir  0,O  31)    175.0290         0.001658   
    201. D(Ir  0,C   2,C   1,C   4)     61.7872         0.021393   
    202. D(C   5,C   2,C   1,C   4)     -0.1646         0.021393   
    203. D(H  28,C   2,Ir  0,C   4)   -158.8021         0.001658   
    204. D(C   4,C   3,Ir  0,C   2)     80.2615         0.001687   
    205. D(H  37,C   3,Ir  0,C   1)    158.6820         0.001687   
    206. D(H  37,C   3,Ir  0,C   5)   -122.2482         0.001687   
    207. D(C   4,C   3,Ir  0,O  31)   -177.1352         0.001687   
    208. D(H  37,C   3,Ir  0,C   2)   -158.2699         0.001687   
    209. D(C   5,C   3,Ir  0,C   1)    -79.0698         0.001687   
    210. D(C   4,C   3,Ir  0,N   6)     23.0465         0.001687   
    211. D(C   5,C   3,Ir  0,O  31)     66.5815         0.001687   
    212. D(H  37,C   3,Ir  0,C   4)    121.4686         0.001687   
    213. D(C   5,C   3,Ir  0,C   4)   -116.2832         0.001687   
    214. D(H  37,C   3,Ir  0,N   6)    144.5151         0.001687   
    215. D(C   4,C   3,Ir  0,C   1)     37.2134         0.001687   
    216. D(C   4,C   3,Ir  0,C  20)    -73.3976         0.001687   
    217. D(C   5,C   3,Ir  0,C   2)    -36.0217         0.001687   
    218. D(C   5,C   3,Ir  0,N   6)    -93.2367         0.001687   
    219. D(C   4,C   3,Ir  0,C   5)    116.2832         0.001687   
    220. D(C   5,C   3,Ir  0,C  20)    170.3192         0.001687   
    221. D(H  37,C   3,Ir  0,C  20)     48.0710         0.001687   
    222. D(H  37,C   3,Ir  0,O  31)    -55.6666         0.001687   
    223. D(C   1,C   4,Ir  0,C  20)   -130.0118         0.001706   
    224. D(C   1,C   4,Ir  0,C   2)     37.9629         0.001706   
    225. D(C   3,C   4,Ir  0,C   2)    -80.0873         0.001706   
    226. D(C   1,C   4,Ir  0,C   5)     80.0380         0.001706   
    227. D(C   1,C   4,Ir  0,N   6)    -54.8643         0.001706   
    228. D(C   3,C   4,Ir  0,C   5)    -38.0122         0.001706   
    229. D(C   3,C   4,Ir  0,C   1)   -118.0502         0.001706   
    230. D(C   1,C   4,Ir  0,O  31)    123.3224         0.001706   
    231. D(C   1,C   4,Ir  0,C   3)    118.0502         0.001706   
    232. D(H  38,C   4,C   1,Ir  0)   -117.8974         0.026363   
    233. D(C   3,C   4,Ir  0,C  20)    111.9380         0.001706   
    234. D(C   3,C   4,Ir  0,O  31)      5.2723         0.001706   
    235. D(Ir  0,C   4,C   1,C   2)    -62.5297         0.026363   
    236. D(H  38,C   4,Ir  0,C   1)    120.7002         0.001706   
    237. D(H  38,C   4,Ir  0,C   3)   -121.2497         0.001706   
    238. D(H  38,C   4,Ir  0,C   5)   -159.2618         0.001706   
    239. D(H  38,C   4,Ir  0,N   6)     65.8359         0.001706   
    240. D(H  38,C   4,Ir  0,C  20)     -9.3116         0.001706   
    241. D(H  38,C   4,Ir  0,C   2)    158.6631         0.001706   
    242. D(Ir  0,C   4,C   1,H  27)    119.0623         0.026363   
    243. D(H  38,C   4,Ir  0,O  31)   -115.9774         0.001706   
    244. D(C   3,C   4,C   1,Ir  0)     61.6536         0.026363   
    245. D(C   3,C   4,C   1,C   2)     -0.8760         0.026363   
    246. D(H  38,C   4,C   1,C   2)    179.5730         0.026363   
    247. D(C   3,C   4,Ir  0,N   6)   -172.9145         0.001706   
    248. D(C   3,C   4,C   1,H  27)   -179.2841         0.026363   
    249. D(Ir  0,C   4,C   3,H  37)   -121.2814         0.022009   
    250. D(Ir  0,C   4,C   3,C   5)     63.2032         0.022009   
    251. D(H  38,C   4,C   3,C   5)   -178.8794         0.022009   
    252. D(C   1,C   4,C   3,C   5)      1.5721         0.022009   
    253. D(C   1,C   4,C   3,H  37)    177.0875         0.022009   
    254. D(H  38,C   4,C   3,Ir  0)    117.9174         0.022009   
    255. D(H  38,C   4,C   1,H  27)      1.1649         0.026363   
    256. D(H  38,C   4,C   3,H  37)     -3.3640         0.022009   
    257. D(C   1,C   4,C   3,Ir  0)    -61.6310         0.022009   
    258. D(H  29,C   5,C   2,H  28)     -6.3226         0.025819   
    259. D(C   2,C   5,Ir  0,C   4)    -81.1374         0.001650   
    260. D(C   2,C   5,Ir  0,C   3)   -119.9252         0.001650   
    261. D(C   3,C   5,C   2,C   1)      1.1580         0.025819   
    262. D(C   2,C   5,Ir  0,C  20)   -135.1799         0.001650   
    263. D(C   2,C   5,Ir  0,O  31)    119.2984         0.001650   
    264. D(H  29,C   5,Ir  0,O  31)     -1.0224         0.001650   
    265. D(C   3,C   5,Ir  0,C   2)    119.9252         0.001650   
    266. D(C   3,C   5,Ir  0,C   4)     38.7878         0.001650   
    267. D(C   3,C   5,Ir  0,N   6)    156.9480         0.001650   
    268. D(C   3,C   5,Ir  0,C  20)    -15.2547         0.001650   
    269. D(C   3,C   5,Ir  0,O  31)   -120.7764         0.001650   
    270. D(H  29,C   5,Ir  0,C   1)   -158.6055         0.001650   
    271. D(H  29,C   5,Ir  0,C   2)   -120.3208         0.001650   
    272. D(H  29,C   5,Ir  0,C   3)    119.7540         0.001650   
    273. D(H  29,C   5,Ir  0,C   4)    158.5418         0.001650   
    274. D(H  29,C   5,Ir  0,N   6)    -83.2980         0.001650   
    275. D(C   3,C   5,Ir  0,C   1)     81.6405         0.001650   
    276. D(H  29,C   5,Ir  0,C  20)    104.4993         0.001650   
    277. D(Ir  0,C   5,C   2,C   1)     60.6778         0.025819   
    278. D(Ir  0,C   5,C   2,H  28)   -122.7280         0.025819   
    279. D(C   2,C   5,Ir  0,N   6)     37.0229         0.001650   
    280. D(C   3,C   5,C   2,Ir  0)    -59.5198         0.025819   
    281. D(H  29,C   5,C   2,Ir  0)    116.4055         0.025819   
    282. D(C   3,C   5,C   2,H  28)    177.7522         0.025819   
    283. D(C   2,C   5,Ir  0,C   1)    -38.2847         0.001650   
    284. D(H  29,C   5,C   2,C   1)    177.0833         0.025819   
    285. D(H  29,C   5,C   3,H  37)      6.8442         0.024663   
    286. D(Ir  0,C   5,C   3,H  37)    122.5987         0.024663   
    287. D(C   2,C   5,C   3,Ir  0)     60.1714         0.024663   
    288. D(C   2,C   5,C   3,C   4)     -1.6882         0.024663   
    289. D(C   2,C   5,C   3,H  37)   -177.2299         0.024663   
    290. D(H  29,C   5,C   3,Ir  0)   -115.7545         0.024663   
    291. D(Ir  0,C   5,C   3,C   4)    -61.8596         0.024663   
    292. D(H  29,C   5,C   3,C   4)   -177.6141         0.024663   
    293. D(C   7,N   6,Ir  0,C   1)     79.3505         0.001768   
    294. D(C   7,N   6,Ir  0,C   2)     39.8939         0.001768   
    295. D(C   7,N   6,Ir  0,C   3)     92.3761         0.001768   
    296. D(C   7,N   6,Ir  0,C   4)    110.4204         0.001768   
    297. D(C   7,N   6,Ir  0,C   5)     17.2205         0.001768   
    298. D(C   7,N   6,Ir  0,C  20)   -167.7105         0.001768   
    299. D(C   7,N   6,Ir  0,O  31)    -68.6503         0.001768   
    300. D(C  17,N   6,Ir  0,C   1)   -101.3655         0.001768   
    301. D(C  17,N   6,Ir  0,C   2)   -140.8222         0.001768   
    302. D(C  17,N   6,Ir  0,C   3)    -88.3400         0.001768   
    303. D(C  17,N   6,Ir  0,C   4)    -70.2957         0.001768   
    304. D(C  17,N   6,Ir  0,C   5)   -163.4955         0.001768   
    305. D(C  17,N   6,Ir  0,C  20)     11.5734         0.001768   
    306. D(C  17,N   6,Ir  0,O  31)    110.6337         0.001768   
    307. D(C   8,C   7,N   6,Ir  0)    148.4857         0.014683   
    308. D(C   8,C   7,N   6,C  17)    -30.7615         0.014683   
    309. D(C  12,C   7,N   6,Ir  0)    -86.1989         0.014683   
    310. D(C  12,C   7,N   6,C  17)     94.5539         0.014683   
    311. D(H  13,C   7,N   6,Ir  0)     30.5377         0.014683   
    312. D(H  13,C   7,N   6,C  17)   -148.7094         0.014683   
    313. D(H   9,C   8,C   7,N   6)   -170.2625         0.011759   
    314. D(H   9,C   8,C   7,C  12)     65.5168         0.011759   
    315. D(H   9,C   8,C   7,H  13)    -53.9836         0.011759   
    316. D(H  10,C   8,C   7,N   6)     71.5777         0.011759   
    317. D(H  10,C   8,C   7,C  12)    -52.6430         0.011759   
    318. D(H  10,C   8,C   7,H  13)   -172.1434         0.011759   
    319. D(H  11,C   8,C   7,N   6)    -51.6080         0.011759   
    320. D(H  11,C   8,C   7,C  12)   -175.8287         0.011759   
    321. D(H  11,C   8,C   7,H  13)     64.6709         0.011759   
    322. D(H  14,C  12,C   7,N   6)    175.1819         0.011574   
    323. D(H  14,C  12,C   7,C   8)    -58.1429         0.011574   
    324. D(H  14,C  12,C   7,H  13)     60.8399         0.011574   
    325. D(H  15,C  12,C   7,N   6)    -65.5325         0.011574   
    326. D(H  15,C  12,C   7,C   8)     61.1427         0.011574   
    327. D(H  15,C  12,C   7,H  13)   -179.8744         0.011574   
    328. D(H  16,C  12,C   7,N   6)     55.5875         0.011574   
    329. D(H  16,C  12,C   7,C   8)   -177.7372         0.011574   
    330. D(H  16,C  12,C   7,H  13)    -58.7544         0.011574   
    331. D(C  18,C  17,N   6,Ir  0)     -3.0045         0.059211   
    332. D(C  18,C  17,N   6,C   7)    176.2823         0.059211   
    333. D(H  19,C  17,N   6,Ir  0)    178.6924         0.059211   
    334. D(H  19,C  17,N   6,C   7)     -2.0208         0.059211   
    335. D(C  20,C  18,C  17,N   6)    -13.7538         0.019679   
    336. D(C  20,C  18,C  17,H  19)    164.5456         0.019679   
    337. D(S  22,C  18,C  17,N   6)    162.7547         0.019679   
    338. D(S  22,C  18,C  17,H  19)    -18.9459         0.019679   
    339. D(C  18,C  20,Ir  0,C   1)     79.9684         0.001687   
    340. D(H  24,C  20,C  18,C  17)    -67.0500         0.029039   
    341. D(C  18,C  20,Ir  0,C   3)    148.2355         0.001687   
    342. D(C  18,C  20,Ir  0,C   4)    111.3610         0.001687   
    343. D(Ir  0,C  20,C  18,C  17)     22.1780         0.029039   
    344. D(C  18,C  20,Ir  0,N   6)    -17.0639         0.001687   
    345. D(C  18,C  20,Ir  0,O  31)    -98.0534         0.001687   
    346. D(H  24,C  20,Ir  0,C   4)   -140.0234         0.001687   
    347. D(C  21,C  20,Ir  0,C   2)    -57.5062         0.001687   
    348. D(C  21,C  20,Ir  0,C   3)      3.6741         0.001687   
    349. D(C  21,C  20,Ir  0,C   4)    -33.2004         0.001687   
    350. D(C  21,C  20,Ir  0,C   5)     13.3064         0.001687   
    351. D(C  21,C  20,Ir  0,N   6)   -161.6253         0.001687   
    352. D(C  21,C  20,Ir  0,O  31)    117.3853         0.001687   
    353. D(H  24,C  20,Ir  0,C   1)   -171.4160         0.001687   
    354. D(H  24,C  20,Ir  0,C   2)   -164.3292         0.001687   
    355. D(C  21,C  20,Ir  0,C   1)    -64.5930         0.001687   
    356. D(H  24,C  20,Ir  0,C   3)   -103.1489         0.001687   
    357. D(H  24,C  20,Ir  0,C   5)    -93.5166         0.001687   
    358. D(H  24,C  20,Ir  0,N   6)     91.5517         0.001687   
    359. D(C  18,C  20,Ir  0,C   5)    157.8678         0.001687   
    360. D(H  24,C  20,Ir  0,O  31)     10.5622         0.001687   
    361. D(Ir  0,C  20,C  18,S  22)   -154.8274         0.029039   
    362. D(C  21,C  20,C  18,C  17)    175.8519         0.029039   
    363. D(C  18,C  20,Ir  0,C   2)     87.0552         0.001687   
    364. D(C  21,C  20,C  18,S  22)     -1.1536         0.029039   
    365. D(H  24,C  20,C  18,S  22)    115.9446         0.029039   
    366. D(C  23,C  21,C  20,Ir  0)    145.2754         0.022282   
    367. D(C  23,C  21,C  20,C  18)      1.0735         0.022282   
    368. D(C  23,C  21,C  20,H  24)   -117.8648         0.022282   
    369. D(H  25,C  21,C  20,Ir  0)    -38.3434         0.022282   
    370. D(H  25,C  21,C  20,C  18)    177.4547         0.022282   
    371. D(H  25,C  21,C  20,H  24)     58.5165         0.022282   
    372. D(C  23,S  22,C  18,C  17)   -175.8995         0.005846   
    373. D(C  23,S  22,C  18,C  20)      0.7434         0.005846   
    374. D(S  22,C  23,C  21,C  20)     -0.5459         0.033292   
    375. D(S  22,C  23,C  21,H  25)   -176.9883         0.033292   
    376. D(H  26,C  23,C  21,C  20)    178.1597         0.033292   
    377. D(H  26,C  23,C  21,H  25)      1.7173         0.033292   
    378. D(C  21,C  23,S  22,C  18)     -0.1020         0.005502   
    379. D(H  26,C  23,S  22,C  18)   -178.9219         0.005502   
    380. D(C  32,O  30,C  20,Ir  0)    -10.0253         0.001502   
    381. D(C  32,O  30,C  20,C  18)     97.2994         0.001502   
    382. D(C  32,O  30,C  20,C  21)   -144.3727         0.001502   
    383. D(C  32,O  31,Ir  0,C   1)    170.7853         0.001813   
    384. D(C  32,O  31,Ir  0,C   2)    164.9050         0.001813   
    385. D(C  32,O  31,Ir  0,C   3)     96.0270         0.001813   
    386. D(C  32,O  31,Ir  0,C   4)     92.5003         0.001813   
    387. D(C  32,O  31,Ir  0,C   5)    130.4588         0.001813   
    388. D(C  32,O  31,Ir  0,N   6)    -88.9455         0.001813   
    389. D(C  32,O  31,Ir  0,C  20)    -12.6245         0.001813   
    390. D(O  31,C  32,O  30,H  24)      1.8812         0.069277   
    391. D(C  33,C  32,O  30,H  24)   -179.4152         0.069277   
    392. D(O  30,C  32,O  31,Ir  0)      5.0230         0.061348   
    393. D(C  33,C  32,O  31,Ir  0)   -173.6904         0.061348   
    394. D(H  34,C  33,C  32,O  30)     39.8616         0.012977   
    395. D(H  34,C  33,C  32,O  31)   -141.3572         0.012977   
    396. D(H  35,C  33,C  32,O  30)    -77.5902         0.012977   
    397. D(H  35,C  33,C  32,O  31)    101.1911         0.012977   
    398. D(H  36,C  33,C  32,O  30)    162.8576         0.012977   
    399. D(H  36,C  33,C  32,O  31)    -18.3612         0.012977   
    -----------------------------------------------------------------

Number of atoms                         .... 39
Number of degrees of freedom            .... 399

         *************************************************************
         *                GEOMETRY OPTIMIZATION CYCLE   1            *
         *************************************************************
---------------------------------
CARTESIAN COORDINATES (ANGSTROEM)
---------------------------------
  Ir     0.609835   -0.734143    0.430912
  C      0.136356   -2.842653    0.344680
  C     -0.097791   -2.385511    1.690603
  C      2.142401   -2.068814    1.194851
  C      1.507061   -2.659522    0.049970
  C      1.144182   -1.931118    2.199978
  N     -1.069814    0.110779   -0.510344
  C     -2.347499    0.295991    0.195573
  C     -3.141543    1.505034   -0.278828
  H     -3.975183    1.667621    0.402497
  H     -3.572807    1.367735   -1.271315
  H     -2.538412    2.413245   -0.280821
  C     -3.169990   -0.983862    0.096911
  H     -2.074725    0.460349    1.239136
  H     -4.080338   -0.887992    0.687395
  H     -3.461162   -1.184656   -0.934923
  H     -2.626570   -1.850288    0.470417
  C     -0.919330    0.469248   -1.726583
  C      0.394970    0.304376   -2.254053
  H     -1.730081    0.896514   -2.308223
  C      1.436269    0.061987   -1.361851
  C      2.645409   -0.168285   -2.082378
  S      0.877720    0.283608   -3.883948
  C      2.488523   -0.072300   -3.433320
  H      1.643118    1.159274   -0.588356
  H      3.605267   -0.340734   -1.617328
  H      3.247277   -0.174546   -4.194371
  H     -0.596894   -3.276902   -0.319125
  H     -1.027633   -2.433176    2.236489
  H      1.294692   -1.484248    3.172647
  O      1.767839    2.267113    0.107692
  O      0.573248    1.036930    1.509592
  C      1.156630    2.109764    1.184903
  C      1.131693    3.242189    2.166504
  H      1.008204    4.192438    1.651660
  H      2.090621    3.280683    2.686121
  H      0.346911    3.112321    2.906023
  H      3.192059   -1.844460    1.304527
  H      1.988857   -2.914802   -0.882574

----------------------------
CARTESIAN COORDINATES (A.U.)
----------------------------
  NO LB      ZA    FRAG     MASS         X           Y           Z
   0 Ir   17.0000*   0   192.220    1.152420   -1.387329    0.814306
   1 C     6.0000    0    12.011    0.257676   -5.371836    0.651350
   2 C     6.0000    0    12.011   -0.184798   -4.507962    3.194777
   3 C     6.0000    0    12.011    4.048552   -3.909491    2.257940
   4 C     6.0000    0    12.011    2.847933   -5.025768    0.094429
   5 C     6.0000    0    12.011    2.162191   -3.649283    4.157356
   6 N     7.0000    0    14.007   -2.021656    0.209343   -0.964410
   7 C     6.0000    0    12.011   -4.436130    0.559342    0.369580
   8 C     6.0000    0    12.011   -5.936656    2.844101   -0.526909
   9 H     1.0000    0     1.008   -7.512008    3.151347    0.760609
  10 H     1.0000    0     1.008   -6.751628    2.584645   -2.402438
  11 H     1.0000    0     1.008   -4.796903    4.560372   -0.530674
  12 C     6.0000    0    12.011   -5.990414   -1.859229    0.183136
  13 H     1.0000    0     1.008   -3.920663    0.869933    2.341629
  14 H     1.0000    0     1.008   -7.710722   -1.678062    1.298989
  15 H     1.0000    0     1.008   -6.540647   -2.238675   -1.766749
  16 H     1.0000    0     1.008   -4.963498   -3.496538    0.888960
  17 C     6.0000    0    12.011   -1.737282    0.886751   -3.262769
  18 C     6.0000    0    12.011    0.746386    0.575188   -4.259543
  19 H     1.0000    0     1.008   -3.269380    1.694167   -4.361909
  20 C     6.0000    0    12.011    2.714154    0.117138   -2.573526
  21 C     6.0000    0    12.011    4.999099   -0.318012   -3.935125
  22 S    16.0000    0    32.060    1.658651    0.535942   -7.339599
  23 C     6.0000    0    12.011    4.702628   -0.136628   -6.488035
  24 H     1.0000    0     1.008    3.105043    2.190710   -1.111833
  25 H     1.0000    0     1.008    6.812966   -0.643893   -3.056307
  26 H     1.0000    0     1.008    6.136465   -0.329844   -7.926213
  27 H     1.0000    0     1.008   -1.127966   -6.192447   -0.603058
  28 H     1.0000    0     1.008   -1.941944   -4.598036    4.226352
  29 H     1.0000    0     1.008    2.446612   -2.804822    5.995435
  30 O     8.0000    0    15.999    3.340732    4.284223    0.203508
  31 O     8.0000    0    15.999    1.083281    1.959513    2.852715
  32 C     6.0000    0    12.011    2.185714    3.986876    2.239142
  33 C     6.0000    0    12.011    2.138590    6.126849    4.094098
  34 H     1.0000    0     1.008    1.905229    7.922559    3.121185
  35 H     1.0000    0     1.008    3.950702    6.199593    5.076034
  36 H     1.0000    0     1.008    0.655567    5.881434    5.491588
  37 H     1.0000    0     1.008    6.032117   -3.485525    2.465200
  38 H     1.0000    0     1.008    3.758396   -5.508177   -1.667824
* core charge reduced due to ECP

--------------------------------
INTERNAL COORDINATES (ANGSTROEM)
--------------------------------
 Ir     0   0   0     0.000000000000     0.00000000     0.00000000
 C      1   0   0     2.163120430957     0.00000000     0.00000000
 C      2   1   0     1.440384981313    71.88842534     0.00000000
 C      1   2   3     2.171532706036    64.44478170    79.65529905
 C      2   1   3     1.413152777751    70.73025776   242.56629863
 C      3   2   1     1.415848399343   107.18772555   298.02137774
 N      1   2   3     2.102335234847   101.55059339   256.05785441
 C      7   1   2     1.471420373631   121.91018605    79.28080138
 C      8   7   1     1.522275904421   113.79062506   148.47923649
 H      9   8   7     1.088844243174   108.84138321   189.73758504
 H      9   8   7     1.090808442257   112.94215921    71.57784667
 H      9   8   7     1.090236561150   111.93984648   308.39192873
 C      8   7   1     1.524547061208   109.37466851   273.79463689
 H      8   7   1     1.091070839768   105.11358046    30.53153146
 H     13   8   7     1.089303751866   109.99256863   175.18188140
 H     13   8   7     1.090768009212   111.08641139   294.46756049
 H     13   8   7     1.088804469788   112.12159702    55.58757934
 C      7   1   2     1.282827172025   116.55000040   258.55158784
 C     18   7   1     1.431342266652   116.07372248   356.81381798
 H     18   7   1     1.085430863979   121.85541973   178.61520639
 C     19  18   7     1.391503899486   118.17719714   346.24964957
 C     21  19  18     1.425731068377   109.96031560   175.81771213
 S     19  18   7     1.700018931470   128.27540183   162.80006033
 C     22  21  19     1.363580635490   112.94548907     1.15973490
 H     21  19  18     1.358385480053   109.78063159   293.28477028
 H     22  21  19     1.080406077821   124.21068059   177.54883271
 H     24  22  21     1.079480944840   127.65986601   178.14938435
 H      2   1   3     1.080214420788   124.38901745   122.03085429
 H      3   2   1     1.079286444482   126.76851672   121.47244140
 H      6   3   2     1.080937147916   125.29965622   177.09054701
 O     25  21  19     1.328571423121   175.58453903     4.71953140
 O      1   2   3     2.073810769713   148.19890878   351.12064349
 C     31  25  21     1.251839129722   108.11241131    92.76845890
 C     33  31  25     1.498840539384   118.32261065   180.57931165
 H     34  33  31     1.087783633233   110.60515413    39.81161085
 H     34  33  31     1.091342236497   108.89590048   282.35974127
 H     34  33  31     1.086105255655   111.56739728   162.80733122
 H      4   1   2     1.078952129645   126.47242150   158.69709310
 H      5   2   1     1.080239790090   125.56639357   242.11373979

---------------------------
INTERNAL COORDINATES (A.U.)
---------------------------
 Ir     0   0   0     0.000000000000     0.00000000     0.00000000
 C      1   0   0     4.087705209198     0.00000000     0.00000000
 C      2   1   0     2.721933142096    71.88842534     0.00000000
 C      1   2   3     4.103602105261    64.44478170    79.65529905
 C      2   1   3     2.670471735340    70.73025776   242.56629863
 C      3   2   1     2.675565721909   107.18772555   298.02137774
 N      1   2   3     3.972837835554   101.55059339   256.05785441
 C      7   1   2     2.780581534034   121.91018605    79.28080138
 C      8   7   1     2.876684559623   113.79062506   148.47923649
 H      9   8   7     2.057617422096   108.84138321   189.73758504
 H      9   8   7     2.061329220435   112.94215921    71.57784667
 H      9   8   7     2.060248521761   111.93984648   308.39192873
 C      8   7   1     2.880976423958   109.37466851   273.79463689
 H      8   7   1     2.061825079869   105.11358046    30.53153146
 H     13   8   7     2.058485767680   109.99256863   175.18188140
 H     13   8   7     2.061252813053   111.08641139   294.46756049
 H     13   8   7     2.057542261288   112.12159702    55.58757934
 C      7   1   2     2.424192032280   116.55000040   258.55158784
 C     18   7   1     2.704844887878   116.07372248   356.81381798
 H     18   7   1     2.051167070225   121.85541973   178.61520639
 C     19  18   7     2.629561284312   118.17719714   346.24964957
 C     21  19  18     2.694241259856   109.96031560   175.81771213
 S     19  18   7     3.212570202959   128.27540183   162.80006033
 C     22  21  19     2.576793962594   112.94548907     1.15973490
 H     21  19  18     2.566976541594   109.78063159   293.28477028
 H     22  21  19     2.041671600506   124.21068059   177.54883271
 H     24  22  21     2.039923352533   127.65986601   178.14938435
 H      2   1   3     2.041309421201   124.38901745   122.03085429
 H      3   2   1     2.039555800125   126.76851672   121.47244140
 H      6   3   2     2.042675177544   125.29965622   177.09054701
 O     25  21  19     2.510636139053   175.58453903     4.71953140
 O      1   2   3     3.918934408334   148.19890878   351.12064349
 C     31  25  21     2.365633118901   108.11241131    92.76845890
 C     33  31  25     2.832398137854   118.32261065   180.57931165
 H     34  33  31     2.055613159771   110.60515413    39.81161085
 H     34  33  31     2.062337945361   108.89590048   282.35974127
 H     34  33  31     2.052441485800   111.56739728   162.80733122
 H      4   1   2     2.038924036640   126.47242150   158.69709310
 H      5   2   1     2.041357362235   125.56639357   242.11373979

---------------------
BASIS SET INFORMATION
---------------------
There are 6 groups of distinct atoms

 Group   1 Type Ir  : 7s6p5d1f contracted to 6s3p2d1f pattern {211111/411/41/1}
 Group   2 Type C   : 8s4p1d contracted to 4s2p1d pattern {5111/31/1}
 Group   3 Type N   : 8s4p1d contracted to 4s2p1d pattern {5111/31/1}
 Group   4 Type H   : 4s contracted to 2s pattern {31}
 Group   5 Type S   : 10s7p1d contracted to 4s3p1d pattern {5311/511/1}
 Group   6 Type O   : 8s4p1d contracted to 4s2p1d pattern {5111/31/1}

Atom   0Ir   basis set group =>   1
Atom   1C    basis set group =>   2
Atom   2C    basis set group =>   2
Atom   3C    basis set group =>   2
Atom   4C    basis set group =>   2
Atom   5C    basis set group =>   2
Atom   6N    basis set group =>   3
Atom   7C    basis set group =>   2
Atom   8C    basis set group =>   2
Atom   9H    basis set group =>   4
Atom  10H    basis set group =>   4
Atom  11H    basis set group =>   4
Atom  12C    basis set group =>   2
Atom  13H    basis set group =>   4
Atom  14H    basis set group =>   4
Atom  15H    basis set group =>   4
Atom  16H    basis set group =>   4
Atom  17C    basis set group =>   2
Atom  18C    basis set group =>   2
Atom  19H    basis set group =>   4
Atom  20C    basis set group =>   2
Atom  21C    basis set group =>   2
Atom  22S    basis set group =>   5
Atom  23C    basis set group =>   2
Atom  24H    basis set group =>   4
Atom  25H    basis set group =>   4
Atom  26H    basis set group =>   4
Atom  27H    basis set group =>   4
Atom  28H    basis set group =>   4
Atom  29H    basis set group =>   4
Atom  30O    basis set group =>   6
Atom  31O    basis set group =>   6
Atom  32C    basis set group =>   2
Atom  33C    basis set group =>   2
Atom  34H    basis set group =>   4
Atom  35H    basis set group =>   4
Atom  36H    basis set group =>   4
Atom  37H    basis set group =>   4
Atom  38H    basis set group =>   4
---------------------------------
AUXILIARY/J BASIS SET INFORMATION
---------------------------------
There are 6 groups of distinct atoms

 Group   1 Type Ir  : 11s5p5d3f3g contracted to 8s5p5d2f3g pattern {41111111/11111/11111/21/111}
 Group   2 Type C   : 12s5p4d2f1g contracted to 6s4p3d1f1g pattern {711111/2111/211/2/1}
 Group   3 Type N   : 12s5p4d2f1g contracted to 6s4p3d1f1g pattern {711111/2111/211/2/1}
 Group   4 Type H   : 5s2p1d contracted to 3s1p1d pattern {311/2/1}
 Group   5 Type S   : 14s5p5d2f1g contracted to 8s4p3d1f1g pattern {71111111/2111/311/2/1}
 Group   6 Type O   : 12s5p4d2f1g contracted to 6s4p3d1f1g pattern {711111/2111/211/2/1}

Atom   0Ir   basis set group =>   1
Atom   1C    basis set group =>   2
Atom   2C    basis set group =>   2
Atom   3C    basis set group =>   2
Atom   4C    basis set group =>   2
Atom   5C    basis set group =>   2
Atom   6N    basis set group =>   3
Atom   7C    basis set group =>   2
Atom   8C    basis set group =>   2
Atom   9H    basis set group =>   4
Atom  10H    basis set group =>   4
Atom  11H    basis set group =>   4
Atom  12C    basis set group =>   2
Atom  13H    basis set group =>   4
Atom  14H    basis set group =>   4
Atom  15H    basis set group =>   4
Atom  16H    basis set group =>   4
Atom  17C    basis set group =>   2
Atom  18C    basis set group =>   2
Atom  19H    basis set group =>   4
Atom  20C    basis set group =>   2
Atom  21C    basis set group =>   2
Atom  22S    basis set group =>   5
Atom  23C    basis set group =>   2
Atom  24H    basis set group =>   4
Atom  25H    basis set group =>   4
Atom  26H    basis set group =>   4
Atom  27H    basis set group =>   4
Atom  28H    basis set group =>   4
Atom  29H    basis set group =>   4
Atom  30O    basis set group =>   6
Atom  31O    basis set group =>   6
Atom  32C    basis set group =>   2
Atom  33C    basis set group =>   2
Atom  34H    basis set group =>   4
Atom  35H    basis set group =>   4
Atom  36H    basis set group =>   4
Atom  37H    basis set group =>   4
Atom  38H    basis set group =>   4
-------------------------
ECP PARAMETER INFORMATION
-------------------------

 Group 1, Type Ir ECP Def2-ECP (replacing 60 core electrons, lmax=3)

Atom   0Ir   ECP group =>   1

------------------------------------------------------------------------------
                           ORCA GTO INTEGRAL CALCULATION
                           -- RI-GTO INTEGRALS CHOSEN --
------------------------------------------------------------------------------
------------------------------------------------------------------------------
                   ___                                                        
                  /   \      - P O W E R E D   B Y -                         
                 /     \                                                     
                 |  |  |   _    _      __       _____    __    __             
                 |  |  |  | |  | |    /  \     |  _  \  |  |  /  |          
                  \  \/   | |  | |   /    \    | | | |  |  | /  /          
                 / \  \   | |__| |  /  /\  \   | |_| |  |  |/  /          
                |  |  |   |  __  | /  /__\  \  |    /   |      \           
                |  |  |   | |  | | |   __   |  |    \   |  |\   \          
                \     /   | |  | | |  |  |  |  | |\  \  |  | \   \       
                 \___/    |_|  |_| |__|  |__|  |_| \__\ |__|  \__/        
                                                                              
                      - O R C A' S   B I G   F R I E N D -                    
                                      &                                       
                       - I N T E G R A L  F E E D E R -                       
                                                                              
 v1 FN, 2020, v2 2021                                                         
------------------------------------------------------------------------------


Reading SHARK input file reaction4-IEIP_ts_guess_scan_11-13_orca.SHARKINP.tmp ... ok
----------------------
SHARK INTEGRAL PACKAGE
----------------------

Number of atoms                             ...     39
Number of basis functions                   ...    358
Number of shells                            ...    184
Maximum angular momentum                    ...      3
Integral batch strategy                     ... SHARK/LIBINT Hybrid
RI-J (if used) integral strategy            ... SPLIT-RIJ (Revised 2003 algorithm where possible)
Printlevel                                  ...      1
Contraction scheme used                     ... SEGMENTED contraction
Coulomb Range Separation                    ... NOT USED
Exchange Range Separation                   ... NOT USED
Finite Nucleus Model                        ... NOT USED
Auxiliary Coulomb fitting basis             ... AVAILABLE
   # of basis functions in Aux-J            ...   1231
   # of shells in Aux-J                     ...    405
   Maximum angular momentum in Aux-J        ...      4
Auxiliary J/K fitting basis                 ... NOT available
Auxiliary Correlation fitting basis         ... NOT available
Auxiliary 'external' fitting basis          ... NOT available
Integral threshold                          ...     2.500000e-11
Primitive cut-off                           ...     2.500000e-12
Primitive pair pre-selection threshold      ...     2.500000e-12

Calculating pre-screening integrals         ... done (  0.1 sec) Dimension = 184
Organizing shell pair data                  ... done (  0.1 sec)
Shell pair information
Total number of shell pairs                 ...     17020
Shell pairs after pre-screening             ...     12974
Total number of primitive shell pairs       ...     60705
Primitive shell pairs kept                  ...     29190
          la=0 lb=0:   4971 shell pairs
          la=1 lb=0:   4262 shell pairs
          la=1 lb=1:    860 shell pairs
          la=2 lb=0:   1748 shell pairs
          la=2 lb=1:    785 shell pairs
          la=2 lb=2:    174 shell pairs
          la=3 lb=0:    111 shell pairs
          la=3 lb=1:     41 shell pairs
          la=3 lb=2:     21 shell pairs
          la=3 lb=3:      1 shell pairs

Calculating one electron integrals          ... done (  0.1 sec)
Calculating ECP integrals                   ... done (  0.9 sec)
Calculating RI/J V-Matrix + Cholesky decomp.... done (  0.1 sec)
Calculating Nuclear repulsion               ... done (  0.0 sec) ENN=   2034.389117563823 Eh

SHARK setup successfully completed in   1.5 seconds

Maximum memory used throughout the entire GTOINT-calculation: 90.6 MB
-------------------------------------------------------------------------------
                                 ORCA SCF
-------------------------------------------------------------------------------

------------
SCF SETTINGS
------------
Hamiltonian:
 Density Functional     Method          .... DFT(GTOs)
 Exchange Functional    Exchange        .... PBE
   PBE kappa parameter   XKappa         ....  1.024500
   PBE mue parameter    XMuePBE         ....  0.123457
 Correlation Functional Correlation     .... PBE
   PBE beta parameter  CBetaPBE         ....  0.030000
 LDA part of GGA corr.  LDAOpt          .... PW91-LDA
 Gradients option       PostSCFGGA      .... off
 Hybrid DFT is turned on
   Fraction HF Exchange ScalHFX         ....  0.420000
   Scaling of DF-GGA-X  ScalDFX         ....  0.580000
   Scaling of DF-GGA-C  ScalDFC         ....  1.000000
   Scaling of DF-LDA-C  ScalLDAC        ....  1.000000
   Perturbative correction              ....  0.000000
   Density functional embedding theory  .... OFF
 RI-approximation to the Coulomb term is turned on
   Number of AuxJ basis functions       .... 1231
   RIJ-ON(X) (HFX calculated with O(N)) .... on
   Number of AuxJ basis functions       .... 1231
   RIJ-COSX (HFX calculated with COS-X)).... on


General Settings:
 Integral files         IntName         .... reaction4-IEIP_ts_guess_scan_11-13_orca
 Hartree-Fock type      HFTyp           .... RHF
 Total Charge           Charge          ....    1
 Multiplicity           Mult            ....    1
 Number of Electrons    NEL             ....  164
 Basis Dimension        Dim             ....  358
 Nuclear Repulsion      ENuc            ....   2034.3891175638 Eh

Convergence Acceleration:
 DIIS                   CNVDIIS         .... on
   Start iteration      DIISMaxIt       ....    12
   Startup error        DIISStart       ....  0.200000
   # of expansion vecs  DIISMaxEq       ....     5
   Bias factor          DIISBfac        ....   1.050
   Max. coefficient     DIISMaxC        ....  10.000
 Trust-Rad. Augm. Hess. CNVTRAH         .... auto
   Auto Start mean grad. ratio tolernc. ....  1.125000
   Auto Start start iteration           ....    20
   Auto Start num. interpolation iter.  ....    10
   Max. Number of Micro iterations      ....    16
   Max. Number of Macro iterations      .... Maxiter - #DIIS iter
   Number of Davidson start vectors     ....     2
   Converg. threshold I  (grad. norm)   ....   1.000e-05
   Converg. threshold II (energy diff.) ....   1.000e-08
   Grad. Scal. Fac. for Micro threshold ....   0.100
   Minimum threshold for Micro iter.    ....   0.010
   NR start threshold (gradient norm)   ....   0.001
   Initial trust radius                 ....   0.400
   Minimum AH scaling param. (alpha)    ....   1.000
   Maximum AH scaling param. (alpha)    .... 1000.000
   Orbital update algorithm             .... Taylor
   White noise on init. David. guess    .... on
   Maximum white noise                  ....   0.010
   Quad. conv. algorithm                .... NR
   COSX micro iterations for RIJONX calc.... off
 SOSCF                  CNVSOSCF        .... off
 Level Shifting         CNVShift        .... on
   Level shift para.    LevelShift      ....    0.2500
   Turn off err/grad.   ShiftErr        ....    0.0010
 Zerner damping         CNVZerner       .... off
 Static damping         CNVDamp         .... on
   Fraction old density DampFac         ....    0.7000
   Max. Damping (<1)    DampMax         ....    0.9800
   Min. Damping (>=0)   DampMin         ....    0.0000
   Turn off err/grad.   DampErr         ....    0.1000
 Fernandez-Rico         CNVRico         .... off

SCF Procedure:
 Maximum # iterations   MaxIter         ....   250
 SCF integral mode      SCFMode         .... Direct
   Integral package                     .... SHARK and LIBINT hybrid scheme
 Reset frequency        DirectResetFreq ....    20
 Integral Threshold     Thresh          ....  2.500e-11 Eh
 Primitive CutOff       TCut            ....  2.500e-12 Eh

Convergence Tolerance:
 Convergence Check Mode ConvCheckMode   .... Total+1el-Energy
 Convergence forced     ConvForced      .... 0
 Energy Change          TolE            ....  1.000e-08 Eh
 1-El. energy change                    ....  1.000e-05 Eh
 DIIS Error             TolErr          ....  5.000e-07


Diagonalization of the overlap matrix:
Smallest eigenvalue                        ... 1.138e-03
Time for diagonalization                   ...    0.019 sec
Threshold for overlap eigenvalues          ... 1.000e-08
Number of eigenvalues below threshold      ... 0
Time for construction of square roots      ...    0.008 sec
Total time needed                          ...    0.028 sec

--------------------
INITIAL GUESS: HCORE
--------------------
                      -----------------
                      INTIAL GUESS DONE 
                      -----------------
-------------------
DFT GRID GENERATION
-------------------

General Integration Accuracy     IntAcc      ... 4.159
Radial Grid Type                 RadialGrid  ... OptM3 with GC (2021)
Angular Grid (max. ang.)         AngularGrid ... 3 (Lebedev-194)
Angular grid pruning method      GridPruning ... 4 (adaptive)
Weight generation scheme         WeightScheme... Becke
Basis function cutoff            BFCut       ... 1.0000e-11
Integration weight cutoff        WCut        ... 1.0000e-14
Angular grids for H and He will be reduced by one unit
Partially contracted basis set               ... off
Rotationally invariant grid construction     ... off

Total number of grid points                  ...    93294
Total number of batches                      ...     1477
Average number of points per batch           ...       63
Average number of grid points per atom       ...     2392
Time for grid setup =    1.776 sec

--------------------
COSX GRID GENERATION
--------------------

GRIDX 1
-------
General Integration Accuracy     IntAcc      ... 3.816
Radial Grid Type                 RadialGrid  ... OptM3 with GC (2021)
Angular Grid (max. ang.)         AngularGrid ... 1 (Lebedev-50)
Angular grid pruning method      GridPruning ... 4 (adaptive)
Weight generation scheme         WeightScheme... Becke
Basis function cutoff            BFCut       ... 1.0000e-11
Integration weight cutoff        WCut        ... 1.0000e-14
Angular grids for H and He will be reduced by one unit
Partially contracted basis set               ... on
Rotationally invariant grid construction     ... off

Total number of grid points                  ...    23208
Total number of batches                      ...      380
Average number of points per batch           ...       61
Average number of grid points per atom       ...      595
UseSFitting                                  ... on

GRIDX 2
-------
General Integration Accuracy     IntAcc      ... 4.020
Radial Grid Type                 RadialGrid  ... OptM3 with GC (2021)
Angular Grid (max. ang.)         AngularGrid ... 2 (Lebedev-110)
Angular grid pruning method      GridPruning ... 4 (adaptive)
Weight generation scheme         WeightScheme... Becke
Basis function cutoff            BFCut       ... 1.0000e-11
Integration weight cutoff        WCut        ... 1.0000e-14
Angular grids for H and He will be reduced by one unit
Partially contracted basis set               ... on
Rotationally invariant grid construction     ... off

Total number of grid points                  ...    50322
Total number of batches                      ...      806
Average number of points per batch           ...       62
Average number of grid points per atom       ...     1290
UseSFitting                                  ... on

GRIDX 3
-------
General Integration Accuracy     IntAcc      ... 4.338
Radial Grid Type                 RadialGrid  ... OptM3 with GC (2021)
Angular Grid (max. ang.)         AngularGrid ... 3 (Lebedev-194)
Angular grid pruning method      GridPruning ... 4 (adaptive)
Weight generation scheme         WeightScheme... Becke
Basis function cutoff            BFCut       ... 1.0000e-11
Integration weight cutoff        WCut        ... 1.0000e-14
Angular grids for H and He will be reduced by one unit
Partially contracted basis set               ... on
Rotationally invariant grid construction     ... off

Total number of grid points                  ...   108775
Total number of batches                      ...     1717
Average number of points per batch           ...       63
Average number of grid points per atom       ...     2789
UseSFitting                                  ... on

Time for X-Grid setup             =    4.949 sec

--------------
SCF ITERATIONS
--------------
ITER       Energy         Delta-E        Max-DP      RMS-DP      [F,P]     Damp
               ***  Starting incremental Fock matrix formation  ***
  0   -843.9506723324   0.00000000000020.09449755  0.14663534  3.3150308 0.7000
  1  -1090.6559381856-246.70526585322410.19595622  0.13432123  1.5117169 0.7000
  2  -1162.5047241538 -71.848785968200 5.35564694  0.07307249  1.0622948 0.7000
  3  -1189.0690660308 -26.564341876984 3.68520715  0.04783957  0.7727303 0.7000
  4  -1209.9601219215 -20.891055890698 2.63352897  0.03862224  0.4896811 0.7000
  5  -1225.5200371958 -15.559915274305 1.93013337  0.03103094  0.3467191 0.7000
  6  -1236.4569280806 -10.936890884784 1.73374966  0.02929501  0.2724889 0.7000
  7  -1243.1320743542  -6.675146273634 1.59431539  0.02578687  0.2707016 0.7000
  8  -1250.6002284012  -7.468154047055 1.64551125  0.02498467  0.2701287 0.7000
  9  -1253.3880171265  -2.787788725232 1.51808532  0.02309820  0.3101677 0.7000
 10  -1257.1639185623  -3.775901435847 1.42456265  0.02276979  0.3041845 0.7000
 11  -1258.1868464458  -1.022927883482 1.42731798  0.02325345  0.3250895 0.7000
                               ***Turning on DIIS***
 12  -1260.5473092807  -2.360462834860 1.39330938  0.02258767  0.3078482 0.7000
 13  -1260.6130647224  -0.065755441724 1.24530409  0.01913050  0.3364784 0.7000
 14  -1268.1638247332  -7.550760010811 0.87156630  0.01366521  0.2608104 0.7000
 15  -1274.5508595895  -6.387034856311 0.61364063  0.00966781  0.1983826 0.7000
 16  -1278.9901291034  -4.439269513872 0.43381252  0.00682897  0.1405253 0.7000
 17  -1281.9785799174  -2.988450814038 1.01978213  0.01606796  0.0948279 0.0000
 18  -1288.4307757713  -6.452195853900 0.04590059  0.00059496  0.0277019 0.0000
 19  -1288.4473690801  -0.016593308787 0.03547960  0.00045070  0.0228450 0.0000
               *** Restarting incremental Fock matrix formation ***
                                   *** Resetting DIIS ***
 20  -1288.4504940119  -0.003124931775 0.04027950  0.00052276  0.0164506 0.0000
 21  -1288.4513709119  -0.000876900043 0.01973566  0.00021434  0.0211793 0.0000
 22  -1288.4537163254  -0.002345413454 0.00320470  0.00007468  0.0032933 0.0000
 23  -1288.4539033847  -0.000187059328 0.00406485  0.00003968  0.0025210 0.0000
 24  -1288.4539530430  -0.000049658274 0.00361478  0.00004003  0.0008594 0.0000
               *** Restarting incremental Fock matrix formation ***
                                   *** Resetting DIIS ***
 25  -1288.4545576085  -0.000604565493 0.00482776  0.00009865  0.0005934 0.0000
 26  -1288.4545771221  -0.000019513600 0.00115407  0.00001376  0.0005909 0.0000
 27  -1288.4545779067  -0.000000784603 0.00071615  0.00000751  0.0006598 0.0000
 28  -1288.4545801413  -0.000002234591 0.00027183  0.00000266  0.0000826 0.0000
 29  -1288.4545802430  -0.000000101769 0.00022725  0.00000182  0.0000723 0.0000
 30  -1288.4545803095  -0.000000066432 0.00011833  0.00000088  0.0000492 0.0000
 31  -1288.4545803326  -0.000000023127 0.00008378  0.00000062  0.0000212 0.0000
 32  -1288.4545803359  -0.000000003283 0.00003037  0.00000026  0.0000104 0.0000
 33  -1288.4545803422  -0.000000006279 0.00001085  0.00000011  0.0000032 0.0000
                 **** Energy Check signals convergence ****

               *****************************************************
               *                     SUCCESS                       *
               *           SCF CONVERGED AFTER  34 CYCLES          *
               *****************************************************

Old exchange energy                            =    -59.647619863 Eh
New exchange energy                            =    -59.647749294 Eh
Exchange energy change after final integration =     -0.000129431 Eh
Total energy after final integration           =  -1288.454709783 Eh
Final COS-X integration done in                =    61.150 sec

----------------
TOTAL SCF ENERGY
----------------

Total Energy       :        -1288.45470978 Eh          -35060.63510 eV

Components:
Nuclear Repulsion  :         2034.38911756 Eh           55358.54226 eV
Electronic Energy  :        -3322.84382735 Eh          -90419.17736 eV
One Electron Energy:        -5824.43051873 Eh         -158490.81193 eV
Two Electron Energy:         2501.58669138 Eh           68071.63457 eV
Max COSX asymmetry :            0.00002665 Eh               0.00073 eV

Virial components:
Potential Energy   :        -2501.49842809 Eh          -68069.23280 eV
Kinetic Energy     :         1213.04371831 Eh           33008.59770 eV
Virial Ratio       :            2.06216675


DFT components:
N(Alpha)           :       82.000319351669 electrons
N(Beta)            :       82.000319351669 electrons
N(Total)           :      164.000638703338 electrons
E(X)               :      -79.587430359301 Eh       
E(C)               :       -7.459861303802 Eh       
E(XC)              :      -87.047291663103 Eh       
DFET-embed. en.    :        0.000000000000 Eh       

---------------
SCF CONVERGENCE
---------------

  Last Energy change         ...   -9.7168e-09  Tolerance :   1.0000e-08
  Last MAX-Density change    ...    0.0000e+00  Tolerance :   1.0000e-07
  Last RMS-Density change    ...    0.0000e+00  Tolerance :   5.0000e-09
  Last DIIS Error            ...    3.5401e-06  Tolerance :   5.0000e-07

             **** THE GBW FILE WAS UPDATED (reaction4-IEIP_ts_guess_scan_11-13_orca.gbw) ****
             **** DENSITY reaction4-IEIP_ts_guess_scan_11-13_orca.scfp WAS UPDATED ****
             **** ENERGY FILE WAS UPDATED (reaction4-IEIP_ts_guess_scan_11-13_orca.en.tmp) ****
             **** THE GBW FILE WAS UPDATED (reaction4-IEIP_ts_guess_scan_11-13_orca.gbw) ****
             **** DENSITY reaction4-IEIP_ts_guess_scan_11-13_orca.scfp WAS UPDATED ****
----------------
ORBITAL ENERGIES
----------------

  NO   OCC          E(Eh)            E(eV) 
   0   2.0000     -89.759609     -2442.4831 
   1   2.0000     -19.639644      -534.4219 
   2   2.0000     -19.631996      -534.2138 
   3   2.0000     -14.830570      -403.5603 
   4   2.0000     -10.702909      -291.2410 
   5   2.0000     -10.651472      -289.8413 
   6   2.0000     -10.625559      -289.1361 
   7   2.0000     -10.623593      -289.0827 
   8   2.0000     -10.622475      -289.0522 
   9   2.0000     -10.619537      -288.9723 
  10   2.0000     -10.614540      -288.8363 
  11   2.0000     -10.612204      -288.7727 
  12   2.0000     -10.611753      -288.7605 
  13   2.0000     -10.607664      -288.6492 
  14   2.0000     -10.587503      -288.1006 
  15   2.0000     -10.585646      -288.0501 
  16   2.0000     -10.552432      -287.1463 
  17   2.0000     -10.549948      -287.0787 
  18   2.0000     -10.548768      -287.0466 
  19   2.0000      -8.399022      -228.5490 
  20   2.0000      -6.288915      -171.1301 
  21   2.0000      -6.285394      -171.0343 
  22   2.0000      -6.283962      -170.9953 
  23   2.0000      -4.020390      -109.4004 
  24   2.0000      -2.337538       -63.6076 
  25   2.0000      -2.306684       -62.7681 
  26   2.0000      -2.303290       -62.6757 
  27   2.0000      -1.335769       -36.3481 
  28   2.0000      -1.235221       -33.6121 
  29   2.0000      -1.206674       -32.8353 
  30   2.0000      -1.159748       -31.5584 
  31   2.0000      -1.124207       -30.5912 
  32   2.0000      -1.023098       -27.8399 
  33   2.0000      -0.972696       -26.4684 
  34   2.0000      -0.966738       -26.3063 
  35   2.0000      -0.965430       -26.2707 
  36   2.0000      -0.956918       -26.0391 
  37   2.0000      -0.944604       -25.7040 
  38   2.0000      -0.899300       -24.4712 
  39   2.0000      -0.869770       -23.6676 
  40   2.0000      -0.796617       -21.6771 
  41   2.0000      -0.780213       -21.2307 
  42   2.0000      -0.776605       -21.1325 
  43   2.0000      -0.775880       -21.1128 
  44   2.0000      -0.767873       -20.8949 
  45   2.0000      -0.760823       -20.7031 
  46   2.0000      -0.742033       -20.1918 
  47   2.0000      -0.722572       -19.6622 
  48   2.0000      -0.696205       -18.9447 
  49   2.0000      -0.684317       -18.6212 
  50   2.0000      -0.666163       -18.1272 
  51   2.0000      -0.663572       -18.0567 
  52   2.0000      -0.651296       -17.7227 
  53   2.0000      -0.638894       -17.3852 
  54   2.0000      -0.630680       -17.1617 
  55   2.0000      -0.627946       -17.0873 
  56   2.0000      -0.620781       -16.8923 
  57   2.0000      -0.608684       -16.5631 
  58   2.0000      -0.597522       -16.2594 
  59   2.0000      -0.596677       -16.2364 
  60   2.0000      -0.595848       -16.2138 
  61   2.0000      -0.590033       -16.0556 
  62   2.0000      -0.577770       -15.7219 
  63   2.0000      -0.572111       -15.5679 
  64   2.0000      -0.564269       -15.3545 
  65   2.0000      -0.561004       -15.2657 
  66   2.0000      -0.558289       -15.1918 
  67   2.0000      -0.545587       -14.8462 
  68   2.0000      -0.542535       -14.7631 
  69   2.0000      -0.535318       -14.5667 
  70   2.0000      -0.529399       -14.4057 
  71   2.0000      -0.518040       -14.0966 
  72   2.0000      -0.512738       -13.9523 
  73   2.0000      -0.504366       -13.7245 
  74   2.0000      -0.498369       -13.5613 
  75   2.0000      -0.486114       -13.2278 
[...]

----------------------
LOEWDIN ATOMIC CHARGES
----------------------
   0 Ir:   -0.263166
   1 C :   -0.062052
   2 C :   -0.097426
   3 C :   -0.100267
   4 C :   -0.037420
   5 C :   -0.018926
   6 N :   -0.008552
   7 C :   -0.069096
   8 C :   -0.361839
   9 H :    0.155619
  10 H :    0.132727
  11 H :    0.142501
  12 C :   -0.344133
  13 H :    0.152777
  14 H :    0.150025
  15 H :    0.138098
  16 H :    0.133031
  17 C :    0.029660
  18 C :   -0.200152
  19 H :    0.159109
  20 C :   -0.216873
  21 C :   -0.135168
  22 S :    0.491333
  23 C :   -0.256395
  24 H :    0.371298
  25 H :    0.160985
  26 H :    0.168769
  27 H :    0.181825
  28 H :    0.178649
  29 H :    0.186696
  30 O :   -0.255312
  31 O :   -0.170368
  32 C :    0.171319
  33 C :   -0.370600
  34 H :    0.166265
  35 H :    0.173766
  36 H :    0.157743
  37 H :    0.181036
  38 H :    0.184512

-------------------------------
LOEWDIN REDUCED ORBITAL CHARGES
-------------------------------
  0 Irs       :     2.452674  s :     2.452674
      pz      :     2.256267  p :     6.779276
      px      :     2.256641
      py      :     2.266368
      dz2     :     1.713173  d :     7.943468
      dxz     :     1.639102
      dyz     :     1.457063
      dx2y2   :     1.603462
      dxy     :     1.530668
      f0      :     0.010216  f :     0.087747
      f+1     :     0.005532
      f-1     :     0.016005
      f+2     :     0.013308
      f-2     :     0.015866
      f+3     :     0.010714
      f-3     :     0.016106
  1 C s       :     2.873075  s :     2.873075
      pz      :     1.053571  p :     3.086065
      px      :     1.072889
      py      :     0.959604
      dz2     :     0.025609  d :     0.102912
      dxz     :     0.025278
      dyz     :     0.016175
      dx2y2   :     0.019126
      dxy     :     0.016723
  2 C s       :     2.875635  s :     2.875635
      pz      :     1.036047  p :     3.123365
      px      :     1.090581
      py      :     0.996736
      dz2     :     0.024055  d :     0.098426
      dxz     :     0.028261
      dyz     :     0.016039
      dx2y2   :     0.017316
      dxy     :     0.012755
  3 C s       :     2.870725  s :     2.870725
      pz      :     1.028521  p :     3.130800
      px      :     1.083218
      py      :     1.019061
      dz2     :     0.021969  d :     0.098743
      dxz     :     0.031080
      dyz     :     0.015402
      dx2y2   :     0.016481
      dxy     :     0.013811
  4 C s       :     2.874414  s :     2.874414
      pz      :     1.078101  p :     3.058113
      px      :     1.044567
      py      :     0.935446
      dz2     :     0.022993  d :     0.104893
      dxz     :     0.028713
      dyz     :     0.013637
      dx2y2   :     0.020128
      dxy     :     0.019423
  5 C s       :     2.881366  s :     2.881366
      pz      :     1.046552  p :     3.033790
      px      :     1.044236
      py      :     0.943002
      dz2     :     0.021220  d :     0.103770
      dxz     :     0.031307
      dyz     :     0.015722
      dx2y2   :     0.015877
      dxy     :     0.019644
  6 N s       :     3.122002  s :     3.122002
      pz      :     1.249633  p :     3.788588
      px      :     1.286926
      py      :     1.252030
      dz2     :     0.029883  d :     0.097962
      dxz     :     0.027046
      dyz     :     0.018094
      dx2y2   :     0.012787
      dxy     :     0.010151
  7 C s       :     2.862217  s :     2.862217
      pz      :     1.056519  p :     3.072163
      px      :     0.938129
      py      :     1.077514
      dz2     :     0.029069  d :     0.134716
      dxz     :     0.028439
      dyz     :     0.012880
      dx2y2   :     0.031116
      dxy     :     0.033211
  8 C s       :     2.953513  s :     2.953513
      pz      :     1.138806  p :     3.340791
      px      :     1.123620
      py      :     1.078365
      dz2     :     0.015319  d :     0.067535
      dxz     :     0.017087
      dyz     :     0.005198
      dx2y2   :     0.010981
      dxy     :     0.018950
  9 H s       :     0.844381  s :     0.844381
 10 H s       :     0.867273  s :     0.867273
 11 H s       :     0.857499  s :     0.857499
 12 C s       :     2.953452  s :     2.953452
      pz      :     1.144940  p :     3.322707
      px      :     1.108926
      py      :     1.068842
      dz2     :     0.015390  d :     0.067973
      dxz     :     0.013824
      dyz     :     0.007933
      dx2y2   :     0.012771
      dxy     :     0.018055
 13 H s       :     0.847223  s :     0.847223
 14 H s       :     0.849975  s :     0.849975
 15 H s       :     0.861902  s :     0.861902
 16 H s       :     0.866969  s :     0.866969
 17 C s       :     2.875838  s :     2.875838
      pz      :     1.004583  p :     2.953998
      px      :     1.064022
      py      :     0.885393
      dz2     :     0.038153  d :     0.140504
      dxz     :     0.047215
      dyz     :     0.026901
      dx2y2   :     0.012862
      dxy     :     0.015373
 18 C s       :     2.889124  s :     2.889124
      pz      :     1.047539  p :     3.198371
      px      :     1.085971
      py      :     1.064860
      dz2     :     0.033669  d :     0.112657
      dxz     :     0.033962
      dyz     :     0.017185
      dx2y2   :     0.015925
      dxy     :     0.011916
 19 H s       :     0.840891  s :     0.840891
 20 C s       :     2.903905  s :     2.903905
      pz      :     1.149615  p :     3.213375
      px      :     1.060305
      py      :     1.003455
      dz2     :     0.014469  d :     0.099594
      dxz     :     0.038404
      dyz     :     0.012764
      dx2y2   :     0.017342
      dxy     :     0.016615
 21 C s       :     2.896014  s :     2.896014
      pz      :     1.074904  p :     3.144356
      px      :     1.085110
      py      :     0.984343
      dz2     :     0.028727  d :     0.094798
      dxz     :     0.031684
      dyz     :     0.014738
      dx2y2   :     0.012212
      dxy     :     0.007437
 22 S s       :     5.499184  s :     5.499184
      pz      :     3.256235  p :     9.853943
      px      :     3.082378
      py      :     3.515330
      dz2     :     0.049191  d :     0.155540
      dxz     :     0.035172
      dyz     :     0.017392
      dx2y2   :     0.026286
      dxy     :     0.027500
 23 C s       :     2.964382  s :     2.964382
      pz      :     1.120199  p :     3.206092
      px      :     1.030888
      py      :     1.055005
      dz2     :     0.023868  d :     0.085920
      dxz     :     0.030490
      dyz     :     0.011425
      dx2y2   :     0.011269
      dxy     :     0.008868
 24 H s       :     0.628702  s :     0.628702
 25 H s       :     0.839015  s :     0.839015
 26 H s       :     0.831231  s :     0.831231
 27 H s       :     0.818175  s :     0.818175
 28 H s       :     0.821351  s :     0.821351
 29 H s       :     0.813304  s :     0.813304
 30 O s       :     3.513833  s :     3.513833
      pz      :     1.442993  p :     4.686814
      px      :     1.593250
      py      :     1.650572
      dz2     :     0.014984  d :     0.054665
      dxz     :     0.015222
      dyz     :     0.014096
      dx2y2   :     0.006566
      dxy     :     0.003796
 31 O s       :     3.440160  s :     3.440160
      pz      :     1.688005  p :     4.669513
      px      :     1.579927
      py      :     1.401581
      dz2     :     0.008945  d :     0.060696
      dxz     :     0.004922
      dyz     :     0.015037
      dx2y2   :     0.014423
      dxy     :     0.017369
 32 C s       :     2.812767  s :     2.812767
      pz      :     0.953331  p :     2.698857
      px      :     0.778651
      py      :     0.966874
      dz2     :     0.069811  d :     0.317058
      dxz     :     0.053293
      dyz     :     0.090904
      dx2y2   :     0.052707
      dxy     :     0.050343
 33 C s       :     2.957691  s :     2.957691
      pz      :     1.105227  p :     3.350356
      px      :     1.155567
      py      :     1.089562
      dz2     :     0.004198  d :     0.062553
      dxz     :     0.016171
      dyz     :     0.021512
      dx2y2   :     0.018418
      dxy     :     0.002255
 34 H s       :     0.833735  s :     0.833735
 35 H s       :     0.826234  s :     0.826234
 36 H s       :     0.842257  s :     0.842257
 37 H s       :     0.818964  s :     0.818964
 38 H s       :     0.815488  s :     0.815488


                      *****************************
                      * MAYER POPULATION ANALYSIS *
                      *****************************

  NA   - Mulliken gross atomic population
  ZA   - Total nuclear charge
  QA   - Mulliken gross atomic charge
  VA   - Mayer's total valence
  BVA  - Mayer's bonded valence
  FA   - Mayer's free valence

  ATOM       NA         ZA         QA         VA         BVA        FA
  0 Ir    16.3943    17.0000     0.6057     3.7584     3.7584    -0.0000
  1 C      6.2535     6.0000    -0.2535     3.7305     3.7305    -0.0000
  2 C      6.2565     6.0000    -0.2565     3.7298     3.7298     0.0000
  3 C      6.2754     6.0000    -0.2754     3.7451     3.7451    -0.0000
  4 C      6.2186     6.0000    -0.2186     3.7154     3.7154    -0.0000
  5 C      6.1535     6.0000    -0.1535     3.6999     3.6999     0.0000
  6 N      7.4384     7.0000    -0.4384     3.2124     3.2124     0.0000
  7 C      6.1256     6.0000    -0.1256     3.7122     3.7122    -0.0000
  8 C      6.6794     6.0000    -0.6794     3.6896     3.6896     0.0000
  9 H      0.7318     1.0000     0.2682     0.8978     0.8978     0.0000
 10 H      0.7754     1.0000     0.2246     0.9109     0.9109     0.0000
 11 H      0.7480     1.0000     0.2520     0.9012     0.9012     0.0000
 12 C      6.6328     6.0000    -0.6328     3.6722     3.6722    -0.0000
 13 H      0.7243     1.0000     0.2757     0.8739     0.8739    -0.0000
 14 H      0.7427     1.0000     0.2573     0.8992     0.8992     0.0000
 15 H      0.7672     1.0000     0.2328     0.9095     0.9095     0.0000
 16 H      0.7666     1.0000     0.2334     0.9060     0.9060     0.0000
 17 C      5.9312     6.0000     0.0688     3.6690     3.6690    -0.0000
 18 C      6.1254     6.0000    -0.1254     3.6868     3.6868     0.0000
 19 H      0.7169     1.0000     0.2831     0.8875     0.8875     0.0000
 20 C      6.5451     6.0000    -0.5451     3.5672     3.5672     0.0000
 21 C      6.1114     6.0000    -0.1114     3.7570     3.7570    -0.0000
 22 S     15.6609    16.0000     0.3391     2.5904     2.5904     0.0000
 23 C      6.4240     6.0000    -0.4240     3.7549     3.7549     0.0000
 24 H      0.5216     1.0000     0.4784     0.7409     0.7409    -0.0000
 25 H      0.7349     1.0000     0.2651     0.9021     0.9021    -0.0000
 26 H      0.7031     1.0000     0.2969     0.8976     0.8976    -0.0000
 27 H      0.7154     1.0000     0.2846     0.9066     0.9066     0.0000
 28 H      0.7195     1.0000     0.2805     0.9095     0.9095     0.0000
 29 H      0.7046     1.0000     0.2954     0.8966     0.8966     0.0000
 30 O      8.4896     8.0000    -0.4896     2.1273     2.1273     0.0000
 31 O      8.4969     8.0000    -0.4969     2.1299     2.1299     0.0000
 32 C      5.3633     6.0000     0.6367     3.8814     3.8814    -0.0000
 33 C      6.7440     6.0000    -0.7440     3.6543     3.6543    -0.0000
 34 H      0.7248     1.0000     0.2752     0.8922     0.8922    -0.0000
 35 H      0.7219     1.0000     0.2781     0.8900     0.8900    -0.0000
 36 H      0.7350     1.0000     0.2650     0.8961     0.8961     0.0000
 37 H      0.7194     1.0000     0.2806     0.9097     0.9097     0.0000
 38 H      0.7074     1.0000     0.2926     0.9029     0.9029     0.0000

  Mayer bond orders larger than 0.100000
B(  0-Ir,  1-C ) :   0.4572 B(  0-Ir,  2-C ) :   0.3944 B(  0-Ir,  3-C ) :   0.4715 
B(  0-Ir,  4-C ) :   0.4257 B(  0-Ir,  5-C ) :   0.3656 B(  0-Ir,  6-N ) :   0.4660 
B(  0-Ir, 20-C ) :   0.5114 B(  0-Ir, 31-O ) :   0.5004 B(  1-C ,  2-C ) :   1.1261 
B(  1-C ,  4-C ) :   1.2157 B(  1-C , 27-H ) :   0.9090 B(  2-C ,  5-C ) :   1.2291 
B(  2-C , 28-H ) :   0.9103 B(  3-C ,  4-C ) :   1.1466 B(  3-C ,  5-C ) :   1.1645 
B(  3-C , 37-H ) :   0.9139 B(  4-C , 38-H ) :   0.8999 B(  5-C , 29-H ) :   0.9022 
B(  6-N ,  7-C ) :   0.8968 B(  6-N , 17-C ) :   1.6425 B(  7-C ,  8-C ) :   0.9902 
B(  7-C , 12-C ) :   0.9675 B(  7-C , 13-H ) :   0.8792 B(  8-C ,  9-H ) :   0.9051 
B(  8-C , 10-H ) :   0.9131 B(  8-C , 11-H ) :   0.9131 B( 12-C , 14-H ) :   0.9081 
B( 12-C , 15-H ) :   0.9153 B( 12-C , 16-H ) :   0.9123 B( 17-C , 18-C ) :   1.1204 
B( 17-C , 19-H ) :   0.8768 B( 18-C , 20-C ) :   1.2363 B( 18-C , 22-S ) :   1.2250 
B( 20-C , 21-C ) :   1.2800 B( 20-C , 24-H ) :   0.2897 B( 21-C , 23-C ) :   1.5313 
B( 21-C , 25-H ) :   0.9030 B( 22-S , 23-C ) :   1.2272 B( 23-C , 26-H ) :   0.8917 
B( 24-H , 30-O ) :   0.3874 B( 30-O , 32-C ) :   1.5118 B( 31-O , 32-C ) :   1.4194 
B( 32-C , 33-C ) :   0.9462 B( 33-C , 34-H ) :   0.8983 B( 33-C , 35-H ) :   0.8914 
B( 33-C , 36-H ) :   0.9071 


------------------
HIRSHFELD ANALYSIS
------------------

Total integrated alpha density =     82.000219040
Total integrated beta density  =     82.000219040

  ATOM     CHARGE      SPIN    
   0 Ir   0.166047    0.000000
   1 C   -0.005520    0.000000
   2 C   -0.017174    0.000000
   3 C   -0.023313    0.000000
   4 C    0.004485    0.000000
   5 C    0.017902    0.000000
   6 N   -0.072749    0.000000
   7 C    0.051950    0.000000
   8 C   -0.071723    0.000000
   9 H    0.052712    0.000000
  10 H    0.037459    0.000000
  11 H    0.040173    0.000000
  12 C   -0.071423    0.000000
  13 H    0.043722    0.000000
  14 H    0.049192    0.000000
  15 H    0.037516    0.000000
  16 H    0.030733    0.000000
  17 C    0.092416    0.000000
  18 C   -0.016570    0.000000
  19 H    0.075650    0.000000
  20 C   -0.091892    0.000000
  21 C   -0.031498    0.000000
  22 S    0.137868    0.000000
  23 C   -0.024297    0.000000
  24 H    0.114062    0.000000
  25 H    0.066915    0.000000
  26 H    0.078909    0.000000
  27 H    0.080227    0.000000
  28 H    0.077880    0.000000
  29 H    0.089502    0.000000
  30 O   -0.216213    0.000000
  31 O   -0.237977    0.000000
  32 C    0.256574    0.000000
  33 C   -0.060336    0.000000
  34 H    0.060060    0.000000
  35 H    0.065566    0.000000
  36 H    0.053169    0.000000
  37 H    0.079089    0.000000
  38 H    0.080468    0.000000

  TOTAL   0.999562    0.000000

-------
TIMINGS
-------

Total SCF time: 0 days 0 hours 4 min 54 sec 

Total time                  ....     294.104 sec
Sum of individual times     ....     293.309 sec  ( 99.7%)

Fock matrix formation       ....     284.507 sec  ( 96.7%)
  Split-RI-J                ....      20.893 sec  (  7.3% of F)
  Chain of spheres X        ....     247.602 sec  ( 87.0% of F)
  XC integration            ....      16.020 sec  (  5.6% of F)
    Basis function eval.    ....       7.454 sec  ( 46.5% of XC)
    Density eval.           ....       4.233 sec  ( 26.4% of XC)
    XC-Functional eval.     ....       1.193 sec  (  7.4% of XC)
    XC-Potential eval.      ....       2.565 sec  ( 16.0% of XC)
Diagonalization             ....       0.250 sec  (  0.1%)
Density matrix formation    ....       0.039 sec  (  0.0%)
Population analysis         ....       1.634 sec  (  0.6%)
Initial guess               ....       0.032 sec  (  0.0%)
Orbital Transformation      ....       0.000 sec  (  0.0%)
Orbital Orthonormalization  ....       0.025 sec  (  0.0%)
DIIS solution               ....       0.090 sec  (  0.0%)
Grid generation             ....       6.757 sec  (  2.3%)

Maximum memory used throughout the entire SCF-calculation: 173.1 MB


-------------------------------------------------------------------------------
                          DFT DISPERSION CORRECTION                            
                                                                               
                              DFTD3 V3.1  Rev 1                                
                          USING Becke-Johnson damping                          
-------------------------------------------------------------------------------
The PBEh-3c composite method is recognized
Using three-body term ABC
Active option DFTDOPT                   ...         4   

molecular C6(AA) [au] = 19532.667000 


            DFT-D V3
 parameters
 s6 scaling factor         :     1.0000 
 a1 scaling factor         :     0.4860 
 s8 scaling factor         :     0.0000 
 a2 scaling factor         :     4.5000 
 Damping factor alpha9(ATM):    16.0000 
 ad hoc parameters k1-k3   :    16.0000     1.3333    -4.0000 

 Edisp/kcal,au: -19.182776446530  -0.030569696862 
 E6   /kcal   : -19.515407190 
 E8   /kcal   :  -0.000000000 
 E6(ABC)      :   0.332630744 
 % E8         :   0.000000000 
 % E6(ABC)    :  -1.734007299 

-------------------------   ----------------
Dispersion correction           -0.030569697
-------------------------   ----------------

 ** NOTE ** -> element ir will be treated as co
NOTIFICATION: Different basis set in ORCA and otool_gcp:
ORCA: 358  gCP: 357 
If you are NOT using ECPs, check your basis set inputs!
------------------   -----------------
gCP correction             0.079049032
------------------   -----------------

-------------------------   --------------------
FINAL SINGLE POINT ENERGY     -1288.406026316279
-------------------------   --------------------

                                *** OPTIMIZATION RUN DONE ***

                            ***************************************
                            *     ORCA property calculations      *
                            ***************************************

                                    ---------------------
                                    Active property flags
                                    ---------------------
   (+) Dipole Moment


------------------------------------------------------------------------------
                       ORCA ELECTRIC PROPERTIES CALCULATION
------------------------------------------------------------------------------

Dipole Moment Calculation                       ... on
Quadrupole Moment Calculation                   ... off
Polarizability Calculation                      ... off
GBWName                                         ... reaction4-IEIP_ts_guess_scan_11-13_orca.gbw
Electron density                                ... reaction4-IEIP_ts_guess_scan_11-13_orca.scfp
The origin for moment calculation is the CENTER OF MASS  = ( 0.862411, -0.549839 -0.175787)

-------------
DIPOLE MOMENT
-------------
                                X             Y             Z
Electronic contribution:     37.02398     -75.39398      71.99417
Nuclear contribution   :    -37.57402      75.11675     -72.11646
                        -----------------------------------------
Total Dipole Moment    :     -0.55004      -0.27724      -0.12229
                        -----------------------------------------
Magnitude (a.u.)       :      0.62798
Magnitude (Debye)      :      1.59620



--------------------
Rotational spectrum 
--------------------
 
Rotational constants in cm-1:     0.010571     0.008747     0.008181 
Rotational constants in MHz :   316.914653   262.233716   245.271054 

 Dipole components along the rotational axes: 
x,y,z [a.u.] :     0.095005     0.233807     0.575038 
x,y,z [Debye]:     0.241484     0.594290     1.461630 

 

Timings for individual modules:

Sum of individual times         ...     7425.118 sec (= 123.752 min)
GTO integral calculation        ...       26.365 sec (=   0.439 min)   0.4 %
SCF iterations                  ...     5758.399 sec (=  95.973 min)  77.6 %
SCF Gradient evaluation         ...     1636.903 sec (=  27.282 min)  22.0 %
Geometry relaxation             ...        3.451 sec (=   0.058 min)   0.0 %
                             ****ORCA TERMINATED NORMALLY****
TOTAL RUN TIME: 0 days 2 hours 3 minutes 50 seconds 129 msec
