
                                 *****************
                                 * O   R   C   A *
                                 *****************

                                            #,                                       
                                            ###                                      
                                            ####                                     
                                            #####                                    
                                            ######                                   
                                           ########,                                 
                                     ,,################,,,,,                         
                               ,,#################################,,                 
                          ,,##########################################,,             
                       ,#########################################, ''#####,          
                    ,#############################################,,   '####,        
                  ,##################################################,,,,####,       
                ,###########''''           ''''###############################       
              ,#####''   ,,,,##########,,,,          '''####'''          '####       
            ,##' ,,,,###########################,,,                        '##       
           ' ,,###''''                  '''############,,,                           
         ,,##''                                '''############,,,,        ,,,,,,###''
      ,#''                                            '''#######################'''  
     '                                                          ''''####''''         
             ,#######,   #######,   ,#######,      ##                                
            ,#'     '#,  ##    ##  ,#'     '#,    #''#        ######   ,####,        
            ##       ##  ##   ,#'  ##            #'  '#       #        #'  '#        
            ##       ##  #######   ##           ,######,      #####,   #    #        
            '#,     ,#'  ##    ##  '#,     ,#' ,#      #,         ##   #,  ,#        
             '#######'   ##     ##  '#######'  #'      '#     #####' # '####'        



                  #######################################################
                  #                        -***-                        #
                  #          Department of theory and spectroscopy      #
                  #    Directorship and core code : Frank Neese         #
                  #        Max Planck Institute fuer Kohlenforschung    #
                  #                Kaiser Wilhelm Platz 1               #
                  #                 D-45470 Muelheim/Ruhr               #
                  #                      Germany                        #
                  #                                                     #
                  #                  All rights reserved                #
                  #                        -***-                        #
                  #######################################################


                         Program Version 5.0.3 -  RELEASE  -


 With contributions from (in alphabetic order):
   Daniel Aravena         : Magnetic Suceptibility
   Michael Atanasov       : Ab Initio Ligand Field Theory (pilot matlab implementation)
   Alexander A. Auer      : GIAO ZORA, VPT2 properties, NMR spectrum
   Ute Becker             : Parallelization
   Giovanni Bistoni       : ED, misc. LED, open-shell LED, HFLD
   Martin Brehm           : Molecular dynamics
   Dmytro Bykov           : SCF Hessian
   Vijay G. Chilkuri      : MRCI spin determinant printing, contributions to CSF-ICE
   Dipayan Datta          : RHF DLPNO-CCSD density
   Achintya Kumar Dutta   : EOM-CC, STEOM-CC
   Dmitry Ganyushin       : Spin-Orbit,Spin-Spin,Magnetic field MRCI
   Miquel Garcia          : C-PCM and meta-GGA Hessian, CC/C-PCM, Gaussian charge scheme
   Yang Guo               : DLPNO-NEVPT2, F12-NEVPT2, CIM, IAO-localization
   Andreas Hansen         : Spin unrestricted coupled pair/coupled cluster methods
   Benjamin Helmich-Paris : MC-RPA, TRAH-SCF, COSX integrals
   Lee Huntington         : MR-EOM, pCC
   Robert Izsak           : Overlap fitted RIJCOSX, COSX-SCS-MP3, EOM
   Marcus Kettner         : VPT2
   Christian Kollmar      : KDIIS, OOCD, Brueckner-CCSD(T), CCSD density, CASPT2, CASPT2-K
   Simone Kossmann        : Meta GGA functionals, TD-DFT gradient, OOMP2, MP2 Hessian
   Martin Krupicka        : Initial AUTO-CI
   Lucas Lang             : DCDCAS
   Marvin Lechner         : AUTO-CI (C++ implementation), FIC-MRCC
   Dagmar Lenk            : GEPOL surface, SMD
   Dimitrios Liakos       : Extrapolation schemes; Compound Job, initial MDCI parallelization
   Dimitrios Manganas     : Further ROCIS development; embedding schemes
   Dimitrios Pantazis     : SARC Basis sets
   Anastasios Papadopoulos: AUTO-CI, single reference methods and gradients
   Taras Petrenko         : DFT Hessian,TD-DFT gradient, ASA, ECA, R-Raman, ABS, FL, XAS/XES, NRVS
   Peter Pinski           : DLPNO-MP2, DLPNO-MP2 Gradient
   Christoph Reimann      : Effective Core Potentials
   Marius Retegan         : Local ZFS, SOC
   Christoph Riplinger    : Optimizer, TS searches, QM/MM, DLPNO-CCSD(T), (RO)-DLPNO pert. Triples
   Tobias Risthaus        : Range-separated hybrids, TD-DFT gradient, RPA, STAB
   Michael Roemelt        : Original ROCIS implementation
   Masaaki Saitow         : Open-shell DLPNO-CCSD energy and density
   Barbara Sandhoefer     : DKH picture change effects
   Avijit Sen             : IP-ROCIS
   Kantharuban Sivalingam : CASSCF convergence, NEVPT2, FIC-MRCI
   Bernardo de Souza      : ESD, SOC TD-DFT
   Georgi Stoychev        : AutoAux, RI-MP2 NMR, DLPNO-MP2 response
   Willem Van den Heuvel  : Paramagnetic NMR
   Boris Wezisla          : Elementary symmetry handling
   Frank Wennmohs         : Technical directorship


 We gratefully acknowledge several colleagues who have allowed us to
 interface, adapt or use parts of their codes:
   Stefan Grimme, W. Hujo, H. Kruse, P. Pracht,  : VdW corrections, initial TS optimization,
                  C. Bannwarth, S. Ehlert          DFT functionals, gCP, sTDA/sTD-DF
   Ed Valeev, F. Pavosevic, A. Kumar             : LibInt (2-el integral package), F12 methods
   Garnet Chan, S. Sharma, J. Yang, R. Olivares  : DMRG
   Ulf Ekstrom                                   : XCFun DFT Library
   Mihaly Kallay                                 : mrcc  (arbitrary order and MRCC methods)
   Jiri Pittner, Ondrej Demel                    : Mk-CCSD
   Frank Weinhold                                : gennbo (NPA and NBO analysis)
   Christopher J. Cramer and Donald G. Truhlar   : smd solvation model
   Lars Goerigk                                  : TD-DFT with DH, B97 family of functionals
   V. Asgeirsson, H. Jonsson                     : NEB implementation
   FAccTs GmbH                                   : IRC, NEB, NEB-TS, DLPNO-Multilevel, CI-OPT
                                                   MM, QMMM, 2- and 3-layer-ONIOM, Crystal-QMMM,
                                                   LR-CPCM, SF, NACMEs, symmetry and pop. for TD-DFT,
                                                   nearIR, NL-DFT gradient (VV10), updates on ESD,
                                                   ML-optimized integration grids
   S Lehtola, MJT Oliveira, MAL Marques          : LibXC Library
   Liviu Ungur et al                             : ANISO software


 Your calculation uses the libint2 library for the computation of 2-el integrals
 For citations please refer to: http://libint.valeyev.net

 Your ORCA version has been built with support for libXC version: 5.1.0
 For citations please refer to: https://tddft.org/programs/libxc/

 This ORCA versions uses:
   CBLAS   interface :  Fast vector & matrix operations
   LAPACKE interface :  Fast linear algebra routines
   SCALAPACK package :  Parallel linear algebra routines
   Shared memory     :  Shared parallel matrices
   BLAS/LAPACK       :  OpenBLAS 0.3.15  USE64BITINT DYNAMIC_ARCH NO_AFFINITY SkylakeX SINGLE_THREADED
        Core in use  :  SkylakeX
   Copyright (c) 2011-2014, The OpenBLAS Project


Your calculation utilizes the geometrical counterpoise correction gCP
Please cite in your paper:
H.Kruse, S. Grimme J.Chem.Phys., 136, (2012), 154101 
   

Your calculation utilizes the atom-pairwise dispersion correction
with the Becke-Johnson damping scheme (D3BJ)
Cite in your paper:
S.Grimme, S.Ehrlich, L.Goerigk, J Comput Chem, (2011), 32, 1456–1465 
S.Grimme, J.Antony, S.Ehrlich and H.Krieg, J.Chem.Phys., 132, (2010), 154104 
   

Your calculation employs the composite approach PBEh-3c.
Please cite in your paper:
S. Grimme, J. G. Brandenburg, C. Bannwarth, A. Hansen J.Chem.Phys., 143, (2015), 054107 
   

================================================================================

cite the ECPs for Ir [Def2-ECP] as follows:
Ce-Yb(ecp-28): M. Dolg, H. Stoll, H.Preuss, J. Chem. Phys., 1989, 90, 1730-1734.
Y-Cd(ecp-28), Hf-Hg(ecp-46): D. Andrae,U. Haeussermann, M. Dolg, H. Stoll, H. Preuss, Theor. Chim. Acta, 1990, 77, 123-141.
In-Sb(ecp-28), Tl-Bi(ecp-46): B. Metz, H. Stoll, M. Dolg, J. Chem. Phys., 2000, 113, 2563-2569.
Te-Xe(ecp-28), Po-Rn(ecp-46): K. A. Peterson, D. Figgen, E. Goll, H. Stoll, M. Dolg, J. Chem. Phys., 2003, 119, 11113-11123.
Rb(ecp-28), Cs(ecp-46): T. Leininger, A. Nicklass, W. Kuechle, H. Stoll, M. Dolg, A. Bergner, Chem. Phys. Lett., 1996, 255, 274-280.
Sr(ecp-28), Ba(ecp-46): M. Kaupp, P. V. Schleyer, H. Stoll and H. Preuss, J. Chem. Phys., 1991, 94, 1360-1366.
La(ecp-46): M. Dolg, H. Stoll, A. Savin, H. Preuss, Theor. Chim. Acta, 1989, 75, 173-194.
Lu(ecp-28): X. Cao, M. Dolg, J. Chem. Phys., 2001, 115, 7348-7355.

ECP parameters for Ir [Def2-ECP] have been obtained from:
TURBOMOLE (7.0.2)

----- Orbital basis set information -----
Your calculation utilizes the basis: def2-mSVP

----- AuxJ basis set information -----
Your calculation utilizes the auxiliary basis: def2/J
   F. Weigend, Phys. Chem. Chem. Phys. 8, 1057 (2006).

================================================================================
                                        WARNINGS
                       Please study these warnings very carefully!
================================================================================


WARNING: Geometry Optimization
  ===> : Switching off AutoStart
         For restart on a previous wavefunction, please use MOREAD

WARNING: No Hueckel Guess possible with ECP basis!
  ===> : Switching to HCORE guess!

INFO   : the flag for use of the SHARK integral package has been found!

================================================================================
                                       INPUT FILE
================================================================================
NAME = reaction4-IEIP_ts_guess_scan_0-8_orca.inp
|  1> ! Opt PBEh-3c
|  2> %geom Constraints
|  3> { B 0 20 2.6 C }
|  4> { B 24 30 1.3857142857142857 C }
|  5>     end
|  6> end
|  7> %output 
|  8> xyzfile=True 
|  9> end 
| 10> %scf 
| 11> maxiter 250 
| 12> end
| 13> %output
| 14> Print[P_Hirshfeld] = 1
| 15> end
| 16> % maxcore
| 17> 4000
| 18> *xyz 1 1
| 19> Ir   0.56791649  -0.73738145   0.49398399 
| 20> C    0.01269384  -2.81402739   0.35404947 
| 21> C    0.09836814  -2.37617159   1.72716731 
| 22> C    2.18102021  -2.15230092   0.77529413 
| 23> C    1.27584050  -2.64579357  -0.23884205 
| 24> C    1.46864718  -2.02714843   1.97960503 
| 25> N   -1.04089605   0.16720057  -0.50819311 
| 26> C   -2.31816253   0.50354589   0.14129383 
| 27> C   -3.13259685   1.53945756  -0.61648876 
| 28> H   -3.96868103   1.85323763   0.00691099 
| 29> H   -3.56335451   1.14955849  -1.54015624 
| 30> H   -2.54962940   2.43142990  -0.84818138 
| 31> C   -3.11899383  -0.76911248   0.38730593 
| 32> H   -2.03392165   0.92768007   1.10596378 
| 33> H   -4.03860635  -0.52481008   0.91681013 
| 34> H   -3.39415043  -1.25204604  -0.55132296 
| 35> H   -2.57494794  -1.48522728   1.00166208 
| 36> C   -0.82430254   0.36990773  -1.75005842 
| 37> C    0.52882775   0.15418923  -2.21762329 
| 38> H   -1.60160087   0.72443945  -2.42131239 
| 39> C    1.63938759   0.55927714  -1.48859671 
| 40> C    2.83656926   0.15047680  -2.14240745 
| 41> S    0.93941501  -0.64539216  -3.67418014 
| 42> C    2.61193479  -0.49805383  -3.31662611 
| 43> H    1.54601881   1.41936496  -0.66742403 
| 44> H    3.82740782   0.37862052  -1.77717569 
| 45> H    3.34272498  -0.88236997  -4.01217492 
| 46> H   -0.87915249  -3.16813972  -0.14270532 
| 47> H   -0.68981374  -2.41542889   2.46491686 
| 48> H    1.85920252  -1.64810806   2.91305518 
| 49> O    1.31252992   2.43359132   0.26896681 
| 50> O    0.53949307   0.89893012   1.69286600 
| 51> C    0.91368269   2.09579132   1.38135579 
| 52> C    0.86171922   3.07997521   2.51547698 
| 53> H    0.81648395   4.09802712   2.13839766 
| 54> H    1.77146292   2.98482659   3.11158133 
| 55> H    0.02047559   2.88926069   3.17852484 
| 56> H    3.22468419  -1.91690837   0.62735916 
| 57> H    1.53167380  -2.85117805  -1.26833820 
| 58> *
| 59> 
| 60>                          ****END OF INPUT****
================================================================================

                       *****************************
                       * Geometry Optimization Run *
                       *****************************

Geometry optimization settings:
Update method            Update   .... BFGS
Choice of coordinates    CoordSys .... Z-matrix Internals
Initial Hessian          InHess   .... Almoef's Model

Convergence Tolerances:
Energy Change            TolE     ....  5.0000e-06 Eh
Max. Gradient            TolMAXG  ....  3.0000e-04 Eh/bohr
RMS Gradient             TolRMSG  ....  1.0000e-04 Eh/bohr
Max. Displacement        TolMAXD  ....  4.0000e-03 bohr
RMS Displacement         TolRMSD  ....  2.0000e-03 bohr
Strict Convergence                ....  False
------------------------------------------------------------------------------
                        ORCA OPTIMIZATION COORDINATE SETUP
------------------------------------------------------------------------------

The optimization will be done in new redundant internal coordinates
Making redundant internal coordinates   ...  (new redundants) done
Evaluating the initial hessian          ...  (Almloef) done
Evaluating the coordinates              ...  done
Calculating the B-matrix                .... done
Calculating the G-matrix                .... done
Diagonalizing the G-matrix              .... done
Imposing constraints:
 Iter   0:  RMS(Cart)=    0.0046230953 RMS(Int)=    0.0005714455
 Iter   1:  RMS(Cart)=    0.0001527942 RMS(Int)=    0.0000245962
 Iter   2:  RMS(Cart)=    0.0000080067 RMS(Int)=    0.0000012657
 Iter   3:  RMS(Cart)=    0.0000004505 RMS(Int)=    0.0000000680
 Iter   4:  RMS(Cart)=    0.0000000250 RMS(Int)=    0.0000000037
CONVERGED
Small eigenvalue found = 1.235e-02
Small eigenvalue found = 1.571e-02
Small eigenvalue found = 2.183e-02
Small eigenvalue found = 2.376e-02
Small eigenvalue found = 2.928e-02
The first mode is                       ....  227
The number of degrees of freedom        ....  111
Storing new coordinates                 .... done

    -----------------------------------------------------------------
                    Redundant Internal Coordinates


    -----------------------------------------------------------------
         Definition                    Initial Value    Approx d2E/dq
    -----------------------------------------------------------------
      1. B(C   1,Ir  0)                  2.1542         0.087812   
      2. B(C   2,C   1)                  1.4438         0.512779   
      3. B(C   2,Ir  0)                  2.1040         0.105569   
      4. B(C   3,Ir  0)                  2.1641         0.084663   
      5. B(C   4,Ir  0)                  2.1634         0.084880   
      6. B(C   4,C   3)                  1.4461         0.508336   
      7. B(C   4,C   1)                  1.4054         0.590266   
      8. B(C   5,Ir  0)                  2.1638         0.084761   
      9. B(C   5,C   2)                  1.4364         0.526904   
     10. B(C   5,C   3)                  1.4048         0.591702   
     11. B(N   6,Ir  0)                  2.1003         0.095879   
     12. B(C   7,N   6)                  1.4719         0.414260   
     13. B(C   8,C   7)                  1.5201         0.387436   
     14. B(H   9,C   8)                  1.0891         0.361303   
     15. B(H  10,C   8)                  1.0912         0.358505   
     16. B(H  11,C   8)                  1.0905         0.359465   
     17. B(C  12,C   7)                  1.5237         0.382390   
     18. B(H  13,C   7)                  1.0915         0.358182   
     19. B(H  14,C  12)                  1.0889         0.361532   
     20. B(H  15,C  12)                  1.0909         0.358973   
     21. B(H  16,C  12)                  1.0891         0.361231   
     22. B(C  17,N   6)                  1.2767         0.848145   
     23. B(C  18,C  17)                  1.4477         0.505276   
     24. B(H  19,C  17)                  1.0865         0.364769   
     25. B(C  20,C  18)                  1.3890         0.627429   
     26. B(C  20,Ir  0)                  2.6000         0.017069 C 
     27. B(C  21,C  20)                  1.4240         0.551396   
     28. B(S  22,C  18)                  1.7115         0.516967   
     29. B(C  23,C  21)                  1.3601         0.697364   
     30. B(C  23,S  22)                  1.7167         0.507414   
     31. B(H  24,C  20)                  1.1932         0.246830   
     32. B(H  25,C  21)                  1.0804         0.373064   
     33. B(H  26,C  23)                  1.0796         0.374121   
     34. B(H  27,C   1)                  1.0805         0.372844   
     35. B(H  28,C   2)                  1.0803         0.373164   
     36. B(H  29,C   5)                  1.0805         0.372855   
     37. B(O  30,H  24)                  1.3857         0.103270 C 
     38. B(O  31,Ir  0)                  2.0283         0.124685   
     39. B(C  32,O  30)                  1.2293         1.010740   
     40. B(C  32,O  31)                  1.2919         0.801793   
     41. B(C  33,C  32)                  1.5025         0.413266   
     42. B(H  34,C  33)                  1.0866         0.364647   
     43. B(H  35,C  33)                  1.0918         0.357727   
     44. B(H  36,C  33)                  1.0880         0.362785   
     45. B(H  37,C   3)                  1.0801         0.373493   
     46. B(H  38,C   4)                  1.0805         0.372879   
     47. A(C   2,Ir  0,O  31)          106.1940         0.268424   
     48. A(C   1,Ir  0,O  31)          144.3327         0.261099   
     49. A(C   5,Ir  0,N   6)          154.5897         0.249871   
     50. A(C   1,Ir  0,C   3)           64.5477         0.247798   
     51. A(C   1,Ir  0,C   5)           64.9908         0.247839   
     52. A(C   3,Ir  0,O  31)          117.4551         0.259683   
     53. A(C   3,Ir  0,N   6)          156.1517         0.249830   
     54. A(C   2,Ir  0,C   5)           39.3037         0.254600   
     55. A(C   3,Ir  0,C   4)           39.0449         0.246582   
     56. A(C   2,Ir  0,C   4)           65.4448         0.254653   
     57. A(C   5,Ir  0,O  31)           94.6465         0.259727   
     58. A(C   4,Ir  0,N   6)          117.9675         0.249923   
     59. A(C   1,Ir  0,C   2)           39.6164         0.255931   
     60. A(C   4,Ir  0,C   5)           64.5643         0.246623   
     61. A(C   4,Ir  0,O  31)          156.3933         0.259781   
     62. A(C   1,Ir  0,N   6)          100.7669         0.251165   
     63. A(C   2,Ir  0,C   3)           65.2214         0.254557   
     64. A(C   2,Ir  0,N   6)          116.3748         0.258067   
     65. A(C   1,Ir  0,C   4)           37.9921         0.247890   
     66. A(N   6,Ir  0,O  31)           85.6288         0.263301   
     67. A(C   3,Ir  0,C   5)           37.8817         0.246532   
     68. A(Ir  0,C   1,H  27)          123.9541         0.270192   
     69. A(C   2,C   1,C   4)          108.1543         0.415894   
     70. A(Ir  0,C   1,C   4)           71.3601         0.321454   
     71. A(C   4,C   1,H  27)          125.9495         0.352052   
     72. A(Ir  0,C   1,C   2)           68.3194         0.314167   
     73. A(C   2,C   1,H  27)          125.8454         0.343806   
     74. A(C   5,C   2,H  28)          125.7915         0.345427   
     75. A(Ir  0,C   2,C   5)           72.5933         0.325199   
     76. A(C   1,C   2,C   5)          107.3035         0.407600   
     77. A(Ir  0,C   2,C   1)           72.0642         0.323751   
     78. A(Ir  0,C   2,H  28)          126.2551         0.277941   
     79. A(C   1,C   2,H  28)          126.5248         0.343855   
     80. A(Ir  0,C   3,H  37)          124.0540         0.268771   
     81. A(C   4,C   3,C   5)          108.3092         0.415430   
     82. A(C   4,C   3,H  37)          125.6735         0.343404   
     83. A(Ir  0,C   3,C   4)           70.4517         0.311874   
     84. A(Ir  0,C   3,C   5)           71.0468         0.319668   
     85. A(C   5,C   3,H  37)          126.0168         0.352300   
     86. A(Ir  0,C   4,C   1)           70.6479         0.319674   
     87. A(Ir  0,C   4,H  38)          124.6037         0.268808   
     88. A(C   1,C   4,H  38)          126.2950         0.352058   
     89. A(C   3,C   4,H  38)          125.7906         0.343309   
     90. A(Ir  0,C   4,C   3)           70.5034         0.312003   
     91. A(C   1,C   4,C   3)          107.9139         0.415251   
     92. A(Ir  0,C   5,H  29)          122.3093         0.268749   
     93. A(C   3,C   5,H  29)          126.0538         0.352199   
     94. A(C   2,C   5,H  29)          125.5829         0.345379   
     95. A(Ir  0,C   5,C   3)           71.0715         0.319728   
     96. A(C   2,C   5,C   3)          108.1465         0.418092   
     97. A(Ir  0,C   5,C   2)           68.1030         0.313750   
     98. A(Ir  0,N   6,C  17)          113.7446         0.342455   
     99. A(C   7,N   6,C  17)          122.6908         0.421575   
    100. A(Ir  0,N   6,C   7)          123.5407         0.304509   
    101. A(N   6,C   7,C   8)          113.6219         0.369842   
    102. A(N   6,C   7,C  12)          109.6629         0.369010   
    103. A(C   8,C   7,C  12)          111.5989         0.367087   
    104. A(N   6,C   7,H  13)          104.6444         0.327619   
    105. A(C   8,C   7,H  13)          108.3799         0.325981   
    106. A(C  12,C   7,H  13)          108.5876         0.325279   
    107. A(C   7,C   8,H  11)          112.1430         0.326173   
    108. A(H   9,C   8,H  11)          107.2389         0.290911   
    109. A(H  10,C   8,H  11)          108.8719         0.290556   
    110. A(C   7,C   8,H   9)          108.8025         0.326446   
    111. A(C   7,C   8,H  10)          112.9530         0.326029   
    112. A(H   9,C   8,H  10)          106.5239         0.290789   
    113. A(C   7,C  12,H  14)          109.5724         0.325777   
    114. A(C   7,C  12,H  15)          111.3110         0.325397   
    115. A(H  14,C  12,H  15)          107.7408         0.290878   
    116. A(C   7,C  12,H  16)          112.1926         0.325732   
    117. A(H  14,C  12,H  16)          107.1620         0.291164   
    118. A(H  15,C  12,H  16)          108.6794         0.290840   
    119. A(N   6,C  17,C  18)          116.6597         0.439752   
    120. A(N   6,C  17,H  19)          122.1081         0.370794   
    121. A(C  18,C  17,H  19)          121.1881         0.341701   
    122. A(C  17,C  18,C  20)          122.2606         0.419339   
    123. A(C  17,C  18,S  22)          124.6864         0.427369   
    124. A(C  20,C  18,S  22)          113.0349         0.444365   
    125. A(C  18,C  20,C  21)          110.3267         0.425935   
    126. A(C  18,C  20,H  24)          120.6039         0.331940   
    127. A(C  21,C  20,H  24)          126.0856         0.324940   
    128. A(C  20,C  21,H  25)          123.7244         0.348062   
    129. A(C  23,C  21,H  25)          122.9581         0.362205   
    130. A(C  20,C  21,C  23)          113.2299         0.434091   
    131. A(C  18,S  22,C  23)           90.9320         0.451470   
    132. A(C  21,C  23,H  26)          127.8884         0.362380   
    133. A(S  22,C  23,H  26)          119.6515         0.361256   
    134. A(C  21,C  23,S  22)          112.4418         0.451434   
    135. A(Ir  0,O  31,C  32)          126.7296         0.354582   
    136. A(O  30,C  32,O  31)          124.4658         0.490828   
    137. A(O  30,C  32,C  33)          120.9838         0.437724   
    138. A(O  31,C  32,C  33)          114.5331         0.419915   
    139. A(C  32,C  33,H  34)          110.6836         0.330443   
    140. A(C  32,C  33,H  35)          109.0392         0.329399   
    141. A(H  34,C  33,H  35)          107.8070         0.291111   
    142. A(C  32,C  33,H  36)          111.8347         0.330164   
    143. A(H  34,C  33,H  36)          110.0928         0.291754   
    144. A(H  35,C  33,H  36)          107.2334         0.290877   
    145. D(C   2,C   1,Ir  0,C   4)    119.2065         0.001712   
    146. D(C   2,C   1,Ir  0,C   5)     39.1494         0.001712   
    147. D(H  27,C   1,Ir  0,O  31)     98.4045         0.001712   
    148. D(C   4,C   1,Ir  0,C   2)   -119.2065         0.001712   
    149. D(C   2,C   1,Ir  0,O  31)    -21.0697         0.001712   
    150. D(H  27,C   1,Ir  0,C   3)   -159.3231         0.001712   
    151. D(C   4,C   1,Ir  0,O  31)   -140.2762         0.001712   
    152. D(H  27,C   1,Ir  0,C   2)    119.4743         0.001712   
    153. D(C   4,C   1,Ir  0,C   3)    -38.0038         0.001712   
    154. D(H  27,C   1,Ir  0,N   6)      0.8252         0.001712   
    155. D(C   2,C   1,Ir  0,C   3)     81.2027         0.001712   
    156. D(C   4,C   1,Ir  0,N   6)    122.1445         0.001712   
    157. D(H  27,C   1,Ir  0,C   4)   -121.3192         0.001712   
    158. D(H  27,C   1,Ir  0,C   5)    158.6236         0.001712   
    159. D(C   4,C   1,Ir  0,C   5)    -80.0571         0.001712   
    160. D(C   2,C   1,Ir  0,N   6)   -118.6490         0.001712   
    161. D(Ir  0,C   2,C   1,H  27)   -117.0186         0.020849   
    162. D(C   1,C   2,Ir  0,C   5)   -115.4108         0.001805   
    163. D(C   1,C   2,Ir  0,C   4)    -36.2081         0.001805   
    164. D(H  28,C   2,C   1,H  27)      5.2425         0.020849   
    165. D(H  28,C   2,C   1,Ir  0)    122.2611         0.020849   
    166. D(C   5,C   2,C   1,H  27)    178.4600         0.020849   
    167. D(C   1,C   2,Ir  0,C   3)    -79.3590         0.001805   
    168. D(H  28,C   2,Ir  0,C   4)   -158.7822         0.001805   
    169. D(H  28,C   2,Ir  0,C   5)    122.0150         0.001805   
    170. D(C   5,C   2,Ir  0,C   3)     36.0518         0.001805   
    171. D(C   5,C   2,Ir  0,C   1)    115.4108         0.001805   
    172. D(H  28,C   2,C   1,C   4)   -177.2327         0.020849   
    173. D(C   5,C   2,Ir  0,C   4)     79.2028         0.001805   
    174. D(C   5,C   2,C   1,Ir  0)    -64.5214         0.020849   
    175. D(H  28,C   2,Ir  0,N   6)    -48.3587         0.001805   
    176. D(H  28,C   2,Ir  0,O  31)     44.8179         0.001805   
    177. D(Ir  0,C   2,C   1,C   4)     60.5062         0.020849   
    178. D(C   5,C   2,C   1,C   4)     -4.0151         0.020849   
    179. D(C   1,C   2,Ir  0,N   6)     74.2154         0.001805   
    180. D(C   5,C   2,Ir  0,O  31)    -77.1971         0.001805   
    181. D(H  28,C   2,Ir  0,C   1)   -122.5741         0.001805   
    182. D(C   1,C   2,Ir  0,O  31)    167.3920         0.001805   
    183. D(H  28,C   2,Ir  0,C   3)    158.0669         0.001805   
    184. D(C   5,C   2,Ir  0,N   6)   -170.3738         0.001805   
    185. D(C   4,C   3,Ir  0,C   5)    118.3206         0.001697   
    186. D(C   4,C   3,Ir  0,C   1)     36.9890         0.001697   
    187. D(C   4,C   3,Ir  0,O  31)    177.0428         0.001697   
    188. D(C   4,C   3,Ir  0,C   2)     80.9398         0.001697   
    189. D(C   5,C   3,Ir  0,O  31)     58.7223         0.001697   
    190. D(C   5,C   3,Ir  0,C   2)    -37.3808         0.001697   
    191. D(C   4,C   3,Ir  0,N   6)    -18.6115         0.001697   
    192. D(H  37,C   3,Ir  0,C   4)    120.4604         0.001697   
    193. D(H  37,C   3,Ir  0,C   1)    157.4494         0.001697   
    194. D(C   5,C   3,Ir  0,C   1)    -81.3315         0.001697   
    195. D(C   5,C   3,Ir  0,C   4)   -118.3206         0.001697   
    196. D(C   5,C   3,Ir  0,N   6)   -136.9321         0.001697   
    197. D(H  37,C   3,Ir  0,C   5)   -121.2191         0.001697   
    198. D(H  37,C   3,Ir  0,N   6)    101.8488         0.001697   
    199. D(H  37,C   3,Ir  0,O  31)    -62.4968         0.001697   
    200. D(H  37,C   3,Ir  0,C   2)   -158.5999         0.001697   
    201. D(C   1,C   4,Ir  0,C   3)    118.0464         0.001698   
    202. D(H  38,C   4,C   3,H  37)      0.7086         0.020479   
    203. D(C   1,C   4,Ir  0,C   5)     81.2797         0.001698   
    204. D(C   1,C   4,Ir  0,N   6)    -70.3546         0.001698   
    205. D(C   1,C   4,Ir  0,O  31)    111.4821         0.001698   
    206. D(C   1,C   4,Ir  0,C   2)     37.7284         0.001698   
    207. D(C   3,C   4,Ir  0,C   1)   -118.0464         0.001698   
    208. D(H  38,C   4,C   3,C   5)   -179.5484         0.020479   
    209. D(C   3,C   4,Ir  0,C   5)    -36.7667         0.001698   
    210. D(C   3,C   4,Ir  0,N   6)    171.5990         0.001698   
    211. D(C   3,C   4,Ir  0,O  31)     -6.5642         0.001698   
    212. D(Ir  0,C   4,C   1,C   2)    -58.6065         0.027983   
    213. D(H  38,C   4,Ir  0,C   2)    159.0544         0.001698   
    214. D(H  38,C   4,Ir  0,C   3)   -120.6276         0.001698   
    215. D(H  38,C   4,C   1,C   2)   -177.8717         0.027983   
    216. D(H  38,C   4,Ir  0,N   6)     50.9714         0.001698   
    217. D(H  38,C   4,Ir  0,O  31)   -127.1919         0.001698   
    218. D(Ir  0,C   4,C   1,H  27)    118.9151         0.027983   
    219. D(C   3,C   4,C   1,Ir  0)     60.9683         0.027983   
    220. D(C   3,C   4,C   1,H  27)    179.8834         0.027983   
    221. D(H  38,C   4,C   1,Ir  0)   -119.2651         0.027983   
    222. D(H  38,C   4,Ir  0,C   5)   -157.3943         0.001698   
    223. D(H  38,C   4,C   1,H  27)     -0.3501         0.027983   
    224. D(Ir  0,C   4,C   3,C   5)     61.2799         0.020479   
    225. D(Ir  0,C   4,C   3,H  37)   -118.4631         0.020479   
    226. D(C   3,C   4,C   1,C   2)      2.3618         0.027983   
    227. D(C   1,C   4,C   3,C   5)      0.2197         0.020479   
    228. D(C   1,C   4,C   3,H  37)   -179.5233         0.020479   
    229. D(H  38,C   4,C   3,Ir  0)    119.1717         0.020479   
    230. D(H  38,C   4,Ir  0,C   1)    121.3260         0.001698   
    231. D(C   1,C   4,C   3,Ir  0)    -61.0602         0.020479   
    232. D(C   3,C   4,Ir  0,C   2)    -80.3180         0.001698   
    233. D(C   2,C   5,Ir  0,C   1)    -39.4603         0.001698   
    234. D(H  29,C   5,C   3,C   4)   -177.5999         0.028128   
    235. D(C   2,C   5,Ir  0,C   4)    -81.6344         0.001698   
    236. D(C   2,C   5,Ir  0,N   6)     20.4345         0.001698   
    237. D(C   2,C   5,Ir  0,O  31)    110.0263         0.001698   
    238. D(C   3,C   5,Ir  0,C   1)     80.0573         0.001698   
    239. D(C   3,C   5,Ir  0,C   2)    119.5176         0.001698   
    240. D(C   3,C   5,Ir  0,C   4)     37.8831         0.001698   
    241. D(H  29,C   5,C   2,C   1)    179.0511         0.022053   
    242. D(C   3,C   5,Ir  0,O  31)   -130.4561         0.001698   
    243. D(H  29,C   5,Ir  0,C   1)   -158.6576         0.001698   
    244. D(C   3,C   5,C   2,Ir  0)    -60.0235         0.022053   
    245. D(H  29,C   5,Ir  0,C   3)    121.2851         0.001698   
    246. D(H  29,C   5,Ir  0,C   4)    159.1682         0.001698   
    247. D(H  29,C   5,Ir  0,N   6)    -98.7628         0.001698   
    248. D(H  29,C   5,Ir  0,O  31)     -9.1710         0.001698   
    249. D(Ir  0,C   5,C   2,C   1)     64.1704         0.022053   
    250. D(H  29,C   5,Ir  0,C   2)   -119.1973         0.001698   
    251. D(Ir  0,C   5,C   2,H  28)   -122.5486         0.022053   
    252. D(C   3,C   5,C   2,C   1)      4.1468         0.022053   
    253. D(C   3,C   5,C   2,H  28)    177.4278         0.022053   
    254. D(C   3,C   5,Ir  0,N   6)    139.9521         0.001698   
    255. D(H  29,C   5,C   2,Ir  0)    114.8807         0.022053   
    256. D(H  29,C   5,C   2,H  28)     -7.6680         0.022053   
    257. D(Ir  0,C   5,C   3,C   4)    -60.9035         0.028128   
    258. D(Ir  0,C   5,C   3,H  37)    118.8384         0.028128   
    259. D(C   2,C   5,C   3,Ir  0)     58.1774         0.028128   
    260. D(C   2,C   5,C   3,C   4)     -2.7261         0.028128   
    261. D(C   2,C   5,C   3,H  37)    177.0158         0.028128   
    262. D(C   2,C   5,Ir  0,C   3)   -119.5176         0.001698   
    263. D(H  29,C   5,C   3,Ir  0)   -116.6964         0.028128   
    264. D(H  29,C   5,C   3,H  37)      2.1419         0.028128   
    265. D(C  17,N   6,Ir  0,C   1)    -93.7400         0.001772   
    266. D(C   7,N   6,Ir  0,C   2)     45.8696         0.001772   
    267. D(C   7,N   6,Ir  0,C   3)    133.8443         0.001772   
    268. D(C   7,N   6,Ir  0,C   4)    120.6869         0.001772   
    269. D(C   7,N   6,Ir  0,C   5)     31.5784         0.001772   
    270. D(C   7,N   6,Ir  0,C   1)     84.5221         0.001772   
    271. D(C   7,N   6,Ir  0,O  31)    -60.0506         0.001772   
    272. D(C  17,N   6,Ir  0,C   2)   -132.3925         0.001772   
    273. D(C  17,N   6,Ir  0,C   3)    -44.4178         0.001772   
    274. D(C  17,N   6,Ir  0,C   4)    -57.5751         0.001772   
    275. D(C  17,N   6,Ir  0,C   5)   -146.6836         0.001772   
    276. D(C  17,N   6,Ir  0,O  31)    121.6873         0.001772   
    277. D(C   8,C   7,N   6,Ir  0)    160.6323         0.014636   
    278. D(C   8,C   7,N   6,C  17)    -21.2580         0.014636   
    279. D(C  12,C   7,N   6,Ir  0)    -73.7114         0.014636   
    280. D(C  12,C   7,N   6,C  17)    104.3983         0.014636   
    281. D(H  13,C   7,N   6,Ir  0)     42.5987         0.014636   
    282. D(H  13,C   7,N   6,C  17)   -139.2916         0.014636   
    283. D(H   9,C   8,C   7,N   6)   -170.5186         0.011941   
    284. D(H   9,C   8,C   7,C  12)     64.8608         0.011941   
    285. D(H   9,C   8,C   7,H  13)    -54.6640         0.011941   
    286. D(H  10,C   8,C   7,N   6)     71.4162         0.011941   
    287. D(H  10,C   8,C   7,C  12)    -53.2044         0.011941   
    288. D(H  10,C   8,C   7,H  13)   -172.7292         0.011941   
    289. D(H  11,C   8,C   7,N   6)    -52.0587         0.011941   
    290. D(H  11,C   8,C   7,C  12)   -176.6794         0.011941   
    291. D(H  11,C   8,C   7,H  13)     63.7958         0.011941   
    292. D(H  14,C  12,C   7,N   6)    176.9094         0.011646   
    293. D(H  14,C  12,C   7,C   8)    -56.2844         0.011646   
    294. D(H  14,C  12,C   7,H  13)     63.1175         0.011646   
    295. D(H  15,C  12,C   7,N   6)    -64.0236         0.011646   
    296. D(H  15,C  12,C   7,C   8)     62.7827         0.011646   
    297. D(H  15,C  12,C   7,H  13)   -177.8154         0.011646   
    298. D(H  16,C  12,C   7,N   6)     58.0105         0.011646   
    299. D(H  16,C  12,C   7,C   8)   -175.1832         0.011646   
    300. D(H  16,C  12,C   7,H  13)    -55.7813         0.011646   
    301. D(C  18,C  17,N   6,Ir  0)     -9.5548         0.062246   
    302. D(C  18,C  17,N   6,C   7)    172.1664         0.062246   
    303. D(H  19,C  17,N   6,Ir  0)    172.8353         0.062246   
    304. D(H  19,C  17,N   6,C   7)     -5.4435         0.062246   
    305. D(C  20,C  18,C  17,N   6)    -41.1783         0.017394   
    306. D(C  20,C  18,C  17,H  19)    136.4551         0.017394   
    307. D(S  22,C  18,C  17,N   6)    137.1640         0.017394   
    308. D(S  22,C  18,C  17,H  19)    -45.2026         0.017394   
    309. D(C  21,C  20,C  18,C  17)    176.4962         0.029649   
    310. D(C  21,C  20,C  18,S  22)     -2.0226         0.029649   
    311. D(H  24,C  20,C  18,C  17)    -21.9048         0.029649   
    312. D(H  24,C  20,C  18,S  22)    159.5763         0.029649   
    313. D(C  23,C  21,C  20,C  18)      1.4405         0.022575   
    314. D(C  23,C  21,C  20,H  24)   -158.9139         0.022575   
    315. D(H  25,C  21,C  20,C  18)    178.1194         0.022575   
    316. D(H  25,C  21,C  20,H  24)     17.7650         0.022575   
    317. D(C  23,S  22,C  18,C  17)   -176.8475         0.005475   
    318. D(C  23,S  22,C  18,C  20)      1.6292         0.005475   
    319. D(S  22,C  23,C  21,C  20)     -0.2421         0.034230   
    320. D(S  22,C  23,C  21,H  25)   -176.9501         0.034230   
    321. D(H  26,C  23,C  21,C  20)    178.1797         0.034230   
    322. D(H  26,C  23,C  21,H  25)      1.4717         0.034230   
    323. D(C  21,C  23,S  22,C  18)     -0.7758         0.005322   
    324. D(H  26,C  23,S  22,C  18)   -179.3426         0.005322   
    325. D(C  32,O  31,Ir  0,C   1)   -174.3990         0.001935   
    326. D(C  32,O  31,Ir  0,C   2)    171.7907         0.001935   
    327. D(C  32,O  31,Ir  0,C   3)    101.7244         0.001935   
    328. D(C  32,O  31,Ir  0,C   4)    106.3792         0.001935   
    329. D(C  32,O  31,Ir  0,C   5)    133.4951         0.001935   
    330. D(C  32,O  31,Ir  0,N   6)    -71.9939         0.001935   
    331. D(O  30,C  32,O  31,Ir  0)      2.4745         0.049574   
    332. D(C  33,C  32,O  31,Ir  0)   -176.0195         0.049574   
    333. D(H  34,C  33,C  32,O  30)     22.7745         0.012642   
    334. D(H  34,C  33,C  32,O  31)   -158.6737         0.012642   
    335. D(H  35,C  33,C  32,O  30)    -95.6555         0.012642   
    336. D(H  35,C  33,C  32,O  31)     82.8963         0.012642   
    337. D(H  36,C  33,C  32,O  30)    145.9264         0.012642   
    338. D(H  36,C  33,C  32,O  31)    -35.5218         0.012642   
    -----------------------------------------------------------------

Number of atoms                         .... 39
Number of degrees of freedom            .... 338

         *************************************************************
         *                GEOMETRY OPTIMIZATION CYCLE   1            *
         *************************************************************
---------------------------------
CARTESIAN COORDINATES (ANGSTROEM)
---------------------------------
  Ir     0.567239   -0.738705    0.494444
  C      0.011507   -2.815205    0.353975
  C      0.097310   -2.377744    1.727179
  C      2.179979   -2.154148    0.775330
  C      1.274620   -2.647150   -0.238876
  C      1.467680   -2.029140    1.979674
  N     -1.041385    0.166638   -0.507557
  C     -2.318650    0.502783    0.142037
  C     -3.132926    1.539187   -0.615243
  H     -3.969009    1.852731    0.008277
  H     -3.563676    1.149825   -1.539140
  H     -2.549846    2.431216   -0.846431
  C     -3.119638   -0.769915    0.387332
  H     -2.034415    0.926375    1.106947
  H     -4.039252   -0.525789    0.916915
  H     -3.394797   -1.252322   -0.551567
  H     -2.575707   -1.486416    1.001340
  C     -0.824738    0.369976   -1.749252
  C      0.528792    0.155752   -2.216084
  H     -1.601982    0.724422   -2.420614
  C      1.638054    0.562299   -1.485643
  C      2.836440    0.155308   -2.138372
  S      0.941882   -0.642760   -3.672477
  C      2.613852   -0.493212   -3.313050
  H      1.542504    1.422327   -0.664073
  H      3.826605    0.384707   -1.772095
  H      3.345896   -0.876306   -4.007957
  H     -0.880432   -3.168967   -0.142864
  H     -0.690870   -2.417007    2.464930
  H      1.858362   -1.650456    2.913216
  O      1.313267    2.425457    0.264035
  O      0.539290    0.897139    1.693307
  C      0.914731    2.092472    1.378202
  C      0.864935    3.080515    2.509075
  H      0.820858    4.097371    2.128629
  H      1.774962    2.986085    3.104861
  H      0.023888    2.893188    3.173347
  H      3.223700   -1.918993    0.627419
  H      1.530341   -2.852348   -1.268437

----------------------------
CARTESIAN COORDINATES (A.U.)
----------------------------
  NO LB      ZA    FRAG     MASS         X           Y           Z
   0 Ir   17.0000*   0   192.220    1.071926   -1.395949    0.934363
   1 C     6.0000    0    12.011    0.021744   -5.319966    0.668915
   2 C     6.0000    0    12.011    0.183888   -4.493285    3.263895
   3 C     6.0000    0    12.011    4.119564   -4.070750    1.465162
   4 C     6.0000    0    12.011    2.408683   -5.002388   -0.451410
   5 C     6.0000    0    12.011    2.773513   -3.834519    3.741042
   6 N     7.0000    0    14.007   -1.967933    0.314899   -0.959143
   7 C     6.0000    0    12.011   -4.381614    0.950122    0.268412
   8 C     6.0000    0    12.011   -5.920372    2.908642   -1.162640
   9 H     1.0000    0     1.008   -7.500341    3.501155    0.015641
  10 H     1.0000    0     1.008   -6.734372    2.172853   -2.908553
  11 H     1.0000    0     1.008   -4.818510    4.594333   -1.599524
  12 C     6.0000    0    12.011   -5.895262   -1.454929    0.731952
  13 H     1.0000    0     1.008   -3.844487    1.750596    2.091827
  14 H     1.0000    0     1.008   -7.633081   -0.993598    1.732718
  15 H     1.0000    0     1.008   -6.415237   -2.366545   -1.042310
  16 H     1.0000    0     1.008   -4.867380   -2.808919    1.892259
  17 C     6.0000    0    12.011   -1.558528    0.699153   -3.305607
  18 C     6.0000    0    12.011    0.999272    0.294329   -4.187791
  19 H     1.0000    0     1.008   -3.027307    1.368959   -4.574297
  20 C     6.0000    0    12.011    3.095474    1.062592   -2.807459
  21 C     6.0000    0    12.011    5.360096    0.293490   -4.040938
  22 S    16.0000    0    32.060    1.779898   -1.214640   -6.939975
  23 C     6.0000    0    12.011    4.939465   -0.932036   -6.260757
  24 H     1.0000    0     1.008    2.914911    2.687809   -1.254917
  25 H     1.0000    0     1.008    7.231235    0.726990   -3.348775
  26 H     1.0000    0     1.008    6.322827   -1.655978   -7.573942
  27 H     1.0000    0     1.008   -1.663775   -5.988479   -0.269974
  28 H     1.0000    0     1.008   -1.305555   -4.567482    4.658043
  29 H     1.0000    0     1.008    3.511796   -3.118910    5.505180
  30 O     8.0000    0    15.999    2.481714    4.583450    0.498953
  31 O     8.0000    0    15.999    1.019110    1.695346    3.199887
  32 C     6.0000    0    12.011    1.728591    3.954200    2.604425
  33 C     6.0000    0    12.011    1.634490    5.821329    4.741464
  34 H     1.0000    0     1.008    1.551197    7.742909    4.022525
  35 H     1.0000    0     1.008    3.354192    5.642883    5.867337
  36 H     1.0000    0     1.008    0.045142    5.467334    5.996757
  37 H     1.0000    0     1.008    6.091910   -3.626372    1.185650
  38 H     1.0000    0     1.008    2.891926   -5.390157   -2.396998
* core charge reduced due to ECP

--------------------------------
INTERNAL COORDINATES (ANGSTROEM)
--------------------------------
 Ir     0   0   0     0.000000000000     0.00000000     0.00000000
 C      1   0   0     2.154138394133     0.00000000     0.00000000
 C      2   1   0     1.443783359719    68.31916033     0.00000000
 C      1   2   3     2.164078582892    64.54947730    81.20223276
 C      2   1   3     1.405475882877    71.35914462   240.79363765
 C      4   1   2     1.404814302135    71.04666783   278.66798359
 N      1   2   3     2.100215550731   100.76475505   241.35277806
 C      7   1   2     1.471859748905   123.54609303    84.53887764
 C      8   7   1     1.520082465968   113.62190091   160.63215021
 H      9   8   7     1.089092253519   108.80250495   189.48144331
 H      9   8   7     1.091208073671   112.95295087    71.41623392
 H      9   8   7     1.090480248903   112.14297053   307.94129208
 C      8   7   1     1.523650895428   109.66293402   286.28846283
 H      8   7   1     1.091453523033   104.64436969    42.59853887
 H     13   8   7     1.088919440273   109.57238599   176.90935982
 H     13   8   7     1.090852955737   111.31099373   295.97641837
 H     13   8   7     1.089146370442   112.19257083    58.01048964
 C      7   1   2     1.276805540977   113.73794831   266.27642073
 C     18   7   1     1.447795897430   116.67966378   350.51533114
 H     18   7   1     1.086493132306   122.09696543   172.87023144
 C     19  18   7     1.388855329901   122.30052168   318.82918551
 C     21  19  18     1.424019014166   110.33528488   176.48829874
 S     19  18   7     1.711569500368   124.65559983   137.15741927
 C     22  21  19     1.360088998798   113.22975138     1.43823322
 H     21  19  18     1.192809019738   120.60314723   338.08685840
 H     22  21  19     1.080372550314   123.72435505   178.11868736
 H     24  22  21     1.079602401052   127.89097855   178.18099299
 H      2   1   3     1.080532618656   123.95445193   119.47373977
 H      3   2   1     1.080299129912   126.52492541   122.26115979
 H      6   4   1     1.080524991949   126.05413932   243.30308787
 O     25  21  19     1.399999991539   174.80115355     1.45721222
 O      1   2   3     2.028704394145   144.32537538   338.93400643
 C     31  25  21     1.229063544209   117.41091091    84.17124800
 C     33  31  25     1.502514227938   120.95435857   169.42487033
 H     34  33  31     1.086583974978   110.68354641    22.77279828
 H     34  33  31     1.091800007175   109.03918746   264.34267633
 H     34  33  31     1.087977636629   111.83460932   145.92440978
 H      4   1   2     1.080059679413   124.05443931   157.45000612
 H      5   2   1     1.080507188721   126.29694890   240.73497391

---------------------------
INTERNAL COORDINATES (A.U.)
---------------------------
 Ir     0   0   0     0.000000000000     0.00000000     0.00000000
 C      1   0   0     4.070731619477     0.00000000     0.00000000
 C      2   1   0     2.728355146581    68.31916033     0.00000000
 C      1   2   3     4.089515853949    64.54947730    81.20223276
 C      2   1   3     2.655964506469    71.35914462   240.79363765
 C      4   1   2     2.654714300051    71.04666783   278.66798359
 N      1   2   3     3.968832213084   100.76475505   241.35277806
 C      7   1   2     2.781411832973   123.54609303    84.53887764
 C      8   7   1     2.872539561655   113.62190091   160.63215021
 H      9   8   7     2.058086093726   108.80250495   189.48144331
 H      9   8   7     2.062084414362   112.95295087    71.41623392
 H      9   8   7     2.060709024877   112.14297053   307.94129208
 C      8   7   1     2.879282916062   109.66293402   286.28846283
 H      8   7   1     2.062548246435   104.64436969    42.59853887
 H     13   8   7     2.057759524019   109.57238599   176.90935982
 H     13   8   7     2.061413338722   111.31099373   295.97641837
 H     13   8   7     2.058188359890   112.19257083    58.01048964
 C      7   1   2     2.412812798721   113.73794831   266.27642073
 C     18   7   1     2.735937743958   116.67966378   350.51533114
 H     18   7   1     2.053174466444   122.09696543   172.87023144
 C     19  18   7     2.624556213150   122.30052168   318.82918551
 C     21  19  18     2.691005946271   110.33528488   176.48829874
 S     19  18   7     3.234397614868   124.65559983   137.15741927
 C     22  21  19     2.570195725488   113.22975138     1.43823322
 H     21  19  18     2.254082377377   120.60314723   338.08685840
 H     22  21  19     2.041608242699   123.72435505   178.11868736
 H     24  22  21     2.040152871512   127.89097855   178.18099299
 H      2   1   3     2.041910728029   123.95445193   119.47373977
 H      3   2   1     2.041469498247   126.52492541   122.26115979
 H      6   4   1     2.041896315642   126.05413932   243.30308787
 O     25  21  19     2.645616571500   174.80115355     1.45721222
 O      1   2   3     3.833695711616   144.32537538   338.93400643
 C     31  25  21     2.322593499742   117.41091091    84.17124800
 C     33  31  25     2.839340403123   120.95435857   169.42487033
 H     34  33  31     2.053346134215   110.68354641    22.77279828
 H     34  33  31     2.063203006573   109.03918746   264.34267633
 H     34  33  31     2.055979773060   111.83460932   145.92440978
 H      4   1   2     2.041017002381   124.05443931   157.45000612
 H      5   2   1     2.041862672417   126.29694890   240.73497391

---------------------
BASIS SET INFORMATION
---------------------
There are 6 groups of distinct atoms

 Group   1 Type Ir  : 7s6p5d1f contracted to 6s3p2d1f pattern {211111/411/41/1}
 Group   2 Type C   : 8s4p1d contracted to 4s2p1d pattern {5111/31/1}
 Group   3 Type N   : 8s4p1d contracted to 4s2p1d pattern {5111/31/1}
 Group   4 Type H   : 4s contracted to 2s pattern {31}
 Group   5 Type S   : 10s7p1d contracted to 4s3p1d pattern {5311/511/1}
 Group   6 Type O   : 8s4p1d contracted to 4s2p1d pattern {5111/31/1}

Atom   0Ir   basis set group =>   1
Atom   1C    basis set group =>   2
Atom   2C    basis set group =>   2
Atom   3C    basis set group =>   2
Atom   4C    basis set group =>   2
Atom   5C    basis set group =>   2
Atom   6N    basis set group =>   3
Atom   7C    basis set group =>   2
Atom   8C    basis set group =>   2
Atom   9H    basis set group =>   4
Atom  10H    basis set group =>   4
Atom  11H    basis set group =>   4
Atom  12C    basis set group =>   2
Atom  13H    basis set group =>   4
Atom  14H    basis set group =>   4
Atom  15H    basis set group =>   4
Atom  16H    basis set group =>   4
Atom  17C    basis set group =>   2
Atom  18C    basis set group =>   2
Atom  19H    basis set group =>   4
Atom  20C    basis set group =>   2
Atom  21C    basis set group =>   2
Atom  22S    basis set group =>   5
Atom  23C    basis set group =>   2
Atom  24H    basis set group =>   4
Atom  25H    basis set group =>   4
Atom  26H    basis set group =>   4
Atom  27H    basis set group =>   4
Atom  28H    basis set group =>   4
Atom  29H    basis set group =>   4
Atom  30O    basis set group =>   6
Atom  31O    basis set group =>   6
Atom  32C    basis set group =>   2
Atom  33C    basis set group =>   2
Atom  34H    basis set group =>   4
Atom  35H    basis set group =>   4
Atom  36H    basis set group =>   4
Atom  37H    basis set group =>   4
Atom  38H    basis set group =>   4
---------------------------------
AUXILIARY/J BASIS SET INFORMATION
---------------------------------
There are 6 groups of distinct atoms

 Group   1 Type Ir  : 11s5p5d3f3g contracted to 8s5p5d2f3g pattern {41111111/11111/11111/21/111}
 Group   2 Type C   : 12s5p4d2f1g contracted to 6s4p3d1f1g pattern {711111/2111/211/2/1}
 Group   3 Type N   : 12s5p4d2f1g contracted to 6s4p3d1f1g pattern {711111/2111/211/2/1}
 Group   4 Type H   : 5s2p1d contracted to 3s1p1d pattern {311/2/1}
 Group   5 Type S   : 14s5p5d2f1g contracted to 8s4p3d1f1g pattern {71111111/2111/311/2/1}
 Group   6 Type O   : 12s5p4d2f1g contracted to 6s4p3d1f1g pattern {711111/2111/211/2/1}

Atom   0Ir   basis set group =>   1
Atom   1C    basis set group =>   2
Atom   2C    basis set group =>   2
Atom   3C    basis set group =>   2
Atom   4C    basis set group =>   2
Atom   5C    basis set group =>   2
Atom   6N    basis set group =>   3
Atom   7C    basis set group =>   2
Atom   8C    basis set group =>   2
Atom   9H    basis set group =>   4
Atom  10H    basis set group =>   4
Atom  11H    basis set group =>   4
Atom  12C    basis set group =>   2
Atom  13H    basis set group =>   4
Atom  14H    basis set group =>   4
Atom  15H    basis set group =>   4
Atom  16H    basis set group =>   4
Atom  17C    basis set group =>   2
Atom  18C    basis set group =>   2
Atom  19H    basis set group =>   4
Atom  20C    basis set group =>   2
Atom  21C    basis set group =>   2
Atom  22S    basis set group =>   5
Atom  23C    basis set group =>   2
Atom  24H    basis set group =>   4
Atom  25H    basis set group =>   4
Atom  26H    basis set group =>   4
Atom  27H    basis set group =>   4
Atom  28H    basis set group =>   4
Atom  29H    basis set group =>   4
Atom  30O    basis set group =>   6
Atom  31O    basis set group =>   6
Atom  32C    basis set group =>   2
Atom  33C    basis set group =>   2
Atom  34H    basis set group =>   4
Atom  35H    basis set group =>   4
Atom  36H    basis set group =>   4
Atom  37H    basis set group =>   4
Atom  38H    basis set group =>   4
-------------------------
ECP PARAMETER INFORMATION
-------------------------

 Group 1, Type Ir ECP Def2-ECP (replacing 60 core electrons, lmax=3)

Atom   0Ir   ECP group =>   1

------------------------------------------------------------------------------
                           ORCA GTO INTEGRAL CALCULATION
                           -- RI-GTO INTEGRALS CHOSEN --
------------------------------------------------------------------------------
------------------------------------------------------------------------------
                   ___                                                        
                  /   \      - P O W E R E D   B Y -                         
                 /     \                                                     
                 |  |  |   _    _      __       _____    __    __             
                 |  |  |  | |  | |    /  \     |  _  \  |  |  /  |          
                  \  \/   | |  | |   /    \    | | | |  |  | /  /          
                 / \  \   | |__| |  /  /\  \   | |_| |  |  |/  /          
                |  |  |   |  __  | /  /__\  \  |    /   |      \           
                |  |  |   | |  | | |   __   |  |    \   |  |\   \          
                \     /   | |  | | |  |  |  |  | |\  \  |  | \   \       
                 \___/    |_|  |_| |__|  |__|  |_| \__\ |__|  \__/        
                                                                              
                      - O R C A' S   B I G   F R I E N D -                    
                                      &                                       
                       - I N T E G R A L  F E E D E R -                       
                                                                              
 v1 FN, 2020, v2 2021                                                         
------------------------------------------------------------------------------


Reading SHARK input file reaction4-IEIP_ts_guess_scan_0-8_orca.SHARKINP.tmp ... ok
----------------------
SHARK INTEGRAL PACKAGE
----------------------

Number of atoms                             ...     39
Number of basis functions                   ...    358
Number of shells                            ...    184
Maximum angular momentum                    ...      3
Integral batch strategy                     ... SHARK/LIBINT Hybrid
RI-J (if used) integral strategy            ... SPLIT-RIJ (Revised 2003 algorithm where possible)
Printlevel                                  ...      1
Contraction scheme used                     ... SEGMENTED contraction
Coulomb Range Separation                    ... NOT USED
Exchange Range Separation                   ... NOT USED
Finite Nucleus Model                        ... NOT USED
Auxiliary Coulomb fitting basis             ... AVAILABLE
   # of basis functions in Aux-J            ...   1231
   # of shells in Aux-J                     ...    405
   Maximum angular momentum in Aux-J        ...      4
Auxiliary J/K fitting basis                 ... NOT available
Auxiliary Correlation fitting basis         ... NOT available
Auxiliary 'external' fitting basis          ... NOT available
Integral threshold                          ...     2.500000e-11
Primitive cut-off                           ...     2.500000e-12
Primitive pair pre-selection threshold      ...     2.500000e-12

Calculating pre-screening integrals         ... done (  0.1 sec) Dimension = 184
Organizing shell pair data                  ... done (  0.1 sec)
Shell pair information
Total number of shell pairs                 ...     17020
Shell pairs after pre-screening             ...     12955
Total number of primitive shell pairs       ...     60705
Primitive shell pairs kept                  ...     29128
          la=0 lb=0:   4967 shell pairs
          la=1 lb=0:   4250 shell pairs
          la=1 lb=1:    855 shell pairs
          la=2 lb=0:   1743 shell pairs
          la=2 lb=1:    785 shell pairs
          la=2 lb=2:    179 shell pairs
          la=3 lb=0:    112 shell pairs
          la=3 lb=1:     42 shell pairs
          la=3 lb=2:     21 shell pairs
          la=3 lb=3:      1 shell pairs

Calculating one electron integrals          ... done (  0.1 sec)
Calculating ECP integrals                   ... done (  0.8 sec)
Calculating RI/J V-Matrix + Cholesky decomp.... done (  0.1 sec)
Calculating Nuclear repulsion               ... done (  0.0 sec) ENN=   2034.347215637719 Eh

SHARK setup successfully completed in   1.4 seconds

Maximum memory used throughout the entire GTOINT-calculation: 90.9 MB
-------------------------------------------------------------------------------
                                 ORCA SCF
-------------------------------------------------------------------------------

------------
SCF SETTINGS
------------
Hamiltonian:
 Density Functional     Method          .... DFT(GTOs)
 Exchange Functional    Exchange        .... PBE
   PBE kappa parameter   XKappa         ....  1.024500
   PBE mue parameter    XMuePBE         ....  0.123457
 Correlation Functional Correlation     .... PBE
   PBE beta parameter  CBetaPBE         ....  0.030000
 LDA part of GGA corr.  LDAOpt          .... PW91-LDA
 Gradients option       PostSCFGGA      .... off
 Hybrid DFT is turned on
   Fraction HF Exchange ScalHFX         ....  0.420000
   Scaling of DF-GGA-X  ScalDFX         ....  0.580000
   Scaling of DF-GGA-C  ScalDFC         ....  1.000000
   Scaling of DF-LDA-C  ScalLDAC        ....  1.000000
   Perturbative correction              ....  0.000000
   Density functional embedding theory  .... OFF
 RI-approximation to the Coulomb term is turned on
   Number of AuxJ basis functions       .... 1231
   RIJ-ON(X) (HFX calculated with O(N)) .... on
   Number of AuxJ basis functions       .... 1231
   RIJ-COSX (HFX calculated with COS-X)).... on


General Settings:
 Integral files         IntName         .... reaction4-IEIP_ts_guess_scan_0-8_orca
 Hartree-Fock type      HFTyp           .... RHF
 Total Charge           Charge          ....    1
 Multiplicity           Mult            ....    1
 Number of Electrons    NEL             ....  164
 Basis Dimension        Dim             ....  358
 Nuclear Repulsion      ENuc            ....   2034.3472156377 Eh

Convergence Acceleration:
 DIIS                   CNVDIIS         .... on
   Start iteration      DIISMaxIt       ....    12
   Startup error        DIISStart       ....  0.200000
   # of expansion vecs  DIISMaxEq       ....     5
   Bias factor          DIISBfac        ....   1.050
   Max. coefficient     DIISMaxC        ....  10.000
 Trust-Rad. Augm. Hess. CNVTRAH         .... auto
   Auto Start mean grad. ratio tolernc. ....  1.125000
   Auto Start start iteration           ....    20
   Auto Start num. interpolation iter.  ....    10
   Max. Number of Micro iterations      ....    16
   Max. Number of Macro iterations      .... Maxiter - #DIIS iter
   Number of Davidson start vectors     ....     2
   Converg. threshold I  (grad. norm)   ....   1.000e-05
   Converg. threshold II (energy diff.) ....   1.000e-08
   Grad. Scal. Fac. for Micro threshold ....   0.100
   Minimum threshold for Micro iter.    ....   0.010
   NR start threshold (gradient norm)   ....   0.001
   Initial trust radius                 ....   0.400
   Minimum AH scaling param. (alpha)    ....   1.000
   Maximum AH scaling param. (alpha)    .... 1000.000
   Orbital update algorithm             .... Taylor
   White noise on init. David. guess    .... on
   Maximum white noise                  ....   0.010
   Quad. conv. algorithm                .... NR
   COSX micro iterations for RIJONX calc.... off
 SOSCF                  CNVSOSCF        .... off
 Level Shifting         CNVShift        .... on
   Level shift para.    LevelShift      ....    0.2500
   Turn off err/grad.   ShiftErr        ....    0.0010
 Zerner damping         CNVZerner       .... off
 Static damping         CNVDamp         .... on
   Fraction old density DampFac         ....    0.7000
   Max. Damping (<1)    DampMax         ....    0.9800
   Min. Damping (>=0)   DampMin         ....    0.0000
   Turn off err/grad.   DampErr         ....    0.1000
 Fernandez-Rico         CNVRico         .... off

SCF Procedure:
 Maximum # iterations   MaxIter         ....   250
 SCF integral mode      SCFMode         .... Direct
   Integral package                     .... SHARK and LIBINT hybrid scheme
 Reset frequency        DirectResetFreq ....    20
 Integral Threshold     Thresh          ....  2.500e-11 Eh
 Primitive CutOff       TCut            ....  2.500e-12 Eh

Convergence Tolerance:
 Convergence Check Mode ConvCheckMode   .... Total+1el-Energy
 Convergence forced     ConvForced      .... 0
 Energy Change          TolE            ....  1.000e-08 Eh
 1-El. energy change                    ....  1.000e-05 Eh
 DIIS Error             TolErr          ....  5.000e-07


Diagonalization of the overlap matrix:
Smallest eigenvalue                        ... 1.061e-03
Time for diagonalization                   ...    0.019 sec
Threshold for overlap eigenvalues          ... 1.000e-08
Number of eigenvalues below threshold      ... 0
Time for construction of square roots      ...    0.008 sec
Total time needed                          ...    0.027 sec

--------------------
INITIAL GUESS: HCORE
--------------------
                      -----------------
                      INTIAL GUESS DONE 
                      -----------------
-------------------
DFT GRID GENERATION
-------------------

General Integration Accuracy     IntAcc      ... 4.159
Radial Grid Type                 RadialGrid  ... OptM3 with GC (2021)
Angular Grid (max. ang.)         AngularGrid ... 3 (Lebedev-194)
Angular grid pruning method      GridPruning ... 4 (adaptive)
Weight generation scheme         WeightScheme... Becke
Basis function cutoff            BFCut       ... 1.0000e-11
Integration weight cutoff        WCut        ... 1.0000e-14
Angular grids for H and He will be reduced by one unit
Partially contracted basis set               ... off
Rotationally invariant grid construction     ... off

Total number of grid points                  ...    93329
Total number of batches                      ...     1480
Average number of points per batch           ...       63
Average number of grid points per atom       ...     2393
Time for grid setup =    1.734 sec

--------------------
COSX GRID GENERATION
--------------------

GRIDX 1
-------
General Integration Accuracy     IntAcc      ... 3.816
Radial Grid Type                 RadialGrid  ... OptM3 with GC (2021)
Angular Grid (max. ang.)         AngularGrid ... 1 (Lebedev-50)
Angular grid pruning method      GridPruning ... 4 (adaptive)
Weight generation scheme         WeightScheme... Becke
Basis function cutoff            BFCut       ... 1.0000e-11
Integration weight cutoff        WCut        ... 1.0000e-14
Angular grids for H and He will be reduced by one unit
Partially contracted basis set               ... on
Rotationally invariant grid construction     ... off

Total number of grid points                  ...    23181
Total number of batches                      ...      381
Average number of points per batch           ...       60
Average number of grid points per atom       ...      594
UseSFitting                                  ... on

GRIDX 2
-------
General Integration Accuracy     IntAcc      ... 4.020
Radial Grid Type                 RadialGrid  ... OptM3 with GC (2021)
Angular Grid (max. ang.)         AngularGrid ... 2 (Lebedev-110)
Angular grid pruning method      GridPruning ... 4 (adaptive)
Weight generation scheme         WeightScheme... Becke
Basis function cutoff            BFCut       ... 1.0000e-11
Integration weight cutoff        WCut        ... 1.0000e-14
Angular grids for H and He will be reduced by one unit
Partially contracted basis set               ... on
Rotationally invariant grid construction     ... off

Total number of grid points                  ...    50328
Total number of batches                      ...      806
Average number of points per batch           ...       62
Average number of grid points per atom       ...     1290
UseSFitting                                  ... on

GRIDX 3
-------
General Integration Accuracy     IntAcc      ... 4.338
Radial Grid Type                 RadialGrid  ... OptM3 with GC (2021)
Angular Grid (max. ang.)         AngularGrid ... 3 (Lebedev-194)
Angular grid pruning method      GridPruning ... 4 (adaptive)
Weight generation scheme         WeightScheme... Becke
Basis function cutoff            BFCut       ... 1.0000e-11
Integration weight cutoff        WCut        ... 1.0000e-14
Angular grids for H and He will be reduced by one unit
Partially contracted basis set               ... on
Rotationally invariant grid construction     ... off

Total number of grid points                  ...   108859
Total number of batches                      ...     1719
Average number of points per batch           ...       63
Average number of grid points per atom       ...     2791
UseSFitting                                  ... on

Time for X-Grid setup             =    4.819 sec

--------------
SCF ITERATIONS
--------------
ITER       Energy         Delta-E        Max-DP      RMS-DP      [F,P]     Damp
               ***  Starting incremental Fock matrix formation  ***
  0   -874.1563020789   0.00000000000019.42954985  0.15024836  2.5966563 0.7000
  1  -1102.4997786775-228.343476598590 9.12818315  0.11340320  1.4873251 0.7000
  2  -1167.7981288720 -65.298350194505 5.38827616  0.06442580  1.0237941 0.7000
  3  -1192.8713254265 -25.073196554458 3.74380793  0.04500502  0.7277313 0.7000
  4  -1210.2231453734 -17.351819946944 2.64019894  0.03546377  0.4477796 0.7000
  5  -1225.6801775521 -15.457032178690 2.17240177  0.03073732  0.3377394 0.7000
  6  -1235.3202244623  -9.640046910244 1.83549163  0.02927592  0.3318318 0.7000
  7  -1242.2736494871  -6.953425024792 1.61193457  0.02618020  0.3305570 0.7000
  8  -1246.5699263261  -4.296276839007 1.63341182  0.02606040  0.3890695 0.7000
  9  -1250.5611662658  -3.991239939653 1.48693667  0.02435703  0.3463643 0.7000
 10  -1253.7294932917  -3.168327025883 1.57106052  0.02578644  0.3767531 0.7000
 11  -1255.5070128454  -1.777519553708 1.50000401  0.02315231  0.3318437 0.7000
                               ***Turning on DIIS***
 12  -1259.2106021707  -3.703589325292 1.52567016  0.02423286  0.3455217 0.7000
 13  -1259.4387176043  -0.228115433666 1.40022822  0.01957063  0.2981979 0.7000
 14  -1268.6478654519  -9.209147847609 0.97291747  0.01383590  0.2065454 0.7000
 15  -1274.9568029092  -6.308937457273 0.67551252  0.00977622  0.1371179 0.7000
 16  -1279.1815684820  -4.224765572783 1.56257082  0.02296392  0.0812775 0.0000
 17  -1288.2836584761  -9.102089994070 0.05444879  0.00107147  0.0724239 0.0000
 18  -1288.3888055933  -0.105147117255 0.05742136  0.00097836  0.0373341 0.0000
 19  -1288.4214634030  -0.032657809656 0.03906299  0.00055251  0.0283929 0.0000
               *** Restarting incremental Fock matrix formation ***
                                   *** Resetting DIIS ***
 20  -1288.4351487040  -0.013685301028 0.02169854  0.00038803  0.0089054 0.0000
 21  -1288.4368609620  -0.001712258022 0.01121872  0.00014290  0.0098217 0.0000
 22  -1288.4381675070  -0.001306544984 0.00518359  0.00008597  0.0023981 0.0000
 23  -1288.4383410726  -0.000173565561 0.00389641  0.00004538  0.0022662 0.0000
 24  -1288.4384190992  -0.000078026621 0.00358900  0.00004624  0.0006173 0.0000
               *** Restarting incremental Fock matrix formation ***
                                   *** Resetting DIIS ***
 25  -1288.4393250079  -0.000905908696 0.00491449  0.00008407  0.0008297 0.0000
 26  -1288.4393444788  -0.000019470868 0.00091898  0.00001269  0.0006020 0.0000
 27  -1288.4393448837  -0.000000404889 0.00057097  0.00000696  0.0007600 0.0000
 28  -1288.4393468091  -0.000001925398 0.00030005  0.00000266  0.0001090 0.0000
 29  -1288.4393469042  -0.000000095120 0.00017950  0.00000176  0.0000839 0.0000
 30  -1288.4393469540  -0.000000049861 0.00013099  0.00000101  0.0000581 0.0000
 31  -1288.4393469766  -0.000000022581 0.00005061  0.00000058  0.0000159 0.0000
 32  -1288.4393469701   0.000000006511 0.00002609  0.00000028  0.0000106 0.0000
 33  -1288.4393469598   0.000000010288 0.00001346  0.00000013  0.0000046 0.0000
 34  -1288.4393469599  -0.000000000090 0.00000544  0.00000006  0.0000046 0.0000
 35  -1288.4393469549   0.000000005033 0.00000456  0.00000004  0.0000020 0.0000
 36  -1288.4393469588  -0.000000003883 0.00000274  0.00000003  0.0000018 0.0000
                            ***DIIS convergence achieved***

               *****************************************************
               *                     SUCCESS                       *
               *           SCF CONVERGED AFTER  37 CYCLES          *
               *****************************************************

Old exchange energy                            =    -59.658990308 Eh
New exchange energy                            =    -59.658965175 Eh
Exchange energy change after final integration =      0.000025133 Eh
Total energy after final integration           =  -1288.439321823 Eh
Final COS-X integration done in                =    58.102 sec

----------------
TOTAL SCF ENERGY
----------------

Total Energy       :        -1288.43932182 Eh          -35060.21637 eV

Components:
Nuclear Repulsion  :         2034.34721564 Eh           55357.40205 eV
Electronic Energy  :        -3322.78653746 Eh          -90417.61843 eV
One Electron Energy:        -5824.19129998 Eh         -158484.30246 eV
Two Electron Energy:         2501.40476252 Eh           68066.68403 eV
Max COSX asymmetry :            0.00001596 Eh               0.00043 eV

Virial components:
Potential Energy   :        -2501.56679592 Eh          -68071.09318 eV
Kinetic Energy     :         1213.12747410 Eh           33010.87681 eV
Virial Ratio       :            2.06208074


DFT components:
N(Alpha)           :       82.000293477214 electrons
N(Beta)            :       82.000293477214 electrons
N(Total)           :      164.000586954428 electrons
E(X)               :      -79.591534024871 Eh       
E(C)               :       -7.452551128862 Eh       
E(XC)              :      -87.044085153733 Eh       
DFET-embed. en.    :        0.000000000000 Eh       

---------------
SCF CONVERGENCE
---------------

  Last Energy change         ...    3.4613e-09  Tolerance :   1.0000e-08
  Last MAX-Density change    ...    0.0000e+00  Tolerance :   1.0000e-07
  Last RMS-Density change    ...    0.0000e+00  Tolerance :   5.0000e-09
  Last DIIS Error            ...    7.7660e-07  Tolerance :   5.0000e-07

             **** THE GBW FILE WAS UPDATED (reaction4-IEIP_ts_guess_scan_0-8_orca.gbw) ****
             **** DENSITY reaction4-IEIP_ts_guess_scan_0-8_orca.scfp WAS UPDATED ****
             **** ENERGY FILE WAS UPDATED (reaction4-IEIP_ts_guess_scan_0-8_orca.en.tmp) ****
             **** THE GBW FILE WAS UPDATED (reaction4-IEIP_ts_guess_scan_0-8_orca.gbw) ****
             **** DENSITY reaction4-IEIP_ts_guess_scan_0-8_orca.scfp WAS UPDATED ****
----------------
ORBITAL ENERGIES
----------------

  NO   OCC          E(Eh)            E(eV) 
   0   2.0000     -89.757113     -2442.4152 
   1   2.0000     -19.625244      -534.0300 
   2   2.0000     -19.587671      -533.0076 
   3   2.0000     -14.840603      -403.8333 
   4   2.0000     -10.682424      -290.6835 
   5   2.0000     -10.661616      -290.1173 
   6   2.0000     -10.639484      -289.5151 
   7   2.0000     -10.637858      -289.4708 
   8   2.0000     -10.635705      -289.4122 
   9   2.0000     -10.634832      -289.3885 
  10   2.0000     -10.633430      -289.3503 
  11   2.0000     -10.627745      -289.1956 
  12   2.0000     -10.616771      -288.8970 
  13   2.0000     -10.606833      -288.6266 
  14   2.0000     -10.579134      -287.8729 
  15   2.0000     -10.576538      -287.8022 
  16   2.0000     -10.557611      -287.2872 
  17   2.0000     -10.552407      -287.1456 
  18   2.0000     -10.533346      -286.6269 
  19   2.0000      -8.396417      -228.4781 
  20   2.0000      -6.286534      -171.0653 
  21   2.0000      -6.282905      -170.9665 
  22   2.0000      -6.281080      -170.9169 
  23   2.0000      -4.032422      -109.7278 
  24   2.0000      -2.352037       -64.0022 
  25   2.0000      -2.317414       -63.0600 
  26   2.0000      -2.315678       -63.0128 
  27   2.0000      -1.306751       -35.5585 
  28   2.0000      -1.213134       -33.0111 
  29   2.0000      -1.210074       -32.9278 
  30   2.0000      -1.176443       -32.0126 
  31   2.0000      -1.121834       -30.5267 
  32   2.0000      -1.026231       -27.9252 
  33   2.0000      -0.991410       -26.9776 
  34   2.0000      -0.981313       -26.7029 
  35   2.0000      -0.961997       -26.1773 
  36   2.0000      -0.955876       -26.0107 
  37   2.0000      -0.927731       -25.2449 
  38   2.0000      -0.903946       -24.5976 
  39   2.0000      -0.872100       -23.7310 
  40   2.0000      -0.796399       -21.6711 
  41   2.0000      -0.792108       -21.5544 
  42   2.0000      -0.790258       -21.5040 
  43   2.0000      -0.779612       -21.2143 
  44   2.0000      -0.773903       -21.0590 
  45   2.0000      -0.758175       -20.6310 
  46   2.0000      -0.744227       -20.2515 
  47   2.0000      -0.722487       -19.6599 
  48   2.0000      -0.695040       -18.9130 
  49   2.0000      -0.673292       -18.3212 
  50   2.0000      -0.665070       -18.0975 
  51   2.0000      -0.652466       -17.7545 
  52   2.0000      -0.649950       -17.6860 
  53   2.0000      -0.641665       -17.4606 
  54   2.0000      -0.638579       -17.3766 
  55   2.0000      -0.630938       -17.1687 
  56   2.0000      -0.624321       -16.9886 
  57   2.0000      -0.612471       -16.6662 
  58   2.0000      -0.611484       -16.6393 
  59   2.0000      -0.608381       -16.5549 
  60   2.0000      -0.595521       -16.2050 
  61   2.0000      -0.586370       -15.9559 
  62   2.0000      -0.574689       -15.6381 
  63   2.0000      -0.568873       -15.4798 
  64   2.0000      -0.562669       -15.3110 
  65   2.0000      -0.554741       -15.0953 
  66   2.0000      -0.552711       -15.0400 
  67   2.0000      -0.548494       -14.9253 
  68   2.0000      -0.539655       -14.6848 
  69   2.0000      -0.534091       -14.5334 
  70   2.0000      -0.527685       -14.3591 
  71   2.0000      -0.522146       -14.2083 
  72   2.0000      -0.516445       -14.0532 
  73   2.0000      -0.508794       -13.8450 
  74   2.0000      -0.490861       -13.3570 
  75   2.0000      -0.480807       -13.0834 
  76   2.0000      -0.462344       -12.5810 
  77   2.0000      -0.452454       -12.3119 
  78   2.0000      -0.440959       -11.9991 
  79   2.0000      -0.421910       -11.4808 
  80   2.0000      -0.416971       -11.3463 
  81   2.0000      -0.403791       -10.9877 
  82   0.0000      -0.200832        -5.4649 
  83   0.0000      -0.166783        -4.5384 
  84   0.0000      -0.141890        -3.8610 
  85   0.0000      -0.100241        -2.7277 
  86   0.0000      -0.076636        -2.0854 
  87   0.0000      -0.069656        -1.8954 
  88   0.0000      -0.058719        -1.5978 
  89   0.0000      -0.052872        -1.4387 
  90   0.0000      -0.043790        -1.1916 
  91   0.0000      -0.036781        -1.0009 
  92   0.0000      -0.005529        -0.1504 
  93   0.0000      -0.002785        -0.0758 
  94   0.0000       0.008649         0.2353 
  95   0.0000       0.021301         0.5796 
  96   0.0000       0.030096         0.8189 
  97   0.0000       0.036700         0.9987 
  98   0.0000       0.043617         1.1869 
  99   0.0000       0.053944         1.4679 
 100   0.0000       0.067923         1.8483 
 101   0.0000       0.070039         1.9059 
 102   0.0000       0.072730         1.9791 
 103   0.0000       0.076928         2.0933 
 104   0.0000       0.081692         2.2229 
 105   0.0000       0.087387         2.3779 
 106   0.0000       0.092943         2.5291 
 107   0.0000       0.100156         2.7254 
 108   0.0000       0.107762         2.9324 
 109   0.0000       0.113147         3.0789 
 110   0.0000       0.115079         3.1315 
 111   0.0000       0.119789         3.2596 
 112   0.0000       0.122599         3.3361 
 113   0.0000       0.125584         3.4173 
 114   0.0000       0.131413         3.5759 
 115   0.0000       0.137383         3.7384 
 116   0.0000       0.141773         3.8578 
 117   0.0000       0.150970         4.1081 
 118   0.0000       0.157107         4.2751 
 119   0.0000       0.159248         4.3334 
 120   0.0000       0.165692         4.5087 
 121   0.0000       0.176531         4.8036 
 122   0.0000       0.186630         5.0785 
 123   0.0000       0.202005         5.4968 
 124   0.0000       0.222677         6.0594 
 125   0.0000       0.230876         6.2824 
 126   0.0000       0.259547         7.0626 
 127   0.0000       0.272874         7.4253 
 128   0.0000       0.279529         7.6064 
 129   0.0000       0.295502         8.0410 
 130   0.0000       0.300279         8.1710 
 131   0.0000       0.310549         8.4505 
 132   0.0000       0.322258         8.7691 
 133   0.0000       0.338801         9.2192 
 134   0.0000       0.343943         9.3592 
 135   0.0000       0.358484         9.7549 
 136   0.0000       0.363610         9.8943 
 137   0.0000       0.372775        10.1437 
 138   0.0000       0.384305        10.4575 
 139   0.0000       0.396585        10.7916 
 140   0.0000       0.400476        10.8975 
 141   0.0000       0.416173        11.3247 
 142   0.0000       0.422745        11.5035 
 143   0.0000       0.436682        11.8827 
 144   0.0000       0.443836        12.0774 
 145   0.0000       0.447861        12.1869 
 146   0.0000       0.453200        12.3322 
 147   0.0000       0.459763        12.5108 
 148   0.0000       0.467836        12.7305 
 149   0.0000       0.475191        12.9306 
 150   0.0000       0.481631        13.1058 
 151   0.0000       0.487390        13.2626 
 152   0.0000       0.496902        13.5214 
 153   0.0000       0.500910        13.6304 
 154   0.0000       0.509894        13.8749 
 155   0.0000       0.515453        14.0262 
 156   0.0000       0.527211        14.3461 
 157   0.0000       0.533657        14.5216 
 158   0.0000       0.542754        14.7691 
 159   0.0000       0.549556        14.9542 
 160   0.0000       0.556925        15.1547 
 161   0.0000       0.567304        15.4371 
 162   0.0000       0.574778        15.6405 
 163   0.0000       0.581358        15.8196 
 164   0.0000       0.586129        15.9494 
 165   0.0000       0.597315        16.2538 
 166   0.0000       0.607195        16.5226 
[...]

----------------------
LOEWDIN ATOMIC CHARGES
----------------------
   0 Ir:   -0.203031
   1 C :   -0.039325
   2 C :   -0.052283
   3 C :   -0.043785
   4 C :   -0.052991
   5 C :   -0.027720
   6 N :   -0.011225
   7 C :   -0.068013
   8 C :   -0.364982
   9 H :    0.157600
  10 H :    0.134222
  11 H :    0.146887
  12 C :   -0.343580
  13 H :    0.155970
  14 H :    0.153287
  15 H :    0.137389
  16 H :    0.134274
  17 C :    0.037680
  18 C :   -0.196655
  19 H :    0.162678
  20 C :   -0.184660
  21 C :   -0.149482
  22 S :    0.450604
  23 C :   -0.261989
  24 H :    0.283462
  25 H :    0.160983
  26 H :    0.166845
  27 H :    0.186592
  28 H :    0.187099
  29 H :    0.194305
  30 O :   -0.278065
  31 O :   -0.208338
  32 C :    0.156822
  33 C :   -0.376479
  34 H :    0.159685
  35 H :    0.167047
  36 H :    0.153045
  37 H :    0.189047
  38 H :    0.187078

-------------------------------
LOEWDIN REDUCED ORBITAL CHARGES
-------------------------------
  0 Irs       :     2.456561  s :     2.456561
      pz      :     2.234866  p :     6.736126
      px      :     2.232355
      py      :     2.268905
      dz2     :     1.856949  d :     7.920823
      dxz     :     1.753981
      dyz     :     1.244717
      dx2y2   :     1.647889
      dxy     :     1.417286
      f0      :     0.011668  f :     0.089522
      f+1     :     0.002989
      f-1     :     0.012480
      f+2     :     0.017740
      f-2     :     0.016334
      f+3     :     0.011262
      f-3     :     0.017049
  1 C s       :     2.875683  s :     2.875683
      pz      :     1.046867  p :     3.059403
      px      :     1.088953
      py      :     0.923584
      dz2     :     0.026621  d :     0.104239
      dxz     :     0.027216
      dyz     :     0.017372
      dx2y2   :     0.018358
      dxy     :     0.014672
  2 C s       :     2.874944  s :     2.874944
      pz      :     1.047096  p :     3.073856
      px      :     1.074266
      py      :     0.952494
      dz2     :     0.025987  d :     0.103483
      dxz     :     0.027773
      dyz     :     0.017835
      dx2y2   :     0.018511
      dxy     :     0.013378
  3 C s       :     2.876129  s :     2.876129
      pz      :     1.037582  p :     3.065133
      px      :     1.075435
      py      :     0.952116
      dz2     :     0.024443  d :     0.102523
      dxz     :     0.032412
      dyz     :     0.016427
      dx2y2   :     0.014875
      dxy     :     0.014366
  4 C s       :     2.874618  s :     2.874618
      pz      :     1.095088  p :     3.076138
      px      :     1.034964
      py      :     0.946086
      dz2     :     0.022782  d :     0.102235
      dxz     :     0.032035
      dyz     :     0.012835
      dx2y2   :     0.017472
      dxy     :     0.017112
  5 C s       :     2.877119  s :     2.877119
      pz      :     1.067169  p :     3.046750
      px      :     1.032033
      py      :     0.947548
      dz2     :     0.025681  d :     0.103852
      dxz     :     0.030079
      dyz     :     0.015481
      dx2y2   :     0.015466
      dxy     :     0.017146
  6 N s       :     3.122542  s :     3.122542
      pz      :     1.273241  p :     3.790493
      px      :     1.289136
      py      :     1.228116
      dz2     :     0.029677  d :     0.098190
      dxz     :     0.027733
      dyz     :     0.019024
      dx2y2   :     0.011560
      dxy     :     0.010195
  7 C s       :     2.862078  s :     2.862078
      pz      :     1.062259  p :     3.071516
      px      :     0.935623
      py      :     1.073635
      dz2     :     0.022140  d :     0.134419
      dxz     :     0.028830
      dyz     :     0.021919
      dx2y2   :     0.028844
      dxy     :     0.032687
  8 C s       :     2.953122  s :     2.953122
      pz      :     1.127318  p :     3.344419
      px      :     1.123261
      py      :     1.093841
      dz2     :     0.010574  d :     0.067441
      dxz     :     0.018071
      dyz     :     0.012464
      dx2y2   :     0.008376
      dxy     :     0.017956
  9 H s       :     0.842400  s :     0.842400
 10 H s       :     0.865778  s :     0.865778
 11 H s       :     0.853113  s :     0.853113
 12 C s       :     2.952844  s :     2.952844
      pz      :     1.137215  p :     3.322848
      px      :     1.113006
      py      :     1.072627
      dz2     :     0.008525  d :     0.067888
      dxz     :     0.013452
      dyz     :     0.017903
      dx2y2   :     0.010657
      dxy     :     0.017351
 13 H s       :     0.844030  s :     0.844030
 14 H s       :     0.846713  s :     0.846713
 15 H s       :     0.862611  s :     0.862611
 16 H s       :     0.865726  s :     0.865726
 17 C s       :     2.879132  s :     2.879132
      pz      :     1.024218  p :     2.942061
      px      :     1.063248
      py      :     0.854595
      dz2     :     0.040888  d :     0.141127
      dxz     :     0.051615
      dyz     :     0.024327
      dx2y2   :     0.011682
      dxy     :     0.012613
 18 C s       :     2.897071  s :     2.897071
      pz      :     1.038577  p :     3.188402
      px      :     1.087355
      py      :     1.062469
      dz2     :     0.029145  d :     0.111182
      dxz     :     0.027524
      dyz     :     0.016542
      dx2y2   :     0.023306
      dxy     :     0.014665
 19 H s       :     0.837322  s :     0.837322
 20 C s       :     2.931919  s :     2.931919
      pz      :     1.084800  p :     3.164665
      px      :     1.042033
      py      :     1.037832
      dz2     :     0.010079  d :     0.088076
      dxz     :     0.031359
      dyz     :     0.008909
      dx2y2   :     0.016987
      dxy     :     0.020742
 21 C s       :     2.899439  s :     2.899439
      pz      :     1.060598  p :     3.156076
      px      :     1.090896
      py      :     1.004581
      dz2     :     0.022702  d :     0.093967
      dxz     :     0.025900
      dyz     :     0.014813
      dx2y2   :     0.018252
      dxy     :     0.012301
 22 S s       :     5.507404  s :     5.507404
      pz      :     3.303675  p :     9.890577
      px      :     3.085259
      py      :     3.501644
      dz2     :     0.036455  d :     0.151414
      dxz     :     0.029713
      dyz     :     0.025462
      dx2y2   :     0.034589
      dxy     :     0.025195
 23 C s       :     2.965582  s :     2.965582
      pz      :     1.113124  p :     3.210269
      px      :     1.021839
      py      :     1.075306
      dz2     :     0.019396  d :     0.086138
      dxz     :     0.025422
      dyz     :     0.012533
      dx2y2   :     0.015567
      dxy     :     0.013221
 24 H s       :     0.716538  s :     0.716538
 25 H s       :     0.839017  s :     0.839017
 26 H s       :     0.833155  s :     0.833155
 27 H s       :     0.813408  s :     0.813408
 28 H s       :     0.812901  s :     0.812901
 29 H s       :     0.805695  s :     0.805695
 30 O s       :     3.503596  s :     3.503596
      pz      :     1.462049  p :     4.719829
      px      :     1.522585
      py      :     1.735195
      dz2     :     0.017998  d :     0.054640
      dxz     :     0.012556
      dyz     :     0.016992
      dx2y2   :     0.003703
      dxy     :     0.003391
 31 O s       :     3.445184  s :     3.445184
      pz      :     1.697300  p :     4.704307
      px      :     1.629748
      py      :     1.377259
      dz2     :     0.009386  d :     0.058847
      dxz     :     0.003436
      dyz     :     0.016530
      dx2y2   :     0.015733
      dxy     :     0.013762
 32 C s       :     2.813467  s :     2.813467
      pz      :     1.008422  p :     2.706661
      px      :     0.749775
      py      :     0.948464
      dz2     :     0.077331  d :     0.323050
      dxz     :     0.044365
      dyz     :     0.109823
      dx2y2   :     0.044521
      dxy     :     0.047011
 33 C s       :     2.959872  s :     2.959872
      pz      :     1.095712  p :     3.353906
      px      :     1.149614
      py      :     1.108581
      dz2     :     0.006132  d :     0.062701
      dxz     :     0.017163
      dyz     :     0.019058
      dx2y2   :     0.018037
      dxy     :     0.002311
 34 H s       :     0.840315  s :     0.840315
 35 H s       :     0.832953  s :     0.832953
 36 H s       :     0.846955  s :     0.846955
 37 H s       :     0.810953  s :     0.810953
 38 H s       :     0.812922  s :     0.812922


                      *****************************
                      * MAYER POPULATION ANALYSIS *
                      *****************************

  NA   - Mulliken gross atomic population
  ZA   - Total nuclear charge
  QA   - Mulliken gross atomic charge
  VA   - Mayer's total valence
  BVA  - Mayer's bonded valence
  FA   - Mayer's free valence

  ATOM       NA         ZA         QA         VA         BVA        FA
  0 Ir    16.3752    17.0000     0.6248     3.7579     3.7579     0.0000
  1 C      6.2075     6.0000    -0.2075     3.6933     3.6933    -0.0000
  2 C      6.2979     6.0000    -0.2979     3.7435     3.7435    -0.0000
  3 C      6.2292     6.0000    -0.2292     3.7270     3.7270     0.0000
  4 C      6.2441     6.0000    -0.2441     3.7197     3.7197     0.0000
  5 C      6.1668     6.0000    -0.1668     3.6877     3.6877    -0.0000
  6 N      7.4295     7.0000    -0.4295     3.2158     3.2158    -0.0000
  7 C      6.1158     6.0000    -0.1158     3.6993     3.6993    -0.0000
  8 C      6.6958     6.0000    -0.6958     3.6876     3.6876    -0.0000
  9 H      0.7269     1.0000     0.2731     0.8962     0.8962     0.0000
 10 H      0.7733     1.0000     0.2267     0.9091     0.9091     0.0000
 11 H      0.7394     1.0000     0.2606     0.8974     0.8974     0.0000
 12 C      6.6401     6.0000    -0.6401     3.6729     3.6729     0.0000
 13 H      0.7200     1.0000     0.2800     0.8753     0.8753    -0.0000
 14 H      0.7346     1.0000     0.2654     0.8962     0.8962     0.0000
 15 H      0.7690     1.0000     0.2310     0.9093     0.9093    -0.0000
 16 H      0.7674     1.0000     0.2326     0.9051     0.9051     0.0000
 17 C      5.9336     6.0000     0.0664     3.6371     3.6371     0.0000
 18 C      6.2294     6.0000    -0.2294     3.7098     3.7098     0.0000
 19 H      0.7082     1.0000     0.2918     0.8858     0.8858     0.0000
 20 C      6.3831     6.0000    -0.3831     3.4449     3.4449     0.0000
 21 C      6.1516     6.0000    -0.1516     3.7557     3.7557     0.0000
 22 S     15.7124    16.0000     0.2876     2.5507     2.5507    -0.0000
 23 C      6.4264     6.0000    -0.4264     3.7409     3.7409     0.0000
 24 H      0.5019     1.0000     0.4981     0.7358     0.7358     0.0000
 25 H      0.7350     1.0000     0.2650     0.9029     0.9029     0.0000
 26 H      0.7046     1.0000     0.2954     0.8983     0.8983    -0.0000
 27 H      0.7063     1.0000     0.2937     0.9009     0.9009     0.0000
 28 H      0.7047     1.0000     0.2953     0.9035     0.9035     0.0000
 29 H      0.6923     1.0000     0.3077     0.8914     0.8914    -0.0000
 30 O      8.4877     8.0000    -0.4877     2.0986     2.0986     0.0000
 31 O      8.5435     8.0000    -0.5435     2.0724     2.0724    -0.0000
 32 C      5.3843     6.0000     0.6157     3.9191     3.9191    -0.0000
 33 C      6.7465     6.0000    -0.7465     3.6680     3.6680     0.0000
 34 H      0.7304     1.0000     0.2696     0.8953     0.8953    -0.0000
 35 H      0.7338     1.0000     0.2662     0.8955     0.8955    -0.0000
 36 H      0.7472     1.0000     0.2528     0.9012     0.9012    -0.0000
 37 H      0.7020     1.0000     0.2980     0.8987     0.8987    -0.0000
 38 H      0.7026     1.0000     0.2974     0.9023     0.9023    -0.0000

  Mayer bond orders larger than 0.100000
B(  0-Ir,  1-C ) :   0.4229 B(  0-Ir,  2-C ) :   0.5639 B(  0-Ir,  3-C ) :   0.4642 
B(  0-Ir,  4-C ) :   0.4551 B(  0-Ir,  5-C ) :   0.4041 B(  0-Ir,  6-N ) :   0.4672 
B(  0-Ir, 20-C ) :   0.2000 B(  0-Ir, 31-O ) :   0.5900 B(  1-C ,  2-C ) :   1.1101 
B(  1-C ,  4-C ) :   1.2460 B(  1-C , 27-H ) :   0.9024 B(  2-C ,  5-C ) :   1.1264 
B(  2-C , 28-H ) :   0.9057 B(  3-C ,  4-C ) :   1.1029 B(  3-C ,  5-C ) :   1.2369 
B(  3-C , 37-H ) :   0.9017 B(  4-C , 38-H ) :   0.8968 B(  5-C , 29-H ) :   0.8974 
B(  6-N ,  7-C ) :   0.8906 B(  6-N , 17-C ) :   1.6970 B(  7-C ,  8-C ) :   0.9929 
B(  7-C , 12-C ) :   0.9697 B(  7-C , 13-H ) :   0.8722 B(  8-C ,  9-H ) :   0.9032 
B(  8-C , 10-H ) :   0.9122 B(  8-C , 11-H ) :   0.9079 B( 12-C , 14-H ) :   0.9061 
B( 12-C , 15-H ) :   0.9152 B( 12-C , 16-H ) :   0.9107 B( 17-C , 18-C ) :   1.0500 
B( 17-C , 19-H ) :   0.8736 B( 18-C , 20-C ) :   1.3150 B( 18-C , 22-S ) :   1.2042 
B( 20-C , 21-C ) :   1.2700 B( 20-C , 24-H ) :   0.4992 B( 21-C , 23-C ) :   1.5443 
B( 21-C , 25-H ) :   0.9046 B( 22-S , 23-C ) :   1.2032 B( 23-C , 26-H ) :   0.8932 
B( 24-H , 30-O ) :   0.2172 B( 30-O , 32-C ) :   1.6976 B( 31-O , 32-C ) :   1.2689 
B( 32-C , 33-C ) :   0.9475 B( 33-C , 34-H ) :   0.9052 B( 33-C , 35-H ) :   0.8987 
B( 33-C , 36-H ) :   0.9095 


------------------
HIRSHFELD ANALYSIS
------------------

Total integrated alpha density =     82.000285494
Total integrated beta density  =     82.000285494

  ATOM     CHARGE      SPIN    
   0 Ir   0.213675    0.000000
   1 C    0.008303    0.000000
   2 C    0.005954    0.000000
   3 C    0.006902    0.000000
   4 C   -0.002063    0.000000
   5 C    0.017938    0.000000
   6 N   -0.069313    0.000000
   7 C    0.054361    0.000000
   8 C   -0.070701    0.000000
   9 H    0.054178    0.000000
  10 H    0.038169    0.000000
  11 H    0.044105    0.000000
  12 C   -0.070322    0.000000
  13 H    0.047116    0.000000
  14 H    0.051765    0.000000
  15 H    0.036688    0.000000
  16 H    0.030475    0.000000
  17 C    0.102617    0.000000
  18 C   -0.011974    0.000000
  19 H    0.077784    0.000000
  20 C   -0.064921    0.000000
  21 C   -0.038251    0.000000
  22 S    0.109785    0.000000
  23 C   -0.027780    0.000000
  24 H    0.057985    0.000000
  25 H    0.068021    0.000000
  26 H    0.076636    0.000000
  27 H    0.085148    0.000000
  28 H    0.087012    0.000000
  29 H    0.095508    0.000000
  30 O   -0.254910    0.000000
  31 O   -0.260039    0.000000
  32 C    0.242746    0.000000
  33 C   -0.068301    0.000000
  34 H    0.054169    0.000000
  35 H    0.059016    0.000000
  36 H    0.047999    0.000000
  37 H    0.087288    0.000000
  38 H    0.076663    0.000000

  TOTAL   0.999429    0.000000

-------
TIMINGS
-------

Total SCF time: 0 days 0 hours 5 min 16 sec 

Total time                  ....     316.113 sec
Sum of individual times     ....     315.449 sec  ( 99.8%)

Fock matrix formation       ....     306.163 sec  ( 96.9%)
  Split-RI-J                ....      23.553 sec  (  7.7% of F)
  Chain of spheres X        ....     266.106 sec  ( 86.9% of F)
  XC integration            ....      16.483 sec  (  5.4% of F)
    Basis function eval.    ....       7.747 sec  ( 47.0% of XC)
    Density eval.           ....       4.362 sec  ( 26.5% of XC)
    XC-Functional eval.     ....       1.223 sec  (  7.4% of XC)
    XC-Potential eval.      ....       2.519 sec  ( 15.3% of XC)
Diagonalization             ....       0.279 sec  (  0.1%)
Density matrix formation    ....       0.044 sec  (  0.0%)
Population analysis         ....       1.562 sec  (  0.5%)
Initial guess               ....       0.043 sec  (  0.0%)
Orbital Transformation      ....       0.000 sec  (  0.0%)
Orbital Orthonormalization  ....       0.033 sec  (  0.0%)
DIIS solution               ....       0.109 sec  (  0.0%)
Grid generation             ....       7.247 sec  (  2.3%)

Maximum memory used throughout the entire SCF-calculation: 173.4 MB


-------------------------------------------------------------------------------
                          DFT DISPERSION CORRECTION                            
                                                                               
                              DFTD3 V3.1  Rev 1                                
                          USING Becke-Johnson damping                          
-------------------------------------------------------------------------------
The PBEh-3c composite method is recognized
Using three-body term ABC
Active option DFTDOPT                   ...         4   

molecular C6(AA) [au] = 19601.748693 


            DFT-D V3
 parameters
 s6 scaling factor         :     1.0000 
 a1 scaling factor         :     0.4860 
 s8 scaling factor         :     0.0000 
 a2 scaling factor         :     4.5000 
 Damping factor alpha9(ATM):    16.0000 
 ad hoc parameters k1-k3   :    16.0000     1.3333    -4.0000 

 Edisp/kcal,au: -19.347501214420  -0.030832202461 
 E6   /kcal   : -19.697414029 
 E8   /kcal   :  -0.000000000 
 E6(ABC)      :   0.349912814 
 % E8         :   0.000000000 
 % E6(ABC)    :  -1.808568509 

-------------------------   ----------------
Dispersion correction           -0.030832202
-------------------------   ----------------

 ** NOTE ** -> element ir will be treated as co
NOTIFICATION: Different basis set in ORCA and otool_gcp:
ORCA: 358  gCP: 357 
If you are NOT using ECPs, check your basis set inputs!
------------------   -----------------
gCP correction             0.076766573
------------------   -----------------

-------------------------   --------------------
FINAL SINGLE POINT ENERGY     -1288.393435163270
-------------------------   --------------------

                                *** OPTIMIZATION RUN DONE ***

                            ***************************************
                            *     ORCA property calculations      *
                            ***************************************

                                    ---------------------
                                    Active property flags
                                    ---------------------
   (+) Dipole Moment


------------------------------------------------------------------------------
                       ORCA ELECTRIC PROPERTIES CALCULATION
------------------------------------------------------------------------------

Dipole Moment Calculation                       ... on
Quadrupole Moment Calculation                   ... off
Polarizability Calculation                      ... off
GBWName                                         ... reaction4-IEIP_ts_guess_scan_0-8_orca.gbw
Electron density                                ... reaction4-IEIP_ts_guess_scan_0-8_orca.scfp
The origin for moment calculation is the CENTER OF MASS  = ( 0.833571, -0.651661 -0.095788)

-------------
DIPOLE MOMENT
-------------
                                X             Y             Z
Electronic contribution:     32.86106     -68.84454      76.85629
Nuclear contribution   :    -33.50124      67.58252     -76.98316
                        -----------------------------------------
Total Dipole Moment    :     -0.64018      -1.26202      -0.12687
                        -----------------------------------------
Magnitude (a.u.)       :      1.42078
Magnitude (Debye)      :      3.61134



--------------------
Rotational spectrum 
--------------------
 
Rotational constants in cm-1:     0.010686     0.009011     0.008216 
Rotational constants in MHz :   320.352361   270.137131   246.314891 

 Dipole components along the rotational axes: 
x,y,z [a.u.] :    -0.109906    -0.577757     1.293345 
x,y,z [Debye]:    -0.279359    -1.468542     3.287421 

 

Timings for individual modules:

Sum of individual times         ...     4161.401 sec (=  69.357 min)
GTO integral calculation        ...       13.070 sec (=   0.218 min)   0.3 %
SCF iterations                  ...     3397.111 sec (=  56.619 min)  81.6 %
SCF Gradient evaluation         ...      749.577 sec (=  12.493 min)  18.0 %
Geometry relaxation             ...        1.643 sec (=   0.027 min)   0.0 %
                             ****ORCA TERMINATED NORMALLY****
TOTAL RUN TIME: 0 days 1 hours 9 minutes 23 seconds 969 msec
