
                                 *****************
                                 * O   R   C   A *
                                 *****************

                                            #,                                       
                                            ###                                      
                                            ####                                     
                                            #####                                    
                                            ######                                   
                                           ########,                                 
                                     ,,################,,,,,                         
                               ,,#################################,,                 
                          ,,##########################################,,             
                       ,#########################################, ''#####,          
                    ,#############################################,,   '####,        
                  ,##################################################,,,,####,       
                ,###########''''           ''''###############################       
              ,#####''   ,,,,##########,,,,          '''####'''          '####       
            ,##' ,,,,###########################,,,                        '##       
           ' ,,###''''                  '''############,,,                           
         ,,##''                                '''############,,,,        ,,,,,,###''
      ,#''                                            '''#######################'''  
     '                                                          ''''####''''         
             ,#######,   #######,   ,#######,      ##                                
            ,#'     '#,  ##    ##  ,#'     '#,    #''#        ######   ,####,        
            ##       ##  ##   ,#'  ##            #'  '#       #        #'  '#        
            ##       ##  #######   ##           ,######,      #####,   #    #        
            '#,     ,#'  ##    ##  '#,     ,#' ,#      #,         ##   #,  ,#        
             '#######'   ##     ##  '#######'  #'      '#     #####' # '####'        



                  #######################################################
                  #                        -***-                        #
                  #          Department of theory and spectroscopy      #
                  #    Directorship and core code : Frank Neese         #
                  #        Max Planck Institute fuer Kohlenforschung    #
                  #                Kaiser Wilhelm Platz 1               #
                  #                 D-45470 Muelheim/Ruhr               #
                  #                      Germany                        #
                  #                                                     #
                  #                  All rights reserved                #
                  #                        -***-                        #
                  #######################################################


                         Program Version 5.0.3 -  RELEASE  -


 With contributions from (in alphabetic order):
   Daniel Aravena         : Magnetic Suceptibility
   Michael Atanasov       : Ab Initio Ligand Field Theory (pilot matlab implementation)
   Alexander A. Auer      : GIAO ZORA, VPT2 properties, NMR spectrum
   Ute Becker             : Parallelization
   Giovanni Bistoni       : ED, misc. LED, open-shell LED, HFLD
   Martin Brehm           : Molecular dynamics
   Dmytro Bykov           : SCF Hessian
   Vijay G. Chilkuri      : MRCI spin determinant printing, contributions to CSF-ICE
   Dipayan Datta          : RHF DLPNO-CCSD density
   Achintya Kumar Dutta   : EOM-CC, STEOM-CC
   Dmitry Ganyushin       : Spin-Orbit,Spin-Spin,Magnetic field MRCI
   Miquel Garcia          : C-PCM and meta-GGA Hessian, CC/C-PCM, Gaussian charge scheme
   Yang Guo               : DLPNO-NEVPT2, F12-NEVPT2, CIM, IAO-localization
   Andreas Hansen         : Spin unrestricted coupled pair/coupled cluster methods
   Benjamin Helmich-Paris : MC-RPA, TRAH-SCF, COSX integrals
   Lee Huntington         : MR-EOM, pCC
   Robert Izsak           : Overlap fitted RIJCOSX, COSX-SCS-MP3, EOM
   Marcus Kettner         : VPT2
   Christian Kollmar      : KDIIS, OOCD, Brueckner-CCSD(T), CCSD density, CASPT2, CASPT2-K
   Simone Kossmann        : Meta GGA functionals, TD-DFT gradient, OOMP2, MP2 Hessian
   Martin Krupicka        : Initial AUTO-CI
   Lucas Lang             : DCDCAS
   Marvin Lechner         : AUTO-CI (C++ implementation), FIC-MRCC
   Dagmar Lenk            : GEPOL surface, SMD
   Dimitrios Liakos       : Extrapolation schemes; Compound Job, initial MDCI parallelization
   Dimitrios Manganas     : Further ROCIS development; embedding schemes
   Dimitrios Pantazis     : SARC Basis sets
   Anastasios Papadopoulos: AUTO-CI, single reference methods and gradients
   Taras Petrenko         : DFT Hessian,TD-DFT gradient, ASA, ECA, R-Raman, ABS, FL, XAS/XES, NRVS
   Peter Pinski           : DLPNO-MP2, DLPNO-MP2 Gradient
   Christoph Reimann      : Effective Core Potentials
   Marius Retegan         : Local ZFS, SOC
   Christoph Riplinger    : Optimizer, TS searches, QM/MM, DLPNO-CCSD(T), (RO)-DLPNO pert. Triples
   Tobias Risthaus        : Range-separated hybrids, TD-DFT gradient, RPA, STAB
   Michael Roemelt        : Original ROCIS implementation
   Masaaki Saitow         : Open-shell DLPNO-CCSD energy and density
   Barbara Sandhoefer     : DKH picture change effects
   Avijit Sen             : IP-ROCIS
   Kantharuban Sivalingam : CASSCF convergence, NEVPT2, FIC-MRCI
   Bernardo de Souza      : ESD, SOC TD-DFT
   Georgi Stoychev        : AutoAux, RI-MP2 NMR, DLPNO-MP2 response
   Willem Van den Heuvel  : Paramagnetic NMR
   Boris Wezisla          : Elementary symmetry handling
   Frank Wennmohs         : Technical directorship


 We gratefully acknowledge several colleagues who have allowed us to
 interface, adapt or use parts of their codes:
   Stefan Grimme, W. Hujo, H. Kruse, P. Pracht,  : VdW corrections, initial TS optimization,
                  C. Bannwarth, S. Ehlert          DFT functionals, gCP, sTDA/sTD-DF
   Ed Valeev, F. Pavosevic, A. Kumar             : LibInt (2-el integral package), F12 methods
   Garnet Chan, S. Sharma, J. Yang, R. Olivares  : DMRG
   Ulf Ekstrom                                   : XCFun DFT Library
   Mihaly Kallay                                 : mrcc  (arbitrary order and MRCC methods)
   Jiri Pittner, Ondrej Demel                    : Mk-CCSD
   Frank Weinhold                                : gennbo (NPA and NBO analysis)
   Christopher J. Cramer and Donald G. Truhlar   : smd solvation model
   Lars Goerigk                                  : TD-DFT with DH, B97 family of functionals
   V. Asgeirsson, H. Jonsson                     : NEB implementation
   FAccTs GmbH                                   : IRC, NEB, NEB-TS, DLPNO-Multilevel, CI-OPT
                                                   MM, QMMM, 2- and 3-layer-ONIOM, Crystal-QMMM,
                                                   LR-CPCM, SF, NACMEs, symmetry and pop. for TD-DFT,
                                                   nearIR, NL-DFT gradient (VV10), updates on ESD,
                                                   ML-optimized integration grids
   S Lehtola, MJT Oliveira, MAL Marques          : LibXC Library
   Liviu Ungur et al                             : ANISO software


 Your calculation uses the libint2 library for the computation of 2-el integrals
 For citations please refer to: http://libint.valeyev.net

 Your ORCA version has been built with support for libXC version: 5.1.0
 For citations please refer to: https://tddft.org/programs/libxc/

 This ORCA versions uses:
   CBLAS   interface :  Fast vector & matrix operations
   LAPACKE interface :  Fast linear algebra routines
   SCALAPACK package :  Parallel linear algebra routines
   Shared memory     :  Shared parallel matrices
   BLAS/LAPACK       :  OpenBLAS 0.3.15  USE64BITINT DYNAMIC_ARCH NO_AFFINITY SkylakeX SINGLE_THREADED
        Core in use  :  SkylakeX
   Copyright (c) 2011-2014, The OpenBLAS Project


Your calculation utilizes the geometrical counterpoise correction gCP
Please cite in your paper:
H.Kruse, S. Grimme J.Chem.Phys., 136, (2012), 154101 
   

Your calculation utilizes the atom-pairwise dispersion correction
with the Becke-Johnson damping scheme (D3BJ)
Cite in your paper:
S.Grimme, S.Ehrlich, L.Goerigk, J Comput Chem, (2011), 32, 1456–1465 
S.Grimme, J.Antony, S.Ehrlich and H.Krieg, J.Chem.Phys., 132, (2010), 154104 
   

Your calculation employs the composite approach PBEh-3c.
Please cite in your paper:
S. Grimme, J. G. Brandenburg, C. Bannwarth, A. Hansen J.Chem.Phys., 143, (2015), 054107 
   

================================================================================

cite the ECPs for Ir [Def2-ECP] as follows:
Ce-Yb(ecp-28): M. Dolg, H. Stoll, H.Preuss, J. Chem. Phys., 1989, 90, 1730-1734.
Y-Cd(ecp-28), Hf-Hg(ecp-46): D. Andrae,U. Haeussermann, M. Dolg, H. Stoll, H. Preuss, Theor. Chim. Acta, 1990, 77, 123-141.
In-Sb(ecp-28), Tl-Bi(ecp-46): B. Metz, H. Stoll, M. Dolg, J. Chem. Phys., 2000, 113, 2563-2569.
Te-Xe(ecp-28), Po-Rn(ecp-46): K. A. Peterson, D. Figgen, E. Goll, H. Stoll, M. Dolg, J. Chem. Phys., 2003, 119, 11113-11123.
Rb(ecp-28), Cs(ecp-46): T. Leininger, A. Nicklass, W. Kuechle, H. Stoll, M. Dolg, A. Bergner, Chem. Phys. Lett., 1996, 255, 274-280.
Sr(ecp-28), Ba(ecp-46): M. Kaupp, P. V. Schleyer, H. Stoll and H. Preuss, J. Chem. Phys., 1991, 94, 1360-1366.
La(ecp-46): M. Dolg, H. Stoll, A. Savin, H. Preuss, Theor. Chim. Acta, 1989, 75, 173-194.
Lu(ecp-28): X. Cao, M. Dolg, J. Chem. Phys., 2001, 115, 7348-7355.

ECP parameters for Ir [Def2-ECP] have been obtained from:
TURBOMOLE (7.0.2)

----- Orbital basis set information -----
Your calculation utilizes the basis: def2-mSVP

----- AuxJ basis set information -----
Your calculation utilizes the auxiliary basis: def2/J
   F. Weigend, Phys. Chem. Chem. Phys. 8, 1057 (2006).

================================================================================
                                        WARNINGS
                       Please study these warnings very carefully!
================================================================================


WARNING: Geometry Optimization
  ===> : Switching off AutoStart
         For restart on a previous wavefunction, please use MOREAD

WARNING: No Hueckel Guess possible with ECP basis!
  ===> : Switching to HCORE guess!

INFO   : the flag for use of the SHARK integral package has been found!

================================================================================
                                       INPUT FILE
================================================================================
NAME = reaction4-IEIP_ts_guess_scan_8-7_orca.inp
|  1> ! Opt PBEh-3c
|  2> %geom Constraints
|  3> { B 0 20 2.257142857142857 C }
|  4> { B 24 30 1.4 C }
|  5>     end
|  6> end
|  7> %output 
|  8> xyzfile=True 
|  9> end 
| 10> %scf 
| 11> maxiter 250 
| 12> end
| 13> %output
| 14> Print[P_Hirshfeld] = 1
| 15> end
| 16> % maxcore
| 17> 4000
| 18> *xyz 1 1
| 19> Ir   0.61055935  -0.71989704   0.45006595 
| 20> C    0.07129007  -2.81615955   0.36758200 
| 21> C    0.04769626  -2.35064158   1.72889588 
| 22> C    2.19868267  -2.11615685   0.92287854 
| 23> C    1.37769678  -2.65784596  -0.13464905 
| 24> C    1.38150016  -1.95821431   2.06156355 
| 25> N   -1.04479663   0.14023210  -0.52096039 
| 26> C   -2.31604545   0.41536049   0.16784370 
| 27> C   -3.10766598   1.55982101  -0.44657826 
| 28> H   -3.93409609   1.81239917   0.21631831 
| 29> H   -3.55073886   1.30080992  -1.40921835 
| 30> H   -2.50103290   2.45759969  -0.56745563 
| 31> C   -3.14290021  -0.86326540   0.24095916 
| 32> H   -2.02790991   0.70204033   1.18027473 
| 33> H   -4.05307143  -0.67991672   0.81022685 
| 34> H   -3.43456329  -1.20311011  -0.75362149 
| 35> H   -2.60535419  -1.66966780   0.73728441 
| 36> C   -0.87593328   0.39334992  -1.76417962 
| 37> C    0.45847020   0.20474728  -2.26936192 
| 38> H   -1.67869821   0.76696237  -2.39269632 
| 39> C    1.53878088   0.29208826  -1.39500602 
| 40> C    2.74859819  -0.03713075  -2.07379018 
| 41> S    0.90639032  -0.24285412  -3.84616450 
| 42> C    2.55686256  -0.34009249  -3.38643207 
| 43> H    1.54110968   1.24747561  -0.62165484 
| 44> H    3.72664346   0.00511138  -1.61699415 
| 45> H    3.30243942  -0.59382800  -4.12466791 
| 46> H   -0.77327724  -3.20088116  -0.18581185 
| 47> H   -0.79309700  -2.37846503   2.40566081 
| 48> H    1.69297320  -1.53756400   3.00712250 
| 49> O    1.46047082   2.40235315   0.19072397 
| 50> O    0.54022118   0.96095769   1.61794921 
| 51> C    0.98452377   2.12048645   1.29610481 
| 52> C    0.92714272   3.15643771   2.38180512 
| 53> H    0.91249926   4.15825603   1.96131055 
| 54> H    1.82181473   3.06824538   3.00118221 
| 55> H    0.06666145   3.00945878   3.03061237 
| 56> H    3.25467937  -1.90027268   0.86446802 
| 57> H    1.71084432  -2.90903922  -1.13085002 
| 58> *
| 59> 
| 60>                          ****END OF INPUT****
================================================================================

                       *****************************
                       * Geometry Optimization Run *
                       *****************************

Geometry optimization settings:
Update method            Update   .... BFGS
Choice of coordinates    CoordSys .... Z-matrix Internals
Initial Hessian          InHess   .... Almoef's Model

Convergence Tolerances:
Energy Change            TolE     ....  5.0000e-06 Eh
Max. Gradient            TolMAXG  ....  3.0000e-04 Eh/bohr
RMS Gradient             TolRMSG  ....  1.0000e-04 Eh/bohr
Max. Displacement        TolMAXD  ....  4.0000e-03 bohr
RMS Displacement         TolRMSD  ....  2.0000e-03 bohr
Strict Convergence                ....  False
------------------------------------------------------------------------------
                        ORCA OPTIMIZATION COORDINATE SETUP
------------------------------------------------------------------------------

The optimization will be done in new redundant internal coordinates
Making redundant internal coordinates   ...  (new redundants) done
Evaluating the initial hessian          ...  (Almloef) done
Evaluating the coordinates              ...  done
Calculating the B-matrix                .... done
Calculating the G-matrix                .... done
Diagonalizing the G-matrix              .... done
Imposing constraints:
 Iter   0:  RMS(Cart)=    0.0178428594 RMS(Int)=    0.0073747438
 Iter   1:  RMS(Cart)=    0.0022063956 RMS(Int)=    0.0009484031
 Iter   2:  RMS(Cart)=    0.0002833387 RMS(Int)=    0.0001217206
 Iter   3:  RMS(Cart)=    0.0000363228 RMS(Int)=    0.0000155767
 Iter   4:  RMS(Cart)=    0.0000046460 RMS(Int)=    0.0000019908
 Iter   5:  RMS(Cart)=    0.0000005937 RMS(Int)=    0.0000002543
 Iter   6:  RMS(Cart)=    0.0000000758 RMS(Int)=    0.0000000325
CONVERGED
Small eigenvalue found = 1.375e-02
Small eigenvalue found = 2.291e-02
The first mode is                       ....  280
The number of degrees of freedom        ....  111
Storing new coordinates                 .... done

    -----------------------------------------------------------------
                    Redundant Internal Coordinates


    -----------------------------------------------------------------
         Definition                    Initial Value    Approx d2E/dq
    -----------------------------------------------------------------
      1. B(C   1,Ir  0)                  2.1660         0.084041   
      2. B(C   2,C   1)                  1.4386         0.522058   
      3. B(C   2,Ir  0)                  2.1472         0.089996   
      4. B(C   3,Ir  0)                  2.1666         0.083807   
      5. B(C   4,C   3)                  1.4443         0.511933   
      6. B(C   4,Ir  0)                  2.1645         0.084462   
      7. B(C   4,C   1)                  1.4089         0.583649   
      8. B(C   5,Ir  0)                  2.1732         0.081742   
      9. B(C   5,C   2)                  1.4307         0.540245   
     10. B(C   5,C   3)                  1.4112         0.579603   
     11. B(N   6,Ir  0)                  2.1034         0.094877   
     12. B(C   7,N   6)                  1.4718         0.414338   
     13. B(C   8,C   7)                  1.5212         0.385887   
     14. B(H   9,C   8)                  1.0891         0.361247   
     15. B(H  10,C   8)                  1.0909         0.358903   
     16. B(H  11,C   8)                  1.0902         0.359784   
     17. B(C  12,C   7)                  1.5244         0.381283   
     18. B(H  13,C   7)                  1.0910         0.358814   
     19. B(H  14,C  12)                  1.0891         0.361320   
     20. B(H  15,C  12)                  1.0908         0.359099   
     21. B(H  16,C  12)                  1.0888         0.361634   
     22. B(C  17,N   6)                  1.2747         0.838517   
     23. B(C  18,C  17)                  1.4343         0.521409   
     24. B(H  19,C  17)                  1.0859         0.365644   
     25. B(C  20,Ir  0)                  2.2571         0.051386 C 
     26. B(C  20,C  18)                  1.3926         0.618969   
     27. B(C  21,C  20)                  1.4265         0.547881   
     28. B(S  22,C  18)                  1.6991         0.540997   
     29. B(C  23,C  21)                  1.3605         0.695732   
     30. B(C  23,S  22)                  1.7152         0.508506   
     31. B(H  24,C  20)                  1.2296         0.215972   
     32. B(H  25,C  21)                  1.0803         0.373181   
     33. B(H  26,C  23)                  1.0795         0.374301   
     34. B(H  27,C   1)                  1.0805         0.372845   
     35. B(H  28,C   2)                  1.0797         0.374008   
     36. B(H  29,C   5)                  1.0808         0.372532   
     37. B(O  30,H  24)                  1.4000         0.097990 C 
     38. B(O  31,Ir  0)                  2.0475         0.116166   
     39. B(C  32,O  30)                  1.2362         0.985097   
     40. B(C  32,O  31)                  1.2825         0.829767   
     41. B(C  33,C  32)                  1.5017         0.414438   
     42. B(H  34,C  33)                  1.0866         0.364644   
     43. B(H  35,C  33)                  1.0917         0.357837   
     44. B(H  36,C  33)                  1.0877         0.363223   
     45. B(H  37,C   3)                  1.0794         0.374372   
     46. B(H  38,C   4)                  1.0801         0.373510   
     47. A(C   1,Ir  0,N   6)          100.4563         0.249180   
     48. A(C   1,Ir  0,C   3)           64.3821         0.245867   
     49. A(C   2,Ir  0,N   6)          112.1829         0.251682   
     50. A(C   2,Ir  0,C   5)           38.6729         0.247419   
     51. A(N   6,Ir  0,O  31)           84.2672         0.260124   
     52. A(C  20,Ir  0,O  31)           96.3375         0.239021   
     53. A(C   2,Ir  0,C  20)          156.5374         0.231619   
     54. A(C   2,Ir  0,O  31)          105.9586         0.259309   
     55. A(C   1,Ir  0,C   5)           64.2512         0.244984   
     56. A(C   3,Ir  0,C   4)           38.9575         0.246044   
     57. A(C   2,Ir  0,C   3)           64.7669         0.248316   
     58. A(C   3,Ir  0,C  20)           99.2465         0.229338   
     59. A(C   4,Ir  0,N   6)          121.3667         0.249362   
     60. A(C   1,Ir  0,O  31)          143.8594         0.256690   
     61. A(C   5,Ir  0,O  31)           93.2673         0.255641   
     62. A(C   5,Ir  0,C  20)          134.5105         0.228547   
     63. A(C   4,Ir  0,C  20)           91.8920         0.229585   
     64. A(C   2,Ir  0,C   4)           64.7983         0.248598   
     65. A(C   1,Ir  0,C  20)          119.6994         0.229426   
     66. A(C   3,Ir  0,N   6)          160.2680         0.249079   
     67. A(C   1,Ir  0,C   4)           37.9730         0.246144   
     68. A(C   4,Ir  0,O  31)          154.3018         0.256880   
     69. A(C   1,Ir  0,C   2)           38.9637         0.248417   
     70. A(C   3,Ir  0,O  31)          115.4541         0.256584   
     71. A(C   5,Ir  0,N   6)          148.6254         0.248178   
     72. A(C   3,Ir  0,C   5)           37.9538         0.244885   
     73. A(N   6,Ir  0,C  20)           76.7221         0.232302   
     74. A(C   4,Ir  0,C   5)           64.2056         0.245160   
     75. A(C   2,C   1,H  27)          125.9212         0.344842   
     76. A(Ir  0,C   1,C   2)           69.8139         0.312848   
     77. A(C   2,C   1,C   4)          108.4532         0.416387   
     78. A(C   4,C   1,H  27)          125.6111         0.351382   
     79. A(Ir  0,C   1,H  27)          123.9747         0.268401   
     80. A(Ir  0,C   1,C   4)           70.9583         0.318570   
     81. A(Ir  0,C   2,C   1)           71.2223         0.316343   
     82. A(Ir  0,C   2,C   5)           71.6439         0.318112   
     83. A(C   1,C   2,C   5)          107.0613         0.410711   
     84. A(Ir  0,C   2,H  28)          126.6624         0.271331   
     85. A(C   5,C   2,H  28)          126.0217         0.347014   
     86. A(C   1,C   2,H  28)          126.6819         0.345022   
     87. A(C   4,C   3,C   5)          107.6592         0.414426   
     88. A(Ir  0,C   3,C   4)           70.4433         0.311717   
     89. A(Ir  0,C   3,C   5)           71.2742         0.318064   
     90. A(Ir  0,C   3,H  37)          125.2036         0.268453   
     91. A(C   5,C   3,H  37)          126.0494         0.351212   
     92. A(C   4,C   3,H  37)          126.2645         0.343946   
     93. A(Ir  0,C   4,C   1)           71.0688         0.318830   
     94. A(Ir  0,C   4,H  38)          124.5263         0.268677   
     95. A(Ir  0,C   4,C   3)           70.5992         0.312110   
     96. A(C   3,C   4,H  38)          125.9448         0.343813   
     97. A(C   1,C   4,C   3)          107.9870         0.414939   
     98. A(C   1,C   4,H  38)          126.0639         0.351488   
     99. A(Ir  0,C   5,H  29)          121.9481         0.267244   
    100. A(Ir  0,C   5,C   2)           69.6832         0.313177   
    101. A(C   3,C   5,H  29)          125.6528         0.350919   
    102. A(Ir  0,C   5,C   3)           70.7721         0.316774   
    103. A(C   2,C   5,C   3)          108.7733         0.418416   
    104. A(C   2,C   5,H  29)          125.4152         0.346784   
    105. A(Ir  0,N   6,C  17)          115.0728         0.341201   
    106. A(C   7,N   6,C  17)          122.1631         0.420731   
    107. A(Ir  0,N   6,C   7)          122.7581         0.304007   
    108. A(C   8,C   7,H  13)          108.3354         0.325860   
    109. A(C  12,C   7,H  13)          108.6110         0.325218   
    110. A(N   6,C   7,C   8)          113.6467         0.369599   
    111. A(N   6,C   7,C  12)          109.5206         0.368838   
    112. A(C   8,C   7,C  12)          111.6012         0.366653   
    113. A(N   6,C   7,H  13)          104.7918         0.327724   
    114. A(C   7,C   8,H   9)          108.8756         0.326223   
    115. A(C   7,C   8,H  10)          112.9020         0.325874   
    116. A(H   9,C   8,H  10)          106.4965         0.290833   
    117. A(C   7,C   8,H  11)          112.0095         0.326005   
    118. A(H   9,C   8,H  11)          107.3811         0.290945   
    119. A(H  10,C   8,H  11)          108.8848         0.290647   
    120. A(C   7,C  12,H  14)          109.7041         0.325590   
    121. A(C   7,C  12,H  15)          111.2615         0.325260   
    122. A(H  14,C  12,H  15)          107.7943         0.290867   
    123. A(C   7,C  12,H  16)          112.0411         0.325637   
    124. A(H  14,C  12,H  16)          107.3978         0.291188   
    125. A(H  15,C  12,H  16)          108.4755         0.290906   
    126. A(N   6,C  17,C  18)          115.3095         0.441345   
    127. A(N   6,C  17,H  19)          122.4935         0.370219   
    128. A(C  18,C  17,H  19)          122.1510         0.343643   
    129. A(C  17,C  18,S  22)          127.1487         0.433308   
    130. A(C  20,C  18,S  22)          113.4301         0.446937   
    131. A(C  17,C  18,C  20)          119.2499         0.420677   
    132. A(C  18,C  20,C  21)          109.9171         0.424415   
    133. A(Ir  0,C  20,H  24)           80.6846         0.230839   
    134. A(C  18,C  20,H  24)          116.5187         0.323984   
    135. A(C  21,C  20,H  24)          118.5916         0.317584   
    136. A(Ir  0,C  20,C  18)          100.0502         0.297129   
    137. A(Ir  0,C  20,C  21)          128.0669         0.291461   
    138. A(C  20,C  21,C  23)          113.1714         0.433409   
    139. A(C  20,C  21,H  25)          123.8405         0.347706   
    140. A(C  23,C  21,H  25)          122.8900         0.362080   
    141. A(C  18,S  22,C  23)           91.0795         0.455395   
    142. A(C  21,C  23,S  22)          112.4001         0.451418   
    143. A(C  21,C  23,H  26)          127.9399         0.362265   
    144. A(S  22,C  23,H  26)          119.6373         0.361418   
    145. A(Ir  0,O  31,C  32)          125.7421         0.352399   
    146. A(O  30,C  32,O  31)          124.2554         0.491611   
    147. A(O  30,C  32,C  33)          120.2948         0.435923   
    148. A(O  31,C  32,C  33)          115.4340         0.422708   
    149. A(C  32,C  33,H  34)          110.9009         0.330598   
    150. A(C  32,C  33,H  35)          108.8523         0.329570   
    151. A(H  34,C  33,H  35)          107.7628         0.291125   
    152. A(C  32,C  33,H  36)          111.6090         0.330384   
    153. A(H  34,C  33,H  36)          110.1683         0.291809   
    154. A(H  35,C  33,H  36)          107.3973         0.290946   
    155. D(C   2,C   1,Ir  0,N   6)   -112.4805         0.001695   
    156. D(C   4,C   1,Ir  0,C   2)   -118.9247         0.001695   
    157. D(H  27,C   1,Ir  0,C   3)   -158.7477         0.001695   
    158. D(C   4,C   1,Ir  0,C  20)     48.0113         0.001695   
    159. D(C   2,C   1,Ir  0,C   3)     80.8550         0.001695   
    160. D(C   4,C   1,Ir  0,N   6)    128.5948         0.001695   
    161. D(H  27,C   1,Ir  0,C   2)    120.3973         0.001695   
    162. D(C   2,C   1,Ir  0,O  31)    -17.8647         0.001695   
    163. D(H  27,C   1,Ir  0,N   6)      7.9167         0.001695   
    164. D(C   2,C   1,Ir  0,C  20)    166.9359         0.001695   
    165. D(C   4,C   1,Ir  0,C   3)    -38.0696         0.001695   
    166. D(H  27,C   1,Ir  0,C  20)    -72.6668         0.001695   
    167. D(H  27,C   1,Ir  0,C   4)   -120.6781         0.001695   
    168. D(H  27,C   1,Ir  0,O  31)    102.5326         0.001695   
    169. D(C   2,C   1,Ir  0,C   5)     38.5522         0.001695   
    170. D(H  27,C   1,Ir  0,C   5)    158.9495         0.001695   
    171. D(C   4,C   1,Ir  0,C   5)    -80.3725         0.001695   
    172. D(C   4,C   1,Ir  0,O  31)   -136.7893         0.001695   
    173. D(C   2,C   1,Ir  0,C   4)    118.9247         0.001695   
    174. D(H  28,C   2,Ir  0,C   5)    121.6986         0.001723   
    175. D(H  28,C   2,C   1,C   4)   -177.0652         0.021635   
    176. D(C   5,C   2,C   1,H  27)    178.9290         0.021635   
    177. D(C   1,C   2,Ir  0,N   6)     78.9014         0.001723   
    178. D(C   1,C   2,Ir  0,C   3)    -79.7828         0.001723   
    179. D(Ir  0,C   2,C   1,C   4)     60.7165         0.021635   
    180. D(H  28,C   2,Ir  0,C   1)   -122.2414         0.001723   
    181. D(H  28,C   2,Ir  0,C  20)   -151.7890         0.001723   
    182. D(C   1,C   2,Ir  0,C   5)   -116.0601         0.001723   
    183. D(C   5,C   2,Ir  0,C   3)     36.2773         0.001723   
    184. D(H  28,C   2,Ir  0,C   4)   -158.7675         0.001723   
    185. D(H  28,C   2,Ir  0,C   3)    157.9758         0.001723   
    186. D(Ir  0,C   2,C   1,H  27)   -117.9613         0.021635   
    187. D(C   1,C   2,Ir  0,C   4)    -36.5262         0.001723   
    188. D(C   5,C   2,Ir  0,C   1)    116.0601         0.001723   
    189. D(C   1,C   2,Ir  0,C  20)    -29.5477         0.001723   
    190. D(C   5,C   2,Ir  0,O  31)    -74.7862         0.001723   
    191. D(C   5,C   2,Ir  0,N   6)   -165.0385         0.001723   
    192. D(H  28,C   2,C   1,Ir  0)    122.2182         0.021635   
    193. D(C   5,C   2,C   1,Ir  0)    -63.1098         0.021635   
    194. D(C   1,C   2,Ir  0,O  31)    169.1537         0.001723   
    195. D(C   5,C   2,Ir  0,C  20)     86.5124         0.001723   
    196. D(H  28,C   2,Ir  0,N   6)    -43.3399         0.001723   
    197. D(C   5,C   2,Ir  0,C   4)     79.5339         0.001723   
    198. D(C   5,C   2,C   1,C   4)     -2.3932         0.021635   
    199. D(H  28,C   2,Ir  0,O  31)     46.9123         0.001723   
    200. D(H  28,C   2,C   1,H  27)      4.2569         0.021635   
    201. D(C   4,C   3,Ir  0,N   6)     -5.0929         0.001693   
    202. D(C   5,C   3,Ir  0,C   1)    -80.2934         0.001693   
    203. D(H  37,C   3,Ir  0,C   5)   -121.4193         0.001693   
    204. D(H  37,C   3,Ir  0,C   2)   -158.3729         0.001693   
    205. D(C   4,C   3,Ir  0,O  31)    176.9031         0.001693   
    206. D(H  37,C   3,Ir  0,N   6)    116.0789         0.001693   
    207. D(C   5,C   3,Ir  0,C  20)    161.1103         0.001693   
    208. D(H  37,C   3,Ir  0,C   1)    158.2873         0.001693   
    209. D(H  37,C   3,Ir  0,C   4)    121.1718         0.001693   
    210. D(C   4,C   3,Ir  0,C   5)    117.4089         0.001693   
    211. D(C   5,C   3,Ir  0,C   4)   -117.4089         0.001693   
    212. D(C   5,C   3,Ir  0,O  31)     59.4942         0.001693   
    213. D(C   4,C   3,Ir  0,C  20)    -81.4808         0.001693   
    214. D(C   4,C   3,Ir  0,C   1)     37.1155         0.001693   
    215. D(C   4,C   3,Ir  0,C   2)     80.4553         0.001693   
    216. D(C   5,C   3,Ir  0,N   6)   -122.5018         0.001693   
    217. D(C   5,C   3,Ir  0,C   2)    -36.9536         0.001693   
    218. D(H  37,C   3,Ir  0,C  20)     39.6911         0.001693   
    219. D(H  37,C   3,Ir  0,O  31)    -61.9250         0.001693   
    220. D(C   1,C   4,Ir  0,C  20)   -139.7601         0.001696   
    221. D(C   1,C   4,Ir  0,C   2)     37.4657         0.001696   
    222. D(C   3,C   4,Ir  0,C   2)    -80.3678         0.001696   
    223. D(C   1,C   4,Ir  0,C   5)     80.5033         0.001696   
    224. D(C   1,C   4,Ir  0,N   6)    -64.1781         0.001696   
    225. D(C   3,C   4,Ir  0,C   5)    -37.3301         0.001696   
    226. D(C   3,C   4,Ir  0,C   1)   -117.8334         0.001696   
    227. D(C   1,C   4,Ir  0,O  31)    111.3745         0.001696   
    228. D(C   1,C   4,Ir  0,C   3)    117.8334         0.001696   
    229. D(H  38,C   4,C   1,Ir  0)   -119.4372         0.027323   
    230. D(C   3,C   4,Ir  0,C  20)    102.4064         0.001696   
    231. D(C   3,C   4,Ir  0,O  31)     -6.4590         0.001696   
    232. D(Ir  0,C   4,C   1,C   2)    -59.9999         0.027323   
    233. D(H  38,C   4,Ir  0,C   1)    121.2950         0.001696   
    234. D(H  38,C   4,Ir  0,C   3)   -120.8716         0.001696   
    235. D(H  38,C   4,Ir  0,C   5)   -158.2017         0.001696   
    236. D(H  38,C   4,Ir  0,N   6)     57.1169         0.001696   
    237. D(H  38,C   4,Ir  0,C  20)    -18.4651         0.001696   
    238. D(H  38,C   4,Ir  0,C   2)    158.7606         0.001696   
    239. D(Ir  0,C   4,C   1,H  27)    118.6831         0.027323   
    240. D(H  38,C   4,Ir  0,O  31)   -127.3306         0.001696   
    241. D(C   3,C   4,C   1,Ir  0)     61.2773         0.027323   
    242. D(C   3,C   4,C   1,C   2)      1.2774         0.027323   
    243. D(H  38,C   4,C   1,C   2)   -179.4371         0.027323   
    244. D(C   3,C   4,Ir  0,N   6)    177.9885         0.001696   
    245. D(C   3,C   4,C   1,H  27)    179.9604         0.027323   
    246. D(Ir  0,C   4,C   3,H  37)   -119.8774         0.020778   
    247. D(Ir  0,C   4,C   3,C   5)     61.9246         0.020778   
    248. D(H  38,C   4,C   3,C   5)   -178.9389         0.020778   
    249. D(C   1,C   4,C   3,C   5)      0.3476         0.020778   
    250. D(C   1,C   4,C   3,H  37)    178.5457         0.020778   
    251. D(H  38,C   4,C   3,Ir  0)    119.1364         0.020778   
    252. D(H  38,C   4,C   1,H  27)     -0.7541         0.027323   
    253. D(H  38,C   4,C   3,H  37)     -0.7409         0.020778   
    254. D(C   1,C   4,C   3,Ir  0)    -61.5770         0.020778   
    255. D(H  29,C   5,C   2,H  28)     -7.0407         0.023230   
    256. D(C   2,C   5,Ir  0,C   4)    -81.1993         0.001684   
    257. D(C   2,C   5,Ir  0,C   3)   -119.5106         0.001684   
    258. D(C   3,C   5,C   2,C   1)      2.6178         0.023230   
    259. D(C   2,C   5,Ir  0,C  20)   -146.1316         0.001684   
    260. D(C   2,C   5,Ir  0,O  31)    111.6778         0.001684   
    261. D(H  29,C   5,Ir  0,O  31)     -8.1478         0.001684   
    262. D(C   3,C   5,Ir  0,C   2)    119.5106         0.001684   
    263. D(C   3,C   5,Ir  0,C   4)     38.3112         0.001684   
    264. D(C   3,C   5,Ir  0,N   6)    146.8445         0.001684   
    265. D(C   3,C   5,Ir  0,C  20)    -26.6210         0.001684   
    266. D(C   3,C   5,Ir  0,O  31)   -128.8116         0.001684   
    267. D(H  29,C   5,Ir  0,C   1)   -158.6673         0.001684   
    268. D(H  29,C   5,Ir  0,C   2)   -119.8257         0.001684   
    269. D(H  29,C   5,Ir  0,C   3)    120.6638         0.001684   
    270. D(H  29,C   5,Ir  0,C   4)    158.9750         0.001684   
    271. D(H  29,C   5,Ir  0,N   6)    -92.4918         0.001684   
    272. D(C   3,C   5,Ir  0,C   1)     80.6689         0.001684   
    273. D(H  29,C   5,Ir  0,C  20)     94.0428         0.001684   
    274. D(Ir  0,C   5,C   2,C   1)     62.8322         0.023230   
    275. D(Ir  0,C   5,C   2,H  28)   -122.4506         0.023230   
    276. D(C   2,C   5,Ir  0,N   6)     27.3339         0.001684   
    277. D(C   3,C   5,C   2,Ir  0)    -60.2144         0.023230   
    278. D(H  29,C   5,C   2,Ir  0)    115.4100         0.023230   
    279. D(C   3,C   5,C   2,H  28)    177.3350         0.023230   
    280. D(C   2,C   5,Ir  0,C   1)    -38.8417         0.001684   
    281. D(H  29,C   5,C   2,C   1)    178.2422         0.023230   
    282. D(H  29,C   5,C   3,H  37)      4.3355         0.026924   
    283. D(Ir  0,C   5,C   3,H  37)    120.4071         0.026924   
    284. D(C   2,C   5,C   3,Ir  0)     59.5398         0.026924   
    285. D(C   2,C   5,C   3,C   4)     -1.8502         0.026924   
    286. D(C   2,C   5,C   3,H  37)    179.9469         0.026924   
    287. D(H  29,C   5,C   3,Ir  0)   -116.0716         0.026924   
    288. D(Ir  0,C   5,C   3,C   4)    -61.3899         0.026924   
    289. D(H  29,C   5,C   3,C   4)   -177.4615         0.026924   
    290. D(C   7,N   6,Ir  0,C   1)     82.1031         0.001766   
    291. D(C   7,N   6,Ir  0,C   2)     43.2381         0.001766   
    292. D(C   7,N   6,Ir  0,C   3)    120.1289         0.001766   
    293. D(C   7,N   6,Ir  0,C   4)    116.3810         0.001766   
    294. D(C   7,N   6,Ir  0,C   5)     25.1872         0.001766   
    295. D(C   7,N   6,Ir  0,C  20)   -159.5958         0.001766   
    296. D(C   7,N   6,Ir  0,O  31)    -61.6823         0.001766   
    297. D(C  17,N   6,Ir  0,C   1)    -97.0181         0.001766   
    298. D(C  17,N   6,Ir  0,C   2)   -135.8831         0.001766   
    299. D(C  17,N   6,Ir  0,C   3)    -58.9922         0.001766   
    300. D(C  17,N   6,Ir  0,C   4)    -62.7402         0.001766   
    301. D(C  17,N   6,Ir  0,C   5)   -153.9340         0.001766   
    302. D(C  17,N   6,Ir  0,C  20)     21.2830         0.001766   
    303. D(C  17,N   6,Ir  0,O  31)    119.1965         0.001766   
    304. D(C   8,C   7,N   6,Ir  0)    153.0406         0.014642   
    305. D(C   8,C   7,N   6,C  17)    -27.8997         0.014642   
    306. D(C  12,C   7,N   6,Ir  0)    -81.3942         0.014642   
    307. D(C  12,C   7,N   6,C  17)     97.6655         0.014642   
    308. D(H  13,C   7,N   6,Ir  0)     34.9540         0.014642   
    309. D(H  13,C   7,N   6,C  17)   -145.9863         0.014642   
    310. D(H   9,C   8,C   7,N   6)   -170.0862         0.011850   
    311. D(H   9,C   8,C   7,C  12)     65.4630         0.011850   
    312. D(H   9,C   8,C   7,H  13)    -54.0636         0.011850   
    313. D(H  10,C   8,C   7,N   6)     71.8656         0.011850   
    314. D(H  10,C   8,C   7,C  12)    -52.5853         0.011850   
    315. D(H  10,C   8,C   7,H  13)   -172.1118         0.011850   
    316. D(H  11,C   8,C   7,N   6)    -51.4842         0.011850   
    317. D(H  11,C   8,C   7,C  12)   -175.9350         0.011850   
    318. D(H  11,C   8,C   7,H  13)     64.5384         0.011850   
    319. D(H  14,C  12,C   7,N   6)    176.0988         0.011582   
    320. D(H  14,C  12,C   7,C   8)    -57.1690         0.011582   
    321. D(H  14,C  12,C   7,H  13)     62.1945         0.011582   
    322. D(H  15,C  12,C   7,N   6)    -64.7137         0.011582   
    323. D(H  15,C  12,C   7,C   8)     62.0185         0.011582   
    324. D(H  15,C  12,C   7,H  13)   -178.6180         0.011582   
    325. D(H  16,C  12,C   7,N   6)     56.9135         0.011582   
    326. D(H  16,C  12,C   7,C   8)   -176.3543         0.011582   
    327. D(H  16,C  12,C   7,H  13)    -56.9908         0.011582   
    328. D(C  18,C  17,N   6,Ir  0)     -6.9830         0.060659   
    329. D(C  18,C  17,N   6,C   7)    173.8900         0.060659   
    330. D(H  19,C  17,N   6,Ir  0)    175.4334         0.060659   
    331. D(H  19,C  17,N   6,C   7)     -3.6936         0.060659   
    332. D(C  20,C  18,C  17,N   6)    -24.8946         0.018543   
    333. D(C  20,C  18,C  17,H  19)    152.6982         0.018543   
    334. D(S  22,C  18,C  17,N   6)    150.0171         0.018543   
    335. D(S  22,C  18,C  17,H  19)    -32.3902         0.018543   
    336. D(C  18,C  20,Ir  0,C   1)     65.2591         0.001574   
    337. D(H  24,C  20,C  18,C  17)    -46.3232         0.028802   
    338. D(C  18,C  20,Ir  0,C   3)    130.9631         0.001574   
    339. D(C  18,C  20,Ir  0,C   4)     92.4901         0.001574   
    340. D(Ir  0,C  20,C  18,C  17)     38.2091         0.028802   
    341. D(C  18,C  20,Ir  0,N   6)    -29.3335         0.001574   
    342. D(C  18,C  20,Ir  0,O  31)   -111.8944         0.001574   
    343. D(H  24,C  20,Ir  0,C   4)   -152.0146         0.001574   
    344. D(C  21,C  20,Ir  0,C   2)    -39.1519         0.001574   
    345. D(C  21,C  20,Ir  0,C   3)      5.6360         0.001574   
    346. D(C  21,C  20,Ir  0,C   4)    -32.8370         0.001574   
    347. D(C  21,C  20,Ir  0,C   5)     21.8492         0.001574   
    348. D(C  21,C  20,Ir  0,N   6)   -154.6607         0.001574   
    349. D(C  21,C  20,Ir  0,O  31)    122.7784         0.001574   
    350. D(H  24,C  20,Ir  0,C   1)   -179.2457         0.001574   
    351. D(H  24,C  20,Ir  0,C   2)   -158.3295         0.001574   
    352. D(C  21,C  20,Ir  0,C   1)    -60.0680         0.001574   
    353. D(H  24,C  20,Ir  0,C   3)   -113.5416         0.001574   
    354. D(H  24,C  20,Ir  0,C   5)    -97.3284         0.001574   
    355. D(H  24,C  20,Ir  0,N   6)     86.1617         0.001574   
    356. D(C  18,C  20,Ir  0,C   5)    147.1764         0.001574   
    357. D(H  24,C  20,Ir  0,O  31)      3.6008         0.001574   
    358. D(Ir  0,C  20,C  18,S  22)   -137.3721         0.028802   
    359. D(C  21,C  20,C  18,C  17)    175.1160         0.028802   
    360. D(C  18,C  20,Ir  0,C   2)     86.1753         0.001574   
    361. D(C  21,C  20,C  18,S  22)     -0.4652         0.028802   
    362. D(H  24,C  20,C  18,S  22)    138.0957         0.028802   
    363. D(C  23,C  21,C  20,Ir  0)    121.6693         0.022277   
    364. D(C  23,C  21,C  20,C  18)      0.3685         0.022277   
    365. D(C  23,C  21,C  20,H  24)   -137.2209         0.022277   
    366. D(H  25,C  21,C  20,Ir  0)    -61.8471         0.022277   
    367. D(H  25,C  21,C  20,C  18)    176.8522         0.022277   
    368. D(H  25,C  21,C  20,H  24)     39.2627         0.022277   
    369. D(C  23,S  22,C  18,C  17)   -174.8149         0.005873   
    370. D(C  23,S  22,C  18,C  20)      0.3471         0.005873   
    371. D(S  22,C  23,C  21,C  20)     -0.1180         0.034056   
    372. D(S  22,C  23,C  21,H  25)   -176.6399         0.034056   
    373. D(H  26,C  23,C  21,C  20)    178.1224         0.034056   
    374. D(H  26,C  23,C  21,H  25)      1.6006         0.034056   
    375. D(C  21,C  23,S  22,C  18)     -0.1269         0.005339   
    376. D(H  26,C  23,S  22,C  18)   -178.5303         0.005339   
    377. D(C  32,O  31,Ir  0,C   1)   -178.9136         0.001878   
    378. D(C  32,O  31,Ir  0,C   2)    169.5121         0.001878   
    379. D(C  32,O  31,Ir  0,C   3)    100.3019         0.001878   
    380. D(C  32,O  31,Ir  0,C   4)    104.7946         0.001878   
    381. D(C  32,O  31,Ir  0,C   5)    132.3584         0.001878   
    382. D(C  32,O  31,Ir  0,N   6)    -79.0209         0.001878   
    383. D(C  32,O  31,Ir  0,C  20)     -3.1080         0.001878   
    384. D(O  30,C  32,O  31,Ir  0)      4.0515         0.053540   
    385. D(C  33,C  32,O  31,Ir  0)   -174.5032         0.053540   
    386. D(H  34,C  33,C  32,O  30)     25.0673         0.012711   
    387. D(H  34,C  33,C  32,O  31)   -156.3162         0.012711   
    388. D(H  35,C  33,C  32,O  30)    -93.3227         0.012711   
    389. D(H  35,C  33,C  32,O  31)     85.2939         0.012711   
    390. D(H  36,C  33,C  32,O  30)    148.3129         0.012711   
    391. D(H  36,C  33,C  32,O  31)    -33.0706         0.012711   
    -----------------------------------------------------------------

Number of atoms                         .... 39
Number of degrees of freedom            .... 391

         *************************************************************
         *                GEOMETRY OPTIMIZATION CYCLE   1            *
         *************************************************************
---------------------------------
CARTESIAN COORDINATES (ANGSTROEM)
---------------------------------
  Ir     0.613537   -0.714957    0.439582
  C      0.077251   -2.811675    0.352511
  C      0.054298   -2.349562    1.714665
  C      2.205143   -2.109118    0.905761
  C      1.382988   -2.649878   -0.151362
  C      1.388958   -1.955284    2.046725
  N     -1.046701    0.144067   -0.524686
  C     -2.316637    0.416690    0.167541
  C     -3.111237    1.560880   -0.443546
  H     -3.936388    1.811563    0.221667
  H     -3.556307    1.302483   -1.405432
  H     -2.506065    2.459597   -0.564784
  C     -3.141651   -0.863102    0.241081
  H     -2.026419    0.702492    1.179628
  H     -4.050681   -0.681642    0.812782
  H     -3.435284   -1.202097   -0.753213
  H     -2.601853   -1.669419    0.735105
  C     -0.880738    0.397625   -1.762880
  C      0.452171    0.202886   -2.255355
  H     -1.680585    0.773810   -2.393594
  C      1.523455    0.282657   -1.369150
  C      2.736223   -0.052297   -2.041402
  S      0.909260   -0.245350   -3.829251
  C      2.554326   -0.352875   -3.355754
  H      1.524669    1.236984   -0.593798
  H      3.711192   -0.015395   -1.577526
  H      3.304886   -0.609546   -4.087947
  H     -0.767433   -3.196427   -0.200684
  H     -0.785794   -2.380501    2.392174
  H      1.701191   -1.536262    2.992758
  O      1.458429    2.401764    0.180089
  O      0.542108    0.962810    1.611080
  C      0.985195    2.122004    1.287345
  C      0.930217    3.159443    2.371753
  H      0.914418    4.160679    1.949912
  H      1.826369    3.072248    2.989135
  H      0.071295    3.013221    3.022799
  H      3.260645   -1.891252    0.845736
  H      1.714919   -2.898075   -1.148726

----------------------------
CARTESIAN COORDINATES (A.U.)
----------------------------
  NO LB      ZA    FRAG     MASS         X           Y           Z
   0 Ir   17.0000*   0   192.220    1.159416   -1.351073    0.830689
   1 C     6.0000    0    12.011    0.145983   -5.313295    0.666149
   2 C     6.0000    0    12.011    0.102608   -4.440028    3.240247
   3 C     6.0000    0    12.011    4.167116   -3.985656    1.711640
   4 C     6.0000    0    12.011    2.613469   -5.007543   -0.286034
   5 C     6.0000    0    12.011    2.624751   -3.694952    3.867749
   6 N     7.0000    0    14.007   -1.977978    0.272247   -0.991513
   7 C     6.0000    0    12.011   -4.377810    0.787429    0.316607
   8 C     6.0000    0    12.011   -5.879385    2.949636   -0.838180
   9 H     1.0000    0     1.008   -7.438695    3.423358    0.418890
  10 H     1.0000    0     1.008   -6.720447    2.461336   -2.655881
  11 H     1.0000    0     1.008   -4.735776    4.647965   -1.067288
  12 C     6.0000    0    12.011   -5.936861   -1.631027    0.455577
  13 H     1.0000    0     1.008   -3.829378    1.327518    2.229174
  14 H     1.0000    0     1.008   -7.654677   -1.288116    1.535936
  15 H     1.0000    0     1.008   -6.491746   -2.271634   -1.423366
  16 H     1.0000    0     1.008   -4.916789   -3.154745    1.389148
  17 C     6.0000    0    12.011   -1.664353    0.751402   -3.331360
  18 C     6.0000    0    12.011    0.854479    0.383399   -4.262004
  19 H     1.0000    0     1.008   -3.175846    1.462290   -4.523236
  20 C     6.0000    0    12.011    2.878912    0.534144   -2.587319
  21 C     6.0000    0    12.011    5.170712   -0.098827   -3.857690
  22 S    16.0000    0    32.060    1.718253   -0.463644   -7.236235
  23 C     6.0000    0    12.011    4.826976   -0.666838   -6.341455
  24 H     1.0000    0     1.008    2.881206    2.337561   -1.122115
  25 H     1.0000    0     1.008    7.013137   -0.029092   -2.981092
  26 H     1.0000    0     1.008    6.245330   -1.151876   -7.725101
  27 H     1.0000    0     1.008   -1.450237   -6.040372   -0.379238
  28 H     1.0000    0     1.008   -1.484935   -4.498495    4.520553
  29 H     1.0000    0     1.008    3.214785   -2.903114    5.655492
  30 O     8.0000    0    15.999    2.756031    4.538676    0.340319
  31 O     8.0000    0    15.999    1.024437    1.819448    3.044500
  32 C     6.0000    0    12.011    1.861749    4.010007    2.432730
  33 C     6.0000    0    12.011    1.757856    5.970482    4.481964
  34 H     1.0000    0     1.008    1.728000    7.862544    3.684800
  35 H     1.0000    0     1.008    3.451337    5.805707    5.648646
  36 H     1.0000    0     1.008    0.134727    5.694162    5.712263
  37 H     1.0000    0     1.008    6.161726   -3.573947    1.598210
  38 H     1.0000    0     1.008    3.240728   -5.476567   -2.170777
* core charge reduced due to ECP

--------------------------------
INTERNAL COORDINATES (ANGSTROEM)
--------------------------------
 Ir     0   0   0     0.000000000000     0.00000000     0.00000000
 C      1   0   0     2.166086671671     0.00000000     0.00000000
 C      2   1   0     1.438902056481    69.81586117     0.00000000
 C      1   2   3     2.166847683113    64.35298615    80.79911630
 C      2   1   3     1.408544536852    70.96766695   241.10809716
 C      4   1   2     1.410438461114    71.29858113   279.70261771
 N      1   2   3     2.103073396478   100.50149519   247.41132347
 C      7   1   2     1.471808502400   122.69892201    82.02699776
 C      8   7   1     1.521172998145   113.64671088   153.04670139
 H      9   8   7     1.089134663915   108.87559908   189.91387556
 H      9   8   7     1.090906166730   112.90188783    71.86569833
 H      9   8   7     1.090239235485   112.00951216   308.51573834
 C      8   7   1     1.524440497758   109.52050358   278.61187476
 H      8   7   1     1.090973881713   104.79180657    34.96025851
 H     13   8   7     1.089079469576   109.70400788   176.09877484
 H     13   8   7     1.090757740520   111.26174891   295.28630825
 H     13   8   7     1.088843105379   112.04106426    56.91350473
 C      7   1   2     1.279913089087   115.18334032   262.91880473
 C     18   7   1     1.439240341112   115.93499008   352.80580233
 H     18   7   1     1.085841166015   122.19086127   175.24366562
 C     19  18   7     1.392550843587   119.38397603   334.91966726
 C     21  19  18     1.425759803048   110.17403189   175.08483658
 S     19  18   7     1.699201525269   127.20337343   149.88627775
 C     22  21  19     1.360726680527   113.02344516     0.46872367
 H     21  19  18     1.229163316837   116.44016920   313.73882529
 H     22  21  19     1.080286795596   123.91021068   176.96446419
 H     24  22  21     1.079471499699   127.93240300   178.11188191
 H      2   1   3     1.080532003940   123.96360825   120.41872436
 H      3   2   1     1.079684315395   126.68749779   122.20127244
 H      6   4   1     1.080760781059   125.65756882   243.92836218
 O     25  21  19     1.414285716917   174.86885918   341.25936055
 O      1   2   3     2.047967624380   143.84762234   342.13440681
 C     31  25  21     1.236058749579   110.45223271   115.93665837
 C     33  31  25     1.501743240747   120.26056454   173.87084452
 H     34  33  31     1.086586425743   110.90106724    25.06597180
 H     34  33  31     1.091716021759   108.85207890   266.67593928
 H     34  33  31     1.087649607887   111.60900882   148.31155116
 H      4   1   2     1.079419656164   125.19298325   158.30176199
 H      5   2   1     1.080047086893   126.07393860   240.57069735

---------------------------
INTERNAL COORDINATES (A.U.)
---------------------------
 Ir     0   0   0     0.000000000000     0.00000000     0.00000000
 C      1   0   0     4.093310591795     0.00000000     0.00000000
 C      2   1   0     2.719130820284    69.81586117     0.00000000
 C      1   2   3     4.094748695005    64.35298615    80.79911630
 C      2   1   3     2.661763422081    70.96766695   241.10809716
 C      4   1   2     2.665342420255    71.29858113   279.70261771
 N      1   2   3     3.974232758879   100.50149519   247.41132347
 C      7   1   2     2.781314991112   122.69892201    82.02699776
 C      8   7   1     2.874600368811   113.64671088   153.04670139
 H      9   8   7     2.058166237760   108.87559908   189.91387556
 H      9   8   7     2.061513892926   112.90188783    71.86569833
 H      9   8   7     2.060253575522   112.00951216   308.51573834
 C      8   7   1     2.880775048221   109.52050358   278.61187476
 H      8   7   1     2.061641855699   104.79180657    34.96025851
 H     13   8   7     2.058061935575   109.70400788   176.09877484
 H     13   8   7     2.061233408038   111.26174891   295.28630825
 H     13   8   7     2.057615271974   112.04106426    56.91350473
 C      7   1   2     2.418685213596   115.18334032   262.91880473
 C     18   7   1     2.719770085593   115.93499008   352.80580233
 H     18   7   1     2.051942428705   122.19086127   175.24366562
 C     19  18   7     2.631539721940   119.38397603   334.91966726
 C     21  19  18     2.694295560515   110.17403189   175.08483658
 S     19  18   7     3.211025529100   127.20337343   149.88627775
 C     22  21  19     2.571400769316   113.02344516     0.46872367
 H     21  19  18     2.322782042684   116.44016920   313.73882529
 H     22  21  19     2.041446189769   123.91021068   176.96446419
 H     24  22  21     2.039905503805   127.93240300   178.11188191
 H      2   1   3     2.041909566384   123.96360825   120.41872436
 H      3   2   1     2.040307667186   126.68749779   122.20127244
 H      6   4   1     2.042341892484   125.65756882   243.92836218
 O     25  21  19     2.672612680090   174.86885918   341.25936055
 O      1   2   3     3.870097941216   143.84762234   342.13440681
 C     31  25  21     2.335812522142   110.45223271   115.93665837
 C     33  31  25     2.837883448479   120.26056454   173.87084452
 H     34  33  31     2.053350765490   110.90106724    25.06597180
 H     34  33  31     2.063044297138   108.85207890   266.67593928
 H     34  33  31     2.055359888574   111.60900882   148.31155116
 H      4   1   2     2.039807533722   125.19298325   158.30176199
 H      5   2   1     2.040993205968   126.07393860   240.57069735

---------------------
BASIS SET INFORMATION
---------------------
There are 6 groups of distinct atoms

 Group   1 Type Ir  : 7s6p5d1f contracted to 6s3p2d1f pattern {211111/411/41/1}
 Group   2 Type C   : 8s4p1d contracted to 4s2p1d pattern {5111/31/1}
 Group   3 Type N   : 8s4p1d contracted to 4s2p1d pattern {5111/31/1}
 Group   4 Type H   : 4s contracted to 2s pattern {31}
 Group   5 Type S   : 10s7p1d contracted to 4s3p1d pattern {5311/511/1}
 Group   6 Type O   : 8s4p1d contracted to 4s2p1d pattern {5111/31/1}

Atom   0Ir   basis set group =>   1
Atom   1C    basis set group =>   2
Atom   2C    basis set group =>   2
Atom   3C    basis set group =>   2
Atom   4C    basis set group =>   2
Atom   5C    basis set group =>   2
Atom   6N    basis set group =>   3
Atom   7C    basis set group =>   2
Atom   8C    basis set group =>   2
Atom   9H    basis set group =>   4
Atom  10H    basis set group =>   4
Atom  11H    basis set group =>   4
Atom  12C    basis set group =>   2
Atom  13H    basis set group =>   4
Atom  14H    basis set group =>   4
Atom  15H    basis set group =>   4
Atom  16H    basis set group =>   4
Atom  17C    basis set group =>   2
Atom  18C    basis set group =>   2
Atom  19H    basis set group =>   4
Atom  20C    basis set group =>   2
Atom  21C    basis set group =>   2
Atom  22S    basis set group =>   5
Atom  23C    basis set group =>   2
Atom  24H    basis set group =>   4
Atom  25H    basis set group =>   4
Atom  26H    basis set group =>   4
Atom  27H    basis set group =>   4
Atom  28H    basis set group =>   4
Atom  29H    basis set group =>   4
Atom  30O    basis set group =>   6
Atom  31O    basis set group =>   6
Atom  32C    basis set group =>   2
Atom  33C    basis set group =>   2
Atom  34H    basis set group =>   4
Atom  35H    basis set group =>   4
Atom  36H    basis set group =>   4
Atom  37H    basis set group =>   4
Atom  38H    basis set group =>   4
---------------------------------
AUXILIARY/J BASIS SET INFORMATION
---------------------------------
There are 6 groups of distinct atoms

 Group   1 Type Ir  : 11s5p5d3f3g contracted to 8s5p5d2f3g pattern {41111111/11111/11111/21/111}
 Group   2 Type C   : 12s5p4d2f1g contracted to 6s4p3d1f1g pattern {711111/2111/211/2/1}
 Group   3 Type N   : 12s5p4d2f1g contracted to 6s4p3d1f1g pattern {711111/2111/211/2/1}
 Group   4 Type H   : 5s2p1d contracted to 3s1p1d pattern {311/2/1}
 Group   5 Type S   : 14s5p5d2f1g contracted to 8s4p3d1f1g pattern {71111111/2111/311/2/1}
 Group   6 Type O   : 12s5p4d2f1g contracted to 6s4p3d1f1g pattern {711111/2111/211/2/1}

Atom   0Ir   basis set group =>   1
Atom   1C    basis set group =>   2
Atom   2C    basis set group =>   2
Atom   3C    basis set group =>   2
Atom   4C    basis set group =>   2
Atom   5C    basis set group =>   2
Atom   6N    basis set group =>   3
Atom   7C    basis set group =>   2
Atom   8C    basis set group =>   2
Atom   9H    basis set group =>   4
Atom  10H    basis set group =>   4
Atom  11H    basis set group =>   4
Atom  12C    basis set group =>   2
Atom  13H    basis set group =>   4
Atom  14H    basis set group =>   4
Atom  15H    basis set group =>   4
Atom  16H    basis set group =>   4
Atom  17C    basis set group =>   2
Atom  18C    basis set group =>   2
Atom  19H    basis set group =>   4
Atom  20C    basis set group =>   2
Atom  21C    basis set group =>   2
Atom  22S    basis set group =>   5
Atom  23C    basis set group =>   2
Atom  24H    basis set group =>   4
Atom  25H    basis set group =>   4
Atom  26H    basis set group =>   4
Atom  27H    basis set group =>   4
Atom  28H    basis set group =>   4
Atom  29H    basis set group =>   4
Atom  30O    basis set group =>   6
Atom  31O    basis set group =>   6
Atom  32C    basis set group =>   2
Atom  33C    basis set group =>   2
Atom  34H    basis set group =>   4
Atom  35H    basis set group =>   4
Atom  36H    basis set group =>   4
Atom  37H    basis set group =>   4
Atom  38H    basis set group =>   4
-------------------------
ECP PARAMETER INFORMATION
-------------------------

 Group 1, Type Ir ECP Def2-ECP (replacing 60 core electrons, lmax=3)

Atom   0Ir   ECP group =>   1

------------------------------------------------------------------------------
                           ORCA GTO INTEGRAL CALCULATION
                           -- RI-GTO INTEGRALS CHOSEN --
------------------------------------------------------------------------------
------------------------------------------------------------------------------
                   ___                                                        
                  /   \      - P O W E R E D   B Y -                         
                 /     \                                                     
                 |  |  |   _    _      __       _____    __    __             
                 |  |  |  | |  | |    /  \     |  _  \  |  |  /  |          
                  \  \/   | |  | |   /    \    | | | |  |  | /  /          
                 / \  \   | |__| |  /  /\  \   | |_| |  |  |/  /          
                |  |  |   |  __  | /  /__\  \  |    /   |      \           
                |  |  |   | |  | | |   __   |  |    \   |  |\   \          
                \     /   | |  | | |  |  |  |  | |\  \  |  | \   \       
                 \___/    |_|  |_| |__|  |__|  |_| \__\ |__|  \__/        
                                                                              
                      - O R C A' S   B I G   F R I E N D -                    
                                      &                                       
                       - I N T E G R A L  F E E D E R -                       
                                                                              
 v1 FN, 2020, v2 2021                                                         
------------------------------------------------------------------------------


Reading SHARK input file reaction4-IEIP_ts_guess_scan_8-7_orca.SHARKINP.tmp ... ok
----------------------
SHARK INTEGRAL PACKAGE
----------------------

Number of atoms                             ...     39
Number of basis functions                   ...    358
Number of shells                            ...    184
Maximum angular momentum                    ...      3
Integral batch strategy                     ... SHARK/LIBINT Hybrid
RI-J (if used) integral strategy            ... SPLIT-RIJ (Revised 2003 algorithm where possible)
Printlevel                                  ...      1
Contraction scheme used                     ... SEGMENTED contraction
Coulomb Range Separation                    ... NOT USED
Exchange Range Separation                   ... NOT USED
Finite Nucleus Model                        ... NOT USED
Auxiliary Coulomb fitting basis             ... AVAILABLE
   # of basis functions in Aux-J            ...   1231
   # of shells in Aux-J                     ...    405
   Maximum angular momentum in Aux-J        ...      4
Auxiliary J/K fitting basis                 ... NOT available
Auxiliary Correlation fitting basis         ... NOT available
Auxiliary 'external' fitting basis          ... NOT available
Integral threshold                          ...     2.500000e-11
Primitive cut-off                           ...     2.500000e-12
Primitive pair pre-selection threshold      ...     2.500000e-12

Calculating pre-screening integrals         ... done (  0.1 sec) Dimension = 184
Organizing shell pair data                  ... done (  0.1 sec)
Shell pair information
Total number of shell pairs                 ...     17020
Shell pairs after pre-screening             ...     12993
Total number of primitive shell pairs       ...     60705
Primitive shell pairs kept                  ...     29228
          la=0 lb=0:   4977 shell pairs
          la=1 lb=0:   4258 shell pairs
          la=1 lb=1:    859 shell pairs
          la=2 lb=0:   1748 shell pairs
          la=2 lb=1:    793 shell pairs
          la=2 lb=2:    181 shell pairs
          la=3 lb=0:    113 shell pairs
          la=3 lb=1:     42 shell pairs
          la=3 lb=2:     21 shell pairs
          la=3 lb=3:      1 shell pairs

Calculating one electron integrals          ... done (  0.1 sec)
Calculating ECP integrals                   ... done (  0.8 sec)
Calculating RI/J V-Matrix + Cholesky decomp.... done (  0.1 sec)
Calculating Nuclear repulsion               ... done (  0.0 sec) ENN=   2039.462455654935 Eh

SHARK setup successfully completed in   1.4 seconds

Maximum memory used throughout the entire GTOINT-calculation: 91.0 MB
-------------------------------------------------------------------------------
                                 ORCA SCF
-------------------------------------------------------------------------------

------------
SCF SETTINGS
------------
Hamiltonian:
 Density Functional     Method          .... DFT(GTOs)
 Exchange Functional    Exchange        .... PBE
   PBE kappa parameter   XKappa         ....  1.024500
   PBE mue parameter    XMuePBE         ....  0.123457
 Correlation Functional Correlation     .... PBE
   PBE beta parameter  CBetaPBE         ....  0.030000
 LDA part of GGA corr.  LDAOpt          .... PW91-LDA
 Gradients option       PostSCFGGA      .... off
 Hybrid DFT is turned on
   Fraction HF Exchange ScalHFX         ....  0.420000
   Scaling of DF-GGA-X  ScalDFX         ....  0.580000
   Scaling of DF-GGA-C  ScalDFC         ....  1.000000
   Scaling of DF-LDA-C  ScalLDAC        ....  1.000000
   Perturbative correction              ....  0.000000
   Density functional embedding theory  .... OFF
 RI-approximation to the Coulomb term is turned on
   Number of AuxJ basis functions       .... 1231
   RIJ-ON(X) (HFX calculated with O(N)) .... on
   Number of AuxJ basis functions       .... 1231
   RIJ-COSX (HFX calculated with COS-X)).... on


General Settings:
 Integral files         IntName         .... reaction4-IEIP_ts_guess_scan_8-7_orca
 Hartree-Fock type      HFTyp           .... RHF
 Total Charge           Charge          ....    1
 Multiplicity           Mult            ....    1
 Number of Electrons    NEL             ....  164
 Basis Dimension        Dim             ....  358
 Nuclear Repulsion      ENuc            ....   2039.4624556549 Eh

Convergence Acceleration:
 DIIS                   CNVDIIS         .... on
   Start iteration      DIISMaxIt       ....    12
   Startup error        DIISStart       ....  0.200000
   # of expansion vecs  DIISMaxEq       ....     5
   Bias factor          DIISBfac        ....   1.050
   Max. coefficient     DIISMaxC        ....  10.000
 Trust-Rad. Augm. Hess. CNVTRAH         .... auto
   Auto Start mean grad. ratio tolernc. ....  1.125000
   Auto Start start iteration           ....    20
   Auto Start num. interpolation iter.  ....    10
   Max. Number of Micro iterations      ....    16
   Max. Number of Macro iterations      .... Maxiter - #DIIS iter
   Number of Davidson start vectors     ....     2
   Converg. threshold I  (grad. norm)   ....   1.000e-05
   Converg. threshold II (energy diff.) ....   1.000e-08
   Grad. Scal. Fac. for Micro threshold ....   0.100
   Minimum threshold for Micro iter.    ....   0.010
   NR start threshold (gradient norm)   ....   0.001
   Initial trust radius                 ....   0.400
   Minimum AH scaling param. (alpha)    ....   1.000
   Maximum AH scaling param. (alpha)    .... 1000.000
   Orbital update algorithm             .... Taylor
   White noise on init. David. guess    .... on
   Maximum white noise                  ....   0.010
   Quad. conv. algorithm                .... NR
   COSX micro iterations for RIJONX calc.... off
 SOSCF                  CNVSOSCF        .... off
 Level Shifting         CNVShift        .... on
   Level shift para.    LevelShift      ....    0.2500
   Turn off err/grad.   ShiftErr        ....    0.0010
 Zerner damping         CNVZerner       .... off
 Static damping         CNVDamp         .... on
   Fraction old density DampFac         ....    0.7000
   Max. Damping (<1)    DampMax         ....    0.9800
   Min. Damping (>=0)   DampMin         ....    0.0000
   Turn off err/grad.   DampErr         ....    0.1000
 Fernandez-Rico         CNVRico         .... off

SCF Procedure:
 Maximum # iterations   MaxIter         ....   250
 SCF integral mode      SCFMode         .... Direct
   Integral package                     .... SHARK and LIBINT hybrid scheme
 Reset frequency        DirectResetFreq ....    20
 Integral Threshold     Thresh          ....  2.500e-11 Eh
 Primitive CutOff       TCut            ....  2.500e-12 Eh

Convergence Tolerance:
 Convergence Check Mode ConvCheckMode   .... Total+1el-Energy
 Convergence forced     ConvForced      .... 0
 Energy Change          TolE            ....  1.000e-08 Eh
 1-El. energy change                    ....  1.000e-05 Eh
 DIIS Error             TolErr          ....  5.000e-07


Diagonalization of the overlap matrix:
Smallest eigenvalue                        ... 1.237e-03
Time for diagonalization                   ...    0.019 sec
Threshold for overlap eigenvalues          ... 1.000e-08
Number of eigenvalues below threshold      ... 0
Time for construction of square roots      ...    0.007 sec
Total time needed                          ...    0.027 sec

--------------------
INITIAL GUESS: HCORE
--------------------
                      -----------------
                      INTIAL GUESS DONE 
                      -----------------
-------------------
DFT GRID GENERATION
-------------------

General Integration Accuracy     IntAcc      ... 4.159
Radial Grid Type                 RadialGrid  ... OptM3 with GC (2021)
Angular Grid (max. ang.)         AngularGrid ... 3 (Lebedev-194)
Angular grid pruning method      GridPruning ... 4 (adaptive)
Weight generation scheme         WeightScheme... Becke
Basis function cutoff            BFCut       ... 1.0000e-11
Integration weight cutoff        WCut        ... 1.0000e-14
Angular grids for H and He will be reduced by one unit
Partially contracted basis set               ... off
Rotationally invariant grid construction     ... off

Total number of grid points                  ...    93261
Total number of batches                      ...     1479
Average number of points per batch           ...       63
Average number of grid points per atom       ...     2391
Time for grid setup =    1.831 sec

--------------------
COSX GRID GENERATION
--------------------

GRIDX 1
-------
General Integration Accuracy     IntAcc      ... 3.816
Radial Grid Type                 RadialGrid  ... OptM3 with GC (2021)
Angular Grid (max. ang.)         AngularGrid ... 1 (Lebedev-50)
Angular grid pruning method      GridPruning ... 4 (adaptive)
Weight generation scheme         WeightScheme... Becke
Basis function cutoff            BFCut       ... 1.0000e-11
Integration weight cutoff        WCut        ... 1.0000e-14
Angular grids for H and He will be reduced by one unit
Partially contracted basis set               ... on
Rotationally invariant grid construction     ... off

Total number of grid points                  ...    23170
Total number of batches                      ...      381
Average number of points per batch           ...       60
Average number of grid points per atom       ...      594
UseSFitting                                  ... on

GRIDX 2
-------
General Integration Accuracy     IntAcc      ... 4.020
Radial Grid Type                 RadialGrid  ... OptM3 with GC (2021)
Angular Grid (max. ang.)         AngularGrid ... 2 (Lebedev-110)
Angular grid pruning method      GridPruning ... 4 (adaptive)
Weight generation scheme         WeightScheme... Becke
Basis function cutoff            BFCut       ... 1.0000e-11
Integration weight cutoff        WCut        ... 1.0000e-14
Angular grids for H and He will be reduced by one unit
Partially contracted basis set               ... on
Rotationally invariant grid construction     ... off

Total number of grid points                  ...    50319
Total number of batches                      ...      806
Average number of points per batch           ...       62
Average number of grid points per atom       ...     1290
UseSFitting                                  ... on

GRIDX 3
-------
General Integration Accuracy     IntAcc      ... 4.338
Radial Grid Type                 RadialGrid  ... OptM3 with GC (2021)
Angular Grid (max. ang.)         AngularGrid ... 3 (Lebedev-194)
Angular grid pruning method      GridPruning ... 4 (adaptive)
Weight generation scheme         WeightScheme... Becke
Basis function cutoff            BFCut       ... 1.0000e-11
Integration weight cutoff        WCut        ... 1.0000e-14
Angular grids for H and He will be reduced by one unit
Partially contracted basis set               ... on
Rotationally invariant grid construction     ... off

Total number of grid points                  ...   108721
Total number of batches                      ...     1717
Average number of points per batch           ...       63
Average number of grid points per atom       ...     2788
UseSFitting                                  ... on

Time for X-Grid setup             =    4.761 sec

--------------
SCF ITERATIONS
--------------
ITER       Energy         Delta-E        Max-DP      RMS-DP      [F,P]     Damp
               ***  Starting incremental Fock matrix formation  ***
  0   -851.2239919299   0.00000000000021.67801248  0.15979073  2.8599514 0.7000
  1  -1088.1766911825-236.95269925262210.95596031  0.13893659  1.4767704 0.7000
  2  -1156.6282098502 -68.451518667706 5.52377882  0.07329906  1.0532497 0.7000
  3  -1183.5486215276 -26.920411677381 3.83902312  0.04902281  0.7640450 0.7000
  4  -1204.8559343495 -21.307312821917 2.70304407  0.03956438  0.4577438 0.7000
  5  -1218.6192752799 -13.763340930346 2.57788584  0.03344557  0.3623524 0.7000
  6  -1229.2564534995 -10.637178219676 1.68484324  0.02897074  0.3391138 0.7000
  7  -1238.3785519112  -9.122098411638 1.62433441  0.02594084  0.3116301 0.7000
  8  -1245.7596023381  -7.381050426881 1.57305009  0.02706527  0.3298169 0.7000
  9  -1250.2935505288  -4.533948190714 1.52263821  0.02391682  0.3005489 0.7000
 10  -1255.5025362794  -5.208985750658 1.43920312  0.02385734  0.2957948 0.7000
 11  -1256.8111072754  -1.308570995984 1.46943809  0.02222654  0.2969129 0.7000
                               ***Turning on DIIS***
 12  -1259.6234260689  -2.812318793537 1.39145103  0.02238029  0.3238324 0.7000
 13  -1259.9527664034  -0.329340334488 1.28694735  0.01885341  0.3121059 0.7000
 14  -1267.8626582311  -7.909891827708 0.89800638  0.01339769  0.2492896 0.7000
 15  -1274.2511093782  -6.388451147051 0.62973744  0.00946278  0.2032635 0.7000
 16  -1278.7455161396  -4.494406761406 0.44310612  0.00668659  0.1498826 0.7000
 17  -1281.7984413434  -3.052925203812 0.31252160  0.00472573  0.1040531 0.7000
 18  -1283.8695227644  -2.071081421012 0.72461522  0.01110640  0.0667811 0.0000
 19  -1288.4357615397  -4.566238775290 0.02284446  0.00039840  0.0201300 0.0000
               *** Restarting incremental Fock matrix formation ***
                                   *** Resetting DIIS ***
 20  -1288.4451069159  -0.009345376172 0.02383062  0.00048525  0.0097963 0.0000
 21  -1288.4473994098  -0.002292493900 0.00983526  0.00014321  0.0084431 0.0000
 22  -1288.4485441146  -0.001144704850 0.00489252  0.00006643  0.0020087 0.0000
 23  -1288.4486723513  -0.000128236706 0.00368138  0.00003983  0.0022450 0.0000
 24  -1288.4487145941  -0.000042242771 0.00396541  0.00003548  0.0007603 0.0000
               *** Restarting incremental Fock matrix formation ***
                                   *** Resetting DIIS ***
 25  -1288.4497175669  -0.001002972801 0.00458394  0.00009039  0.0006921 0.0000
 26  -1288.4497283098  -0.000010742911 0.00195642  0.00002247  0.0009929 0.0000
 27  -1288.4497338653  -0.000005555504 0.00134484  0.00001251  0.0007921 0.0000
 28  -1288.4497382984  -0.000004433029 0.00045412  0.00000374  0.0002626 0.0000
 29  -1288.4497386055  -0.000000307135 0.00022333  0.00000163  0.0001016 0.0000
 30  -1288.4497386993  -0.000000093796 0.00005692  0.00000066  0.0000303 0.0000
 31  -1288.4497387194  -0.000000020114 0.00005151  0.00000046  0.0000140 0.0000
 32  -1288.4497387175   0.000000001931 0.00002619  0.00000022  0.0000069 0.0000
 33  -1288.4497387236  -0.000000006172 0.00001368  0.00000011  0.0000033 0.0000
 34  -1288.4497387309  -0.000000007296 0.00001462  0.00000010  0.0000057 0.0000
 35  -1288.4497387420  -0.000000011064 0.00000365  0.00000003  0.0000018 0.0000
 36  -1288.4497387355   0.000000006478 0.00000348  0.00000003  0.0000013 0.0000
                            ***DIIS convergence achieved***

               *****************************************************
               *                     SUCCESS                       *
               *           SCF CONVERGED AFTER  37 CYCLES          *
               *****************************************************

Old exchange energy                            =    -59.656294039 Eh
New exchange energy                            =    -59.656236225 Eh
Exchange energy change after final integration =      0.000057813 Eh
Total energy after final integration           =  -1288.449680932 Eh
Final COS-X integration done in                =    59.011 sec

----------------
TOTAL SCF ENERGY
----------------

Total Energy       :        -1288.44968093 Eh          -35060.49826 eV

Components:
Nuclear Repulsion  :         2039.46245565 Eh           55496.59481 eV
Electronic Energy  :        -3327.91213659 Eh          -90557.09307 eV
One Electron Energy:        -5834.44675534 Eh         -158763.36759 eV
Two Electron Energy:         2506.53461875 Eh           68206.27452 eV
Max COSX asymmetry :            0.00001671 Eh               0.00045 eV

Virial components:
Potential Energy   :        -2501.56165347 Eh          -68070.95325 eV
Kinetic Energy     :         1213.11197254 Eh           33010.45499 eV
Virial Ratio       :            2.06210285


DFT components:
N(Alpha)           :       82.000299650467 electrons
N(Beta)            :       82.000299650467 electrons
N(Total)           :      164.000599300934 electrons
E(X)               :      -79.594763626246 Eh       
E(C)               :       -7.458168763548 Eh       
E(XC)              :      -87.052932389795 Eh       
DFET-embed. en.    :        0.000000000000 Eh       

---------------
SCF CONVERGENCE
---------------

  Last Energy change         ...   -9.6616e-09  Tolerance :   1.0000e-08
  Last MAX-Density change    ...    0.0000e+00  Tolerance :   1.0000e-07
  Last RMS-Density change    ...    0.0000e+00  Tolerance :   5.0000e-09
  Last DIIS Error            ...    5.6044e-07  Tolerance :   5.0000e-07

             **** THE GBW FILE WAS UPDATED (reaction4-IEIP_ts_guess_scan_8-7_orca.gbw) ****
             **** DENSITY reaction4-IEIP_ts_guess_scan_8-7_orca.scfp WAS UPDATED ****
             **** ENERGY FILE WAS UPDATED (reaction4-IEIP_ts_guess_scan_8-7_orca.en.tmp) ****
             **** THE GBW FILE WAS UPDATED (reaction4-IEIP_ts_guess_scan_8-7_orca.gbw) ****
             **** DENSITY reaction4-IEIP_ts_guess_scan_8-7_orca.scfp WAS UPDATED ****
----------------
ORBITAL ENERGIES
----------------

  NO   OCC          E(Eh)            E(eV) 
   0   2.0000     -89.764431     -2442.6144 
   1   2.0000     -19.627678      -534.0963 
   2   2.0000     -19.602602      -533.4139 
   3   2.0000     -14.837668      -403.7535 
   4   2.0000     -10.687224      -290.8142 
   5   2.0000     -10.658013      -290.0193 
   6   2.0000     -10.631589      -289.3002 
   7   2.0000     -10.630436      -289.2689 
   8   2.0000     -10.629643      -289.2473 
   9   2.0000     -10.626333      -289.1572 
  10   2.0000     -10.623500      -289.0801 
  11   2.0000     -10.623280      -289.0741 
  12   2.0000     -10.614351      -288.8312 
  13   2.0000     -10.610394      -288.7235 
  14   2.0000     -10.587392      -288.0976 
  15   2.0000     -10.585258      -288.0395 
  16   2.0000     -10.555528      -287.2305 
  17   2.0000     -10.551342      -287.1166 
  18   2.0000     -10.537733      -286.7463 
  19   2.0000      -8.403855      -228.6805 
  20   2.0000      -6.293780      -171.2625 
  21   2.0000      -6.290184      -171.1646 
  22   2.0000      -6.288784      -171.1265 
  23   2.0000      -4.025399      -109.5367 
  24   2.0000      -2.343769       -63.7772 
  25   2.0000      -2.310600       -62.8746 
  26   2.0000      -2.308908       -62.8286 
  27   2.0000      -1.314372       -35.7659 
  28   2.0000      -1.216535       -33.1036 
  29   2.0000      -1.212360       -32.9900 
  30   2.0000      -1.167250       -31.7625 
  31   2.0000      -1.128155       -30.6987 
  32   2.0000      -1.026678       -27.9373 
  33   2.0000      -0.981215       -26.7002 
  34   2.0000      -0.972897       -26.4739 
  35   2.0000      -0.968129       -26.3441 
  36   2.0000      -0.960765       -26.1438 
  37   2.0000      -0.932249       -25.3678 
  38   2.0000      -0.901896       -24.5418 
  39   2.0000      -0.873734       -23.7755 
  40   2.0000      -0.799557       -21.7571 
  41   2.0000      -0.783668       -21.3247 
  42   2.0000      -0.783370       -21.3166 
  43   2.0000      -0.781525       -21.2664 
  44   2.0000      -0.767683       -20.8897 
  45   2.0000      -0.758577       -20.6419 
  46   2.0000      -0.743880       -20.2420 
  47   2.0000      -0.724198       -19.7064 
  48   2.0000      -0.692104       -18.8331 
  49   2.0000      -0.679577       -18.4922 
  50   2.0000      -0.664623       -18.0853 
  51   2.0000      -0.652554       -17.7569 
  52   2.0000      -0.648300       -17.6411 
  53   2.0000      -0.636973       -17.3329 
  54   2.0000      -0.636129       -17.3099 
  55   2.0000      -0.631822       -17.1928 
  56   2.0000      -0.622424       -16.9370 
  57   2.0000      -0.612078       -16.6555 
  58   2.0000      -0.603313       -16.4170 
  59   2.0000      -0.602741       -16.4014 
  60   2.0000      -0.598935       -16.2979 
  61   2.0000      -0.590741       -16.0749 
  62   2.0000      -0.579810       -15.7774 
  63   2.0000      -0.571910       -15.5625 
  64   2.0000      -0.563542       -15.3347 
  65   2.0000      -0.560308       -15.2467 
  66   2.0000      -0.552378       -15.0310 
  67   2.0000      -0.548396       -14.9226 
  68   2.0000      -0.541059       -14.7230 
  69   2.0000      -0.536597       -14.6015 
  70   2.0000      -0.528770       -14.3886 
  71   2.0000      -0.519282       -14.1304 
  72   2.0000      -0.514920       -14.0117 
  73   2.0000      -0.502325       -13.6690 
  74   2.0000      -0.491390       -13.3714 
  75   2.0000      -0.481402       -13.0996 
  76   2.0000      -0.475262       -12.9325 
  77   2.0000      -0.447633       -12.1807 
  78   2.0000      -0.445071       -12.1110 
  79   2.0000      -0.421589       -11.4720 
  80   2.0000      -0.417005       -11.3473 
  81   2.0000      -0.399063       -10.8591 
  82   0.0000      -0.203210        -5.5296 
  83   0.0000      -0.148689        -4.0460 
  84   0.0000      -0.141149        -3.8408 
  85   0.0000      -0.091965        -2.5025 
  86   0.0000      -0.075057        -2.0424 
[...]

----------------------
LOEWDIN ATOMIC CHARGES
----------------------
   0 Ir:   -0.245365
   1 C :   -0.050815
   2 C :   -0.083782
   3 C :   -0.079932
   4 C :   -0.045452
   5 C :   -0.015657
   6 N :   -0.004612
   7 C :   -0.069766
   8 C :   -0.362526
   9 H :    0.156434
  10 H :    0.132774
  11 H :    0.145067
  12 C :   -0.343713
  13 H :    0.155865
  14 H :    0.151722
  15 H :    0.137423
  16 H :    0.132878
  17 C :    0.031553
  18 C :   -0.183692
  19 H :    0.160965
  20 C :   -0.212839
  21 C :   -0.127910
  22 S :    0.489282
  23 C :   -0.260696
  24 H :    0.327703
  25 H :    0.162376
  26 H :    0.168820
  27 H :    0.183241
  28 H :    0.182229
  29 H :    0.191093
  30 O :   -0.268554
  31 O :   -0.195487
  32 C :    0.159307
  33 C :   -0.373503
  34 H :    0.161845
  35 H :    0.169786
  36 H :    0.154486
  37 H :    0.184019
  38 H :    0.185433

-------------------------------
LOEWDIN REDUCED ORBITAL CHARGES
-------------------------------
  0 Irs       :     2.448690  s :     2.448690
      pz      :     2.248808  p :     6.764989
      px      :     2.248507
      py      :     2.267674
      dz2     :     1.796801  d :     7.942562
      dxz     :     1.687739
      dyz     :     1.348595
      dx2y2   :     1.619901
      dxy     :     1.489526
      f0      :     0.010908  f :     0.089124
      f+1     :     0.004259
      f-1     :     0.014490
      f+2     :     0.015633
      f-2     :     0.016474
      f+3     :     0.011062
      f-3     :     0.016299
  1 C s       :     2.874484  s :     2.874484
      pz      :     1.051576  p :     3.072630
      px      :     1.080262
      py      :     0.940793
      dz2     :     0.026011  d :     0.103701
      dxz     :     0.026161
      dyz     :     0.016820
      dx2y2   :     0.018821
      dxy     :     0.015887
  2 C s       :     2.874520  s :     2.874520
      pz      :     1.040296  p :     3.109086
      px      :     1.084240
      py      :     0.984550
      dz2     :     0.024567  d :     0.100176
      dxz     :     0.028101
      dyz     :     0.016941
      dx2y2   :     0.017674
      dxy     :     0.012894
  3 C s       :     2.872217  s :     2.872217
      pz      :     1.030030  p :     3.107654
      px      :     1.082590
      py      :     0.995034
      dz2     :     0.022830  d :     0.100060
      dxz     :     0.031653
      dyz     :     0.015474
      dx2y2   :     0.015935
      dxy     :     0.014167
  4 C s       :     2.874973  s :     2.874973
      pz      :     1.085592  p :     3.067249
      px      :     1.040942
      py      :     0.940716
      dz2     :     0.022701  d :     0.103231
      dxz     :     0.030113
      dyz     :     0.013107
      dx2y2   :     0.018817
      dxy     :     0.018492
  5 C s       :     2.878718  s :     2.878718
      pz      :     1.054588  p :     3.031836
      px      :     1.037243
      py      :     0.940005
      dz2     :     0.022999  d :     0.105104
      dxz     :     0.031126
      dyz     :     0.015918
      dx2y2   :     0.015821
      dxy     :     0.019239
  6 N s       :     3.123108  s :     3.123108
      pz      :     1.257472  p :     3.783330
      px      :     1.291678
      py      :     1.234180
      dz2     :     0.030537  d :     0.098173
      dxz     :     0.027481
      dyz     :     0.018575
      dx2y2   :     0.011743
      dxy     :     0.009837
  7 C s       :     2.862623  s :     2.862623
      pz      :     1.059612  p :     3.072884
      px      :     0.937658
      py      :     1.075615
      dz2     :     0.026971  d :     0.134258
      dxz     :     0.028717
      dyz     :     0.015250
      dx2y2   :     0.030113
      dxy     :     0.033207
  8 C s       :     2.953480  s :     2.953480
      pz      :     1.135483  p :     3.341594
      px      :     1.124349
      py      :     1.081762
      dz2     :     0.014000  d :     0.067452
      dxz     :     0.017454
      dyz     :     0.007076
      dx2y2   :     0.010015
      dxy     :     0.018908
  9 H s       :     0.843566  s :     0.843566
 10 H s       :     0.867226  s :     0.867226
 11 H s       :     0.854933  s :     0.854933
 12 C s       :     2.953382  s :     2.953382
      pz      :     1.143928  p :     3.322358
      px      :     1.109199
      py      :     1.069231
      dz2     :     0.013246  d :     0.067973
      dxz     :     0.013926
      dyz     :     0.010731
      dx2y2   :     0.011931
      dxy     :     0.018140
 13 H s       :     0.844135  s :     0.844135
 14 H s       :     0.848278  s :     0.848278
 15 H s       :     0.862577  s :     0.862577
 16 H s       :     0.867122  s :     0.867122
 17 C s       :     2.876922  s :     2.876922
      pz      :     1.014500  p :     2.951304
      px      :     1.064011
      py      :     0.872792
      dz2     :     0.039642  d :     0.140221
      dxz     :     0.049918
      dyz     :     0.025621
      dx2y2   :     0.011957
      dxy     :     0.013083
 18 C s       :     2.893108  s :     2.893108
      pz      :     1.049054  p :     3.178086
      px      :     1.090126
      py      :     1.038906
      dz2     :     0.033505  d :     0.112499
      dxz     :     0.033020
      dyz     :     0.017474
      dx2y2   :     0.016731
      dxy     :     0.011769
 19 H s       :     0.839035  s :     0.839035
 20 C s       :     2.903954  s :     2.903954
      pz      :     1.131309  p :     3.215607
      px      :     1.056207
      py      :     1.028091
      dz2     :     0.012215  d :     0.093278
      dxz     :     0.036539
      dyz     :     0.010902
      dx2y2   :     0.017539
      dxy     :     0.016082
 21 C s       :     2.897148  s :     2.897148
      pz      :     1.077700  p :     3.136280
      px      :     1.087643
      py      :     0.970937
      dz2     :     0.028115  d :     0.094482
      dxz     :     0.031555
      dyz     :     0.014073
      dx2y2   :     0.013608
      dxy     :     0.007132
 22 S s       :     5.500749  s :     5.500749
      pz      :     3.259711  p :     9.855328
      px      :     3.086653
      py      :     3.508964
      dz2     :     0.047691  d :     0.154640
      dxz     :     0.033693
      dyz     :     0.019022
      dx2y2   :     0.029613
      dxy     :     0.024621
 23 C s       :     2.964444  s :     2.964444
      pz      :     1.120590  p :     3.210621
      px      :     1.023515
      py      :     1.066516
      dz2     :     0.023543  d :     0.085631
      dxz     :     0.029899
      dyz     :     0.011844
      dx2y2   :     0.011644
      dxy     :     0.008700
 24 H s       :     0.672297  s :     0.672297
 25 H s       :     0.837624  s :     0.837624
 26 H s       :     0.831180  s :     0.831180
 27 H s       :     0.816759  s :     0.816759
 28 H s       :     0.817771  s :     0.817771
 29 H s       :     0.808907  s :     0.808907
 30 O s       :     3.511151  s :     3.511151
      pz      :     1.455908  p :     4.702691
      px      :     1.551173
      py      :     1.695610
      dz2     :     0.016641  d :     0.054711
      dxz     :     0.014555
      dyz     :     0.014698
      dx2y2   :     0.005249
      dxy     :     0.003568
 31 O s       :     3.445122  s :     3.445122
      pz      :     1.691222  p :     4.690661
      px      :     1.612376
      py      :     1.387064
      dz2     :     0.009170  d :     0.059704
      dxz     :     0.004143
      dyz     :     0.015714
      dx2y2   :     0.014898
      dxy     :     0.015779
 32 C s       :     2.813361  s :     2.813361
      pz      :     0.980394  p :     2.706948
      px      :     0.769580
      py      :     0.956974
      dz2     :     0.072765  d :     0.320384
      dxz     :     0.048492
      dyz     :     0.100340
      dx2y2   :     0.048241
      dxy     :     0.050545
 33 C s       :     2.958936  s :     2.958936
      pz      :     1.101161  p :     3.351916
      px      :     1.151468
      py      :     1.099288
      dz2     :     0.004311  d :     0.062651
      dxz     :     0.017339
      dyz     :     0.020460
      dx2y2   :     0.018448
      dxy     :     0.002093
 34 H s       :     0.838155  s :     0.838155
 35 H s       :     0.830214  s :     0.830214
 36 H s       :     0.845514  s :     0.845514
 37 H s       :     0.815981  s :     0.815981
 38 H s       :     0.814567  s :     0.814567


                      *****************************
                      * MAYER POPULATION ANALYSIS *
                      *****************************

  NA   - Mulliken gross atomic population
  ZA   - Total nuclear charge
  QA   - Mulliken gross atomic charge
  VA   - Mayer's total valence
  BVA  - Mayer's bonded valence
  FA   - Mayer's free valence

  ATOM       NA         ZA         QA         VA         BVA        FA
  0 Ir    16.3932    17.0000     0.6068     3.7456     3.7456     0.0000
  1 C      6.2261     6.0000    -0.2261     3.7133     3.7133    -0.0000
  2 C      6.2744     6.0000    -0.2744     3.7370     3.7370    -0.0000
  3 C      6.2561     6.0000    -0.2561     3.7400     3.7400    -0.0000
  4 C      6.2327     6.0000    -0.2327     3.7191     3.7191    -0.0000
  5 C      6.1593     6.0000    -0.1593     3.6963     3.6963    -0.0000
  6 N      7.4315     7.0000    -0.4315     3.2159     3.2159     0.0000
  7 C      6.1276     6.0000    -0.1276     3.7036     3.7036    -0.0000
  8 C      6.6830     6.0000    -0.6830     3.6871     3.6871    -0.0000
  9 H      0.7303     1.0000     0.2697     0.8973     0.8973    -0.0000
 10 H      0.7758     1.0000     0.2242     0.9108     0.9108    -0.0000
 11 H      0.7428     1.0000     0.2572     0.8991     0.8991    -0.0000
 12 C      6.6344     6.0000    -0.6344     3.6721     3.6721     0.0000
 13 H      0.7184     1.0000     0.2816     0.8738     0.8738     0.0000
 14 H      0.7389     1.0000     0.2611     0.8980     0.8980     0.0000
 15 H      0.7684     1.0000     0.2316     0.9097     0.9097     0.0000
 16 H      0.7680     1.0000     0.2320     0.9063     0.9063     0.0000
 17 C      5.9292     6.0000     0.0708     3.6523     3.6523    -0.0000
 18 C      6.1460     6.0000    -0.1460     3.7071     3.7071     0.0000
 19 H      0.7131     1.0000     0.2869     0.8871     0.8871     0.0000
 20 C      6.5157     6.0000    -0.5157     3.5112     3.5112    -0.0000
 21 C      6.1151     6.0000    -0.1151     3.7555     3.7555    -0.0000
 22 S     15.6696    16.0000     0.3304     2.5938     2.5938    -0.0000
 23 C      6.4301     6.0000    -0.4301     3.7520     3.7520     0.0000
 24 H      0.5166     1.0000     0.4834     0.7418     0.7418    -0.0000
 25 H      0.7337     1.0000     0.2663     0.9032     0.9032     0.0000
 26 H      0.7020     1.0000     0.2980     0.8971     0.8971     0.0000
 27 H      0.7124     1.0000     0.2876     0.9041     0.9041    -0.0000
 28 H      0.7137     1.0000     0.2863     0.9078     0.9078     0.0000
 29 H      0.6975     1.0000     0.3025     0.8933     0.8933     0.0000
 30 O      8.4796     8.0000    -0.4796     2.1346     2.1346     0.0000
 31 O      8.5253     8.0000    -0.5253     2.0926     2.0926    -0.0000
 32 C      5.3748     6.0000     0.6252     3.9045     3.9045     0.0000
 33 C      6.7443     6.0000    -0.7443     3.6642     3.6642    -0.0000
 34 H      0.7289     1.0000     0.2711     0.8944     0.8944     0.0000
 35 H      0.7292     1.0000     0.2708     0.8933     0.8933     0.0000
 36 H      0.7431     1.0000     0.2569     0.8994     0.8994     0.0000
 37 H      0.7131     1.0000     0.2869     0.9059     0.9059    -0.0000
 38 H      0.7060     1.0000     0.2940     0.9026     0.9026     0.0000

  Mayer bond orders larger than 0.100000
B(  0-Ir,  1-C ) :   0.4248 B(  0-Ir,  2-C ) :   0.4712 B(  0-Ir,  3-C ) :   0.4638 
B(  0-Ir,  4-C ) :   0.4388 B(  0-Ir,  5-C ) :   0.3941 B(  0-Ir,  6-N ) :   0.4639 
B(  0-Ir, 20-C ) :   0.3726 B(  0-Ir, 31-O ) :   0.5495 B(  1-C ,  2-C ) :   1.1248 
B(  1-C ,  4-C ) :   1.2388 B(  1-C , 27-H ) :   0.9061 B(  2-C ,  5-C ) :   1.1670 
B(  2-C , 28-H ) :   0.9096 B(  3-C ,  4-C ) :   1.1194 B(  3-C ,  5-C ) :   1.2061 
B(  3-C , 37-H ) :   0.9100 B(  4-C , 38-H ) :   0.8998 B(  5-C , 29-H ) :   0.8992 
B(  6-N ,  7-C ) :   0.8933 B(  6-N , 17-C ) :   1.6632 B(  7-C ,  8-C ) :   0.9906 
B(  7-C , 12-C ) :   0.9671 B(  7-C , 13-H ) :   0.8752 B(  8-C ,  9-H ) :   0.9045 
B(  8-C , 10-H ) :   0.9132 B(  8-C , 11-H ) :   0.9106 B( 12-C , 14-H ) :   0.9073 
B( 12-C , 15-H ) :   0.9155 B( 12-C , 16-H ) :   0.9124 B( 17-C , 18-C ) :   1.0927 
B( 17-C , 19-H ) :   0.8760 B( 18-C , 20-C ) :   1.2548 B( 18-C , 22-S ) :   1.2420 
B( 20-C , 21-C ) :   1.2715 B( 20-C , 24-H ) :   0.4052 B( 21-C , 23-C ) :   1.5475 
B( 21-C , 25-H ) :   0.9037 B( 22-S , 23-C ) :   1.2108 B( 23-C , 26-H ) :   0.8913 
B( 24-H , 30-O ) :   0.2936 B( 30-O , 32-C ) :   1.6286 B( 31-O , 32-C ) :   1.3265 
B( 32-C , 33-C ) :   0.9458 B( 33-C , 34-H ) :   0.9029 B( 33-C , 35-H ) :   0.8960 
B( 33-C , 36-H ) :   0.9087 


------------------
HIRSHFELD ANALYSIS
------------------

Total integrated alpha density =     81.999956043
Total integrated beta density  =     81.999956043

  ATOM     CHARGE      SPIN    
   0 Ir   0.186372    0.000000
   1 C    0.001060    0.000000
   2 C   -0.009913    0.000000
   3 C   -0.012047    0.000000
   4 C    0.001131    0.000000
   5 C    0.020787    0.000000
   6 N   -0.067971    0.000000
   7 C    0.052761    0.000000
   8 C   -0.071290    0.000000
   9 H    0.053376    0.000000
  10 H    0.037481    0.000000
  11 H    0.042244    0.000000
  12 C   -0.070994    0.000000
  13 H    0.045403    0.000000
  14 H    0.050613    0.000000
  15 H    0.036917    0.000000
  16 H    0.030421    0.000000
  17 C    0.096936    0.000000
  18 C   -0.005304    0.000000
  19 H    0.077375    0.000000
  20 C   -0.080618    0.000000
  21 C   -0.026997    0.000000
  22 S    0.137938    0.000000
  23 C   -0.025787    0.000000
  24 H    0.080612    0.000000
  25 H    0.069545    0.000000
  26 H    0.078705    0.000000
  27 H    0.082081    0.000000
  28 H    0.081420    0.000000
  29 H    0.092933    0.000000
  30 O   -0.244863    0.000000
  31 O   -0.251761    0.000000
  32 C    0.246221    0.000000
  33 C   -0.064708    0.000000
  34 H    0.056226    0.000000
  35 H    0.061774    0.000000
  36 H    0.049713    0.000000
  37 H    0.082884    0.000000
  38 H    0.079416    0.000000

  TOTAL   1.000088    0.000000

-------
TIMINGS
-------

Total SCF time: 0 days 0 hours 4 min 19 sec 

Total time                  ....     259.906 sec
Sum of individual times     ....     259.315 sec  ( 99.8%)

Fock matrix formation       ....     251.526 sec  ( 96.8%)
  Split-RI-J                ....      19.512 sec  (  7.8% of F)
  Chain of spheres X        ....     219.954 sec  ( 87.4% of F)
  XC integration            ....      12.047 sec  (  4.8% of F)
    Basis function eval.    ....       5.517 sec  ( 45.8% of XC)
    Density eval.           ....       3.189 sec  ( 26.5% of XC)
    XC-Functional eval.     ....       0.879 sec  (  7.3% of XC)
    XC-Potential eval.      ....       1.978 sec  ( 16.4% of XC)
Diagonalization             ....       0.199 sec  (  0.1%)
Density matrix formation    ....       0.032 sec  (  0.0%)
Population analysis         ....       1.281 sec  (  0.5%)
Initial guess               ....       0.024 sec  (  0.0%)
Orbital Transformation      ....       0.000 sec  (  0.0%)
Orbital Orthonormalization  ....       0.018 sec  (  0.0%)
DIIS solution               ....       0.082 sec  (  0.0%)
Grid generation             ....       6.170 sec  (  2.4%)

Maximum memory used throughout the entire SCF-calculation: 173.2 MB


-------------------------------------------------------------------------------
                          DFT DISPERSION CORRECTION                            
                                                                               
                              DFTD3 V3.1  Rev 1                                
                          USING Becke-Johnson damping                          
-------------------------------------------------------------------------------
The PBEh-3c composite method is recognized
Using three-body term ABC
Active option DFTDOPT                   ...         4   

molecular C6(AA) [au] = 19549.855282 


            DFT-D V3
 parameters
 s6 scaling factor         :     1.0000 
 a1 scaling factor         :     0.4860 
 s8 scaling factor         :     0.0000 
 a2 scaling factor         :     4.5000 
 Damping factor alpha9(ATM):    16.0000 
 ad hoc parameters k1-k3   :    16.0000     1.3333    -4.0000 

 Edisp/kcal,au: -19.272960113444  -0.030713413668 
 E6   /kcal   : -19.614218624 
 E8   /kcal   :  -0.000000000 
 E6(ABC)      :   0.341258510 
 % E8         :   0.000000000 
 % E6(ABC)    :  -1.770659558 

-------------------------   ----------------
Dispersion correction           -0.030713414
-------------------------   ----------------

 ** NOTE ** -> element ir will be treated as co
NOTIFICATION: Different basis set in ORCA and otool_gcp:
ORCA: 358  gCP: 357 
If you are NOT using ECPs, check your basis set inputs!
------------------   -----------------
gCP correction             0.079752351
------------------   -----------------

-------------------------   --------------------
FINAL SINGLE POINT ENERGY     -1288.400992744042
-------------------------   --------------------

                                *** OPTIMIZATION RUN DONE ***

                            ***************************************
                            *     ORCA property calculations      *
                            ***************************************

                                    ---------------------
                                    Active property flags
                                    ---------------------
   (+) Dipole Moment


------------------------------------------------------------------------------
                       ORCA ELECTRIC PROPERTIES CALCULATION
------------------------------------------------------------------------------

Dipole Moment Calculation                       ... on
Quadrupole Moment Calculation                   ... off
Polarizability Calculation                      ... off
GBWName                                         ... reaction4-IEIP_ts_guess_scan_8-7_orca.gbw
Electron density                                ... reaction4-IEIP_ts_guess_scan_8-7_orca.scfp
The origin for moment calculation is the CENTER OF MASS  = ( 0.865290, -0.583507 -0.157893)

-------------
DIPOLE MOMENT
-------------
                                X             Y             Z
Electronic contribution:     37.79206     -70.49504      73.68207
Nuclear contribution   :    -38.42673      69.64348     -73.98196
                        -----------------------------------------
Total Dipole Moment    :     -0.63467      -0.85156      -0.29990
                        -----------------------------------------
Magnitude (a.u.)       :      1.10359
Magnitude (Debye)      :      2.80509



--------------------
Rotational spectrum 
--------------------
 
Rotational constants in cm-1:     0.010539     0.008957     0.008189 
Rotational constants in MHz :   315.938176   268.519601   245.500336 

 Dipole components along the rotational axes: 
x,y,z [a.u.] :    -0.068731     0.196844    -1.083712 
x,y,z [Debye]:    -0.174699     0.500338    -2.754577 

 

Timings for individual modules:

Sum of individual times         ...     7966.291 sec (= 132.772 min)
GTO integral calculation        ...       25.567 sec (=   0.426 min)   0.3 %
SCF iterations                  ...     6269.110 sec (= 104.485 min)  78.7 %
SCF Gradient evaluation         ...     1667.303 sec (=  27.788 min)  20.9 %
Geometry relaxation             ...        4.311 sec (=   0.072 min)   0.1 %
                             ****ORCA TERMINATED NORMALLY****
TOTAL RUN TIME: 0 days 2 hours 12 minutes 52 seconds 33 msec
