
                                 *****************
                                 * O   R   C   A *
                                 *****************

                                            #,                                       
                                            ###                                      
                                            ####                                     
                                            #####                                    
                                            ######                                   
                                           ########,                                 
                                     ,,################,,,,,                         
                               ,,#################################,,                 
                          ,,##########################################,,             
                       ,#########################################, ''#####,          
                    ,#############################################,,   '####,        
                  ,##################################################,,,,####,       
                ,###########''''           ''''###############################       
              ,#####''   ,,,,##########,,,,          '''####'''          '####       
            ,##' ,,,,###########################,,,                        '##       
           ' ,,###''''                  '''############,,,                           
         ,,##''                                '''############,,,,        ,,,,,,###''
      ,#''                                            '''#######################'''  
     '                                                          ''''####''''         
             ,#######,   #######,   ,#######,      ##                                
            ,#'     '#,  ##    ##  ,#'     '#,    #''#        ######   ,####,        
            ##       ##  ##   ,#'  ##            #'  '#       #        #'  '#        
            ##       ##  #######   ##           ,######,      #####,   #    #        
            '#,     ,#'  ##    ##  '#,     ,#' ,#      #,         ##   #,  ,#        
             '#######'   ##     ##  '#######'  #'      '#     #####' # '####'        



                  #######################################################
                  #                        -***-                        #
                  #          Department of theory and spectroscopy      #
                  #    Directorship and core code : Frank Neese         #
                  #        Max Planck Institute fuer Kohlenforschung    #
                  #                Kaiser Wilhelm Platz 1               #
                  #                 D-45470 Muelheim/Ruhr               #
                  #                      Germany                        #
                  #                                                     #
                  #                  All rights reserved                #
                  #                        -***-                        #
                  #######################################################


                         Program Version 5.0.3 -  RELEASE  -


 With contributions from (in alphabetic order):
   Daniel Aravena         : Magnetic Suceptibility
   Michael Atanasov       : Ab Initio Ligand Field Theory (pilot matlab implementation)
   Alexander A. Auer      : GIAO ZORA, VPT2 properties, NMR spectrum
   Ute Becker             : Parallelization
   Giovanni Bistoni       : ED, misc. LED, open-shell LED, HFLD
   Martin Brehm           : Molecular dynamics
   Dmytro Bykov           : SCF Hessian
   Vijay G. Chilkuri      : MRCI spin determinant printing, contributions to CSF-ICE
   Dipayan Datta          : RHF DLPNO-CCSD density
   Achintya Kumar Dutta   : EOM-CC, STEOM-CC
   Dmitry Ganyushin       : Spin-Orbit,Spin-Spin,Magnetic field MRCI
   Miquel Garcia          : C-PCM and meta-GGA Hessian, CC/C-PCM, Gaussian charge scheme
   Yang Guo               : DLPNO-NEVPT2, F12-NEVPT2, CIM, IAO-localization
   Andreas Hansen         : Spin unrestricted coupled pair/coupled cluster methods
   Benjamin Helmich-Paris : MC-RPA, TRAH-SCF, COSX integrals
   Lee Huntington         : MR-EOM, pCC
   Robert Izsak           : Overlap fitted RIJCOSX, COSX-SCS-MP3, EOM
   Marcus Kettner         : VPT2
   Christian Kollmar      : KDIIS, OOCD, Brueckner-CCSD(T), CCSD density, CASPT2, CASPT2-K
   Simone Kossmann        : Meta GGA functionals, TD-DFT gradient, OOMP2, MP2 Hessian
   Martin Krupicka        : Initial AUTO-CI
   Lucas Lang             : DCDCAS
   Marvin Lechner         : AUTO-CI (C++ implementation), FIC-MRCC
   Dagmar Lenk            : GEPOL surface, SMD
   Dimitrios Liakos       : Extrapolation schemes; Compound Job, initial MDCI parallelization
   Dimitrios Manganas     : Further ROCIS development; embedding schemes
   Dimitrios Pantazis     : SARC Basis sets
   Anastasios Papadopoulos: AUTO-CI, single reference methods and gradients
   Taras Petrenko         : DFT Hessian,TD-DFT gradient, ASA, ECA, R-Raman, ABS, FL, XAS/XES, NRVS
   Peter Pinski           : DLPNO-MP2, DLPNO-MP2 Gradient
   Christoph Reimann      : Effective Core Potentials
   Marius Retegan         : Local ZFS, SOC
   Christoph Riplinger    : Optimizer, TS searches, QM/MM, DLPNO-CCSD(T), (RO)-DLPNO pert. Triples
   Tobias Risthaus        : Range-separated hybrids, TD-DFT gradient, RPA, STAB
   Michael Roemelt        : Original ROCIS implementation
   Masaaki Saitow         : Open-shell DLPNO-CCSD energy and density
   Barbara Sandhoefer     : DKH picture change effects
   Avijit Sen             : IP-ROCIS
   Kantharuban Sivalingam : CASSCF convergence, NEVPT2, FIC-MRCI
   Bernardo de Souza      : ESD, SOC TD-DFT
   Georgi Stoychev        : AutoAux, RI-MP2 NMR, DLPNO-MP2 response
   Willem Van den Heuvel  : Paramagnetic NMR
   Boris Wezisla          : Elementary symmetry handling
   Frank Wennmohs         : Technical directorship


 We gratefully acknowledge several colleagues who have allowed us to
 interface, adapt or use parts of their codes:
   Stefan Grimme, W. Hujo, H. Kruse, P. Pracht,  : VdW corrections, initial TS optimization,
                  C. Bannwarth, S. Ehlert          DFT functionals, gCP, sTDA/sTD-DF
   Ed Valeev, F. Pavosevic, A. Kumar             : LibInt (2-el integral package), F12 methods
   Garnet Chan, S. Sharma, J. Yang, R. Olivares  : DMRG
   Ulf Ekstrom                                   : XCFun DFT Library
   Mihaly Kallay                                 : mrcc  (arbitrary order and MRCC methods)
   Jiri Pittner, Ondrej Demel                    : Mk-CCSD
   Frank Weinhold                                : gennbo (NPA and NBO analysis)
   Christopher J. Cramer and Donald G. Truhlar   : smd solvation model
   Lars Goerigk                                  : TD-DFT with DH, B97 family of functionals
   V. Asgeirsson, H. Jonsson                     : NEB implementation
   FAccTs GmbH                                   : IRC, NEB, NEB-TS, DLPNO-Multilevel, CI-OPT
                                                   MM, QMMM, 2- and 3-layer-ONIOM, Crystal-QMMM,
                                                   LR-CPCM, SF, NACMEs, symmetry and pop. for TD-DFT,
                                                   nearIR, NL-DFT gradient (VV10), updates on ESD,
                                                   ML-optimized integration grids
   S Lehtola, MJT Oliveira, MAL Marques          : LibXC Library
   Liviu Ungur et al                             : ANISO software


 Your calculation uses the libint2 library for the computation of 2-el integrals
 For citations please refer to: http://libint.valeyev.net

 Your ORCA version has been built with support for libXC version: 5.1.0
 For citations please refer to: https://tddft.org/programs/libxc/

 This ORCA versions uses:
   CBLAS   interface :  Fast vector & matrix operations
   LAPACKE interface :  Fast linear algebra routines
   SCALAPACK package :  Parallel linear algebra routines
   Shared memory     :  Shared parallel matrices
   BLAS/LAPACK       :  OpenBLAS 0.3.15  USE64BITINT DYNAMIC_ARCH NO_AFFINITY SkylakeX SINGLE_THREADED
        Core in use  :  SkylakeX
   Copyright (c) 2011-2014, The OpenBLAS Project


Your calculation utilizes the geometrical counterpoise correction gCP
Please cite in your paper:
H.Kruse, S. Grimme J.Chem.Phys., 136, (2012), 154101 
   

Your calculation utilizes the atom-pairwise dispersion correction
with the Becke-Johnson damping scheme (D3BJ)
Cite in your paper:
S.Grimme, S.Ehrlich, L.Goerigk, J Comput Chem, (2011), 32, 1456–1465 
S.Grimme, J.Antony, S.Ehrlich and H.Krieg, J.Chem.Phys., 132, (2010), 154104 
   

Your calculation employs the composite approach PBEh-3c.
Please cite in your paper:
S. Grimme, J. G. Brandenburg, C. Bannwarth, A. Hansen J.Chem.Phys., 143, (2015), 054107 
   

================================================================================

cite the ECPs for Ir [Def2-ECP] as follows:
Ce-Yb(ecp-28): M. Dolg, H. Stoll, H.Preuss, J. Chem. Phys., 1989, 90, 1730-1734.
Y-Cd(ecp-28), Hf-Hg(ecp-46): D. Andrae,U. Haeussermann, M. Dolg, H. Stoll, H. Preuss, Theor. Chim. Acta, 1990, 77, 123-141.
In-Sb(ecp-28), Tl-Bi(ecp-46): B. Metz, H. Stoll, M. Dolg, J. Chem. Phys., 2000, 113, 2563-2569.
Te-Xe(ecp-28), Po-Rn(ecp-46): K. A. Peterson, D. Figgen, E. Goll, H. Stoll, M. Dolg, J. Chem. Phys., 2003, 119, 11113-11123.
Rb(ecp-28), Cs(ecp-46): T. Leininger, A. Nicklass, W. Kuechle, H. Stoll, M. Dolg, A. Bergner, Chem. Phys. Lett., 1996, 255, 274-280.
Sr(ecp-28), Ba(ecp-46): M. Kaupp, P. V. Schleyer, H. Stoll and H. Preuss, J. Chem. Phys., 1991, 94, 1360-1366.
La(ecp-46): M. Dolg, H. Stoll, A. Savin, H. Preuss, Theor. Chim. Acta, 1989, 75, 173-194.
Lu(ecp-28): X. Cao, M. Dolg, J. Chem. Phys., 2001, 115, 7348-7355.

ECP parameters for Ir [Def2-ECP] have been obtained from:
TURBOMOLE (7.0.2)

----- Orbital basis set information -----
Your calculation utilizes the basis: def2-mSVP

----- AuxJ basis set information -----
Your calculation utilizes the auxiliary basis: def2/J
   F. Weigend, Phys. Chem. Chem. Phys. 8, 1057 (2006).

================================================================================
                                        WARNINGS
                       Please study these warnings very carefully!
================================================================================


WARNING: Geometry Optimization
  ===> : Switching off AutoStart
         For restart on a previous wavefunction, please use MOREAD

WARNING: No Hueckel Guess possible with ECP basis!
  ===> : Switching to HCORE guess!

INFO   : the flag for use of the SHARK integral package has been found!

================================================================================
                                       INPUT FILE
================================================================================
NAME = reaction4-IEIP_ts_guess_scan_8-6_orca.inp
|  1> ! Opt PBEh-3c
|  2> %geom Constraints
|  3> { B 0 20 2.257142857142857 C }
|  4> { B 24 30 1.4142857142857144 C }
|  5>     end
|  6> end
|  7> %output 
|  8> xyzfile=True 
|  9> end 
| 10> %scf 
| 11> maxiter 250 
| 12> end
| 13> %output
| 14> Print[P_Hirshfeld] = 1
| 15> end
| 16> % maxcore
| 17> 4000
| 18> *xyz 1 1
| 19> Ir   0.61640018  -0.71858943   0.44661187 
| 20> C    0.09665789  -2.81957470   0.34184766 
| 21> C    0.03978222  -2.35933966   1.70483376 
| 22> C    2.20609231  -2.10299606   0.94792635 
| 23> C    1.41291207  -2.64885554  -0.12831745 
| 24> C    1.36167245  -1.95762099   2.06893444 
| 25> N   -1.04394852   0.14046058  -0.51548220 
| 26> C   -2.31198553   0.41588377   0.17887960 
| 27> C   -3.09305465   1.57685967  -0.41801152 
| 28> H   -3.91717772   1.82744887   0.24849205 
| 29> H   -3.53797381   1.33622897  -1.38449432 
| 30> H   -2.47732682   2.47005014  -0.52581588 
| 31> C   -3.14812423  -0.85772485   0.23114270 
| 32> H   -2.02104372   0.68423679   1.19536104 
| 33> H   -4.05236452  -0.68080225   0.81175441 
| 34> H   -3.45000097  -1.17357116  -0.76829562 
| 35> H   -2.61177550  -1.67899469   0.70415553 
| 36> C   -0.88156764   0.38778658  -1.76037700 
| 37> C    0.45119824   0.19364917  -2.26948783 
| 38> H   -1.68654058   0.75981068  -2.38711759 
| 39> C    1.53655841   0.29433420  -1.40198071 
| 40> C    2.74297031  -0.04462728  -2.08277371 
| 41> S    0.89080498  -0.27856256  -3.84100796 
| 42> C    2.54415548  -0.36870583  -3.38897554 
| 43> H    1.53702294   1.24539057  -0.63793090 
| 44> H    3.72347642   0.00558198  -1.63211708 
| 45> H    3.28562937  -0.63410773  -4.12724318 
| 46> H   -0.73168896  -3.21127442  -0.23076892 
| 47> H   -0.81525841  -2.39690214   2.36311119 
| 48> H    1.64783571  -1.53744136   3.02272716 
| 49> O    1.44046129   2.41228370   0.18051433 
| 50> O    0.54732780   0.96057373   1.61456750 
| 51> C    0.97701938   2.12577498   1.28857830 
| 52> C    0.91750626   3.15921076   2.37703128 
| 53> H    0.87987722   4.16096644   1.95767997 
| 54> H    1.82298803   3.08637208   2.98255185 
| 55> H    0.06942567   2.99750099   3.03848392 
| 56> H    3.26175454  -1.88059556   0.91446220 
| 57> H    1.76967241  -2.89092844  -1.11870968 
| 58> *
| 59> 
| 60>                          ****END OF INPUT****
================================================================================

                       *****************************
                       * Geometry Optimization Run *
                       *****************************

Geometry optimization settings:
Update method            Update   .... BFGS
Choice of coordinates    CoordSys .... Z-matrix Internals
Initial Hessian          InHess   .... Almoef's Model

Convergence Tolerances:
Energy Change            TolE     ....  5.0000e-06 Eh
Max. Gradient            TolMAXG  ....  3.0000e-04 Eh/bohr
RMS Gradient             TolRMSG  ....  1.0000e-04 Eh/bohr
Max. Displacement        TolMAXD  ....  4.0000e-03 bohr
RMS Displacement         TolRMSD  ....  2.0000e-03 bohr
Strict Convergence                ....  False
------------------------------------------------------------------------------
                        ORCA OPTIMIZATION COORDINATE SETUP
------------------------------------------------------------------------------

The optimization will be done in new redundant internal coordinates
Making redundant internal coordinates   ...  (new redundants) done
Evaluating the initial hessian          ...  (Almloef) done
Evaluating the coordinates              ...  done
Calculating the B-matrix                .... done
Calculating the G-matrix                .... done
Diagonalizing the G-matrix              .... done
Imposing constraints:
 Iter   0:  RMS(Cart)=    0.0178031392 RMS(Int)=    0.0074181228
 Iter   1:  RMS(Cart)=    0.0022154098 RMS(Int)=    0.0009597892
 Iter   2:  RMS(Cart)=    0.0002862588 RMS(Int)=    0.0001239661
 Iter   3:  RMS(Cart)=    0.0000369331 RMS(Int)=    0.0000159682
 Iter   4:  RMS(Cart)=    0.0000047553 RMS(Int)=    0.0000020544
 Iter   5:  RMS(Cart)=    0.0000006117 RMS(Int)=    0.0000002642
 Iter   6:  RMS(Cart)=    0.0000000787 RMS(Int)=    0.0000000340
CONVERGED
Small eigenvalue found = 1.385e-02
Small eigenvalue found = 2.280e-02
The first mode is                       ....  280
The number of degrees of freedom        ....  111
Storing new coordinates                 .... done

    -----------------------------------------------------------------
                    Redundant Internal Coordinates


    -----------------------------------------------------------------
         Definition                    Initial Value    Approx d2E/dq
    -----------------------------------------------------------------
      1. B(C   1,Ir  0)                  2.1667         0.083805   
      2. B(C   2,C   1)                  1.4394         0.520499   
      3. B(C   2,Ir  0)                  2.1463         0.090295   
      4. B(C   3,Ir  0)                  2.1666         0.083821   
      5. B(C   4,C   3)                  1.4441         0.512201   
      6. B(C   4,Ir  0)                  2.1657         0.084115   
      7. B(C   4,C   1)                  1.4085         0.584619   
      8. B(C   5,Ir  0)                  2.1726         0.081890   
      9. B(C   5,C   2)                  1.4299         0.541885   
     10. B(C   5,C   3)                  1.4118         0.578471   
     11. B(N   6,Ir  0)                  2.1028         0.095090   
     12. B(C   7,N   6)                  1.4717         0.414497   
     13. B(C   8,C   7)                  1.5213         0.385773   
     14. B(H   9,C   8)                  1.0891         0.361255   
     15. B(H  10,C   8)                  1.0908         0.358982   
     16. B(H  11,C   8)                  1.0902         0.359838   
     17. B(C  12,C   7)                  1.5244         0.381274   
     18. B(H  13,C   7)                  1.0908         0.359013   
     19. B(H  14,C  12)                  1.0891         0.361339   
     20. B(H  15,C  12)                  1.0908         0.359091   
     21. B(H  16,C  12)                  1.0890         0.361441   
     22. B(C  17,N   6)                  1.2744         0.839573   
     23. B(C  18,C  17)                  1.4348         0.520256   
     24. B(H  19,C  17)                  1.0859         0.365560   
     25. B(C  20,Ir  0)                  2.2571         0.051386 C 
     26. B(C  20,C  18)                  1.3931         0.617734   
     27. B(C  21,C  20)                  1.4269         0.547167   
     28. B(S  22,C  18)                  1.6987         0.541800   
     29. B(C  23,C  21)                  1.3602         0.696540   
     30. B(C  23,S  22)                  1.7156         0.507875   
     31. B(H  24,C  20)                  1.2204         0.223406   
     32. B(H  25,C  21)                  1.0803         0.373191   
     33. B(H  26,C  23)                  1.0795         0.374299   
     34. B(H  27,C   1)                  1.0805         0.372891   
     35. B(H  28,C   2)                  1.0797         0.373934   
     36. B(H  29,C   5)                  1.0808         0.372458   
     37. B(O  30,H  24)                  1.4143         0.092980 C 
     38. B(O  31,Ir  0)                  2.0462         0.116761   
     39. B(C  32,O  30)                  1.2349         0.989750   
     40. B(C  32,O  31)                  1.2837         0.826091   
     41. B(C  33,C  32)                  1.5021         0.413917   
     42. B(H  34,C  33)                  1.0866         0.364573   
     43. B(H  35,C  33)                  1.0917         0.357829   
     44. B(H  36,C  33)                  1.0876         0.363266   
     45. B(H  37,C   3)                  1.0794         0.374463   
     46. B(H  38,C   4)                  1.0802         0.373350   
     47. A(C   1,Ir  0,N   6)          100.5958         0.249160   
     48. A(C   1,Ir  0,C   3)           64.4135         0.245773   
     49. A(C   2,Ir  0,N   6)          111.5164         0.251886   
     50. A(C   2,Ir  0,C   5)           38.6626         0.247603   
     51. A(N   6,Ir  0,O  31)           84.1912         0.260409   
     52. A(C  20,Ir  0,O  31)           96.3724         0.239194   
     53. A(C   2,Ir  0,C  20)          156.1965         0.231726   
     54. A(C   2,Ir  0,O  31)          106.4890         0.259634   
     55. A(C   1,Ir  0,C   5)           64.2726         0.244948   
     56. A(C   3,Ir  0,C   4)           38.9427         0.245904   
     57. A(C   2,Ir  0,C   3)           64.7854         0.248442   
     58. A(C   3,Ir  0,C  20)           99.8878         0.229343   
     59. A(C   4,Ir  0,N   6)          122.2254         0.249293   
     60. A(C   1,Ir  0,O  31)          144.6024         0.256778   
     61. A(C   5,Ir  0,O  31)           93.0576         0.255902   
     62. A(C   5,Ir  0,C  20)          135.4564         0.228605   
     63. A(C   4,Ir  0,C  20)           91.7671         0.229454   
     64. A(C   2,Ir  0,C   4)           64.7529         0.248568   
     65. A(C   1,Ir  0,C  20)          118.9370         0.229337   
     66. A(C   3,Ir  0,N   6)          161.1552         0.249167   
     67. A(C   1,Ir  0,C   4)           37.9438         0.245897   
     68. A(C   4,Ir  0,O  31)          153.5409         0.256918   
     69. A(C   1,Ir  0,C   2)           38.9884         0.248435   
     70. A(C   3,Ir  0,O  31)          114.6534         0.256785   
     71. A(C   5,Ir  0,N   6)          147.6403         0.248324   
     72. A(C   3,Ir  0,C   5)           37.9755         0.244955   
     73. A(N   6,Ir  0,C  20)           76.7719         0.232375   
     74. A(C   4,Ir  0,C   5)           64.1658         0.245078   
     75. A(C   2,C   1,H  27)          125.9495         0.344676   
     76. A(Ir  0,C   1,C   2)           69.7396         0.312554   
     77. A(C   2,C   1,C   4)          108.3393         0.416289   
     78. A(C   4,C   1,H  27)          125.7011         0.351488   
     79. A(Ir  0,C   1,H  27)          124.1366         0.268292   
     80. A(Ir  0,C   1,C   4)           70.9871         0.318510   
     81. A(Ir  0,C   2,C   1)           71.2720         0.316360   
     82. A(Ir  0,C   2,C   5)           71.6648         0.318442   
     83. A(C   1,C   2,C   5)          107.1152         0.410714   
     84. A(Ir  0,C   2,H  28)          126.6425         0.271460   
     85. A(C   5,C   2,H  28)          125.9732         0.347180   
     86. A(C   1,C   2,H  28)          126.6742         0.344838   
     87. A(C   4,C   3,C   5)          107.5715         0.414321   
     88. A(Ir  0,C   3,C   4)           70.4947         0.311752   
     89. A(Ir  0,C   3,C   5)           71.2458         0.317972   
     90. A(Ir  0,C   3,H  37)          125.3725         0.268471   
     91. A(C   5,C   3,H  37)          126.0944         0.351110   
     92. A(C   4,C   3,H  37)          126.2979         0.343990   
     93. A(Ir  0,C   4,C   1)           71.0692         0.318702   
     94. A(Ir  0,C   4,H  38)          124.3824         0.268491   
     95. A(Ir  0,C   4,C   3)           70.5626         0.311928   
     96. A(C   3,C   4,H  38)          125.8980         0.343818   
     97. A(C   1,C   4,C   3)          108.1145         0.415100   
     98. A(C   1,C   4,H  38)          125.9861         0.351561   
     99. A(Ir  0,C   5,H  29)          121.8688         0.267309   
    100. A(Ir  0,C   5,C   2)           69.6725         0.313423   
    101. A(C   3,C   5,H  29)          125.6387         0.350792   
    102. A(Ir  0,C   5,C   3)           70.7787         0.316767   
    103. A(C   2,C   5,C   3)          108.7921         0.418496   
    104. A(C   2,C   5,H  29)          125.4021         0.346949   
    105. A(Ir  0,N   6,C  17)          114.9774         0.341401   
    106. A(C   7,N   6,C  17)          122.2025         0.420854   
    107. A(Ir  0,N   6,C   7)          122.8101         0.304134   
    108. A(C   8,C   7,H  13)          108.3503         0.325874   
    109. A(C  12,C   7,H  13)          108.6551         0.325246   
    110. A(N   6,C   7,C   8)          113.5835         0.369605   
    111. A(N   6,C   7,C  12)          109.4149         0.368861   
    112. A(C   8,C   7,C  12)          111.6806         0.366633   
    113. A(N   6,C   7,H  13)          104.8261         0.327775   
    114. A(C   7,C   8,H   9)          108.9042         0.326208   
    115. A(C   7,C   8,H  10)          112.8738         0.325870   
    116. A(H   9,C   8,H  10)          106.5183         0.290844   
    117. A(C   7,C   8,H  11)          111.9672         0.325997   
    118. A(H   9,C   8,H  11)          107.4200         0.290952   
    119. A(H  10,C   8,H  11)          108.8729         0.290664   
    120. A(C   7,C  12,H  14)          109.7526         0.325592   
    121. A(C   7,C  12,H  15)          111.2415         0.325258   
    122. A(H  14,C  12,H  15)          107.8030         0.290868   
    123. A(C   7,C  12,H  16)          112.0130         0.325607   
    124. A(H  14,C  12,H  16)          107.4505         0.291166   
    125. A(H  15,C  12,H  16)          108.4167         0.290881   
    126. A(N   6,C  17,C  18)          115.1858         0.441268   
    127. A(N   6,C  17,H  19)          122.5562         0.370285   
    128. A(C  18,C  17,H  19)          122.2129         0.343503   
    129. A(C  17,C  18,S  22)          127.1106         0.433251   
    130. A(C  20,C  18,S  22)          113.4225         0.446895   
    131. A(C  17,C  18,C  20)          119.2859         0.420361   
    132. A(C  18,C  20,C  21)          109.9024         0.424165   
    133. A(Ir  0,C  20,H  24)           80.8065         0.231930   
    134. A(C  18,C  20,H  24)          116.6076         0.325683   
    135. A(C  21,C  20,H  24)          119.0197         0.319274   
    136. A(Ir  0,C  20,C  18)           99.7001         0.297035   
    137. A(Ir  0,C  20,C  21)          127.6776         0.291401   
    138. A(C  20,C  21,C  23)          113.1862         0.433398   
    139. A(C  20,C  21,H  25)          123.8217         0.347631   
    140. A(C  23,C  21,H  25)          122.8954         0.362153   
    141. A(C  18,S  22,C  23)           91.1012         0.455415   
    142. A(C  21,C  23,S  22)          112.3864         0.451412   
    143. A(C  21,C  23,H  26)          127.9488         0.362337   
    144. A(S  22,C  23,H  26)          119.6414         0.361341   
    145. A(Ir  0,O  31,C  32)          125.8499         0.352439   
    146. A(O  30,C  32,O  31)          124.2666         0.491636   
    147. A(O  30,C  32,C  33)          120.3980         0.436195   
    148. A(O  31,C  32,C  33)          115.3184         0.422278   
    149. A(C  32,C  33,H  34)          110.8536         0.330518   
    150. A(C  32,C  33,H  35)          108.8536         0.329500   
    151. A(H  34,C  33,H  35)          107.7145         0.291114   
    152. A(C  32,C  33,H  36)          111.6721         0.330322   
    153. A(H  34,C  33,H  36)          110.1677         0.291806   
    154. A(H  35,C  33,H  36)          107.4276         0.290950   
    155. D(C   2,C   1,Ir  0,N   6)   -111.2200         0.001693   
    156. D(C   4,C   1,Ir  0,C   2)   -118.8123         0.001693   
    157. D(H  27,C   1,Ir  0,C   3)   -158.7747         0.001693   
    158. D(C   4,C   1,Ir  0,C  20)     49.3245         0.001693   
    159. D(C   2,C   1,Ir  0,C   3)     80.8411         0.001693   
    160. D(C   4,C   1,Ir  0,N   6)    129.9677         0.001693   
    161. D(H  27,C   1,Ir  0,C   2)    120.3843         0.001693   
    162. D(C   2,C   1,Ir  0,O  31)    -16.3153         0.001693   
    163. D(H  27,C   1,Ir  0,N   6)      9.1642         0.001693   
    164. D(C   2,C   1,Ir  0,C  20)    168.1368         0.001693   
    165. D(C   4,C   1,Ir  0,C   3)    -37.9712         0.001693   
    166. D(H  27,C   1,Ir  0,C  20)    -71.4789         0.001693   
    167. D(H  27,C   1,Ir  0,C   4)   -120.8034         0.001693   
    168. D(H  27,C   1,Ir  0,O  31)    104.0690         0.001693   
    169. D(C   2,C   1,Ir  0,C   5)     38.5236         0.001693   
    170. D(H  27,C   1,Ir  0,C   5)    158.9078         0.001693   
    171. D(C   4,C   1,Ir  0,C   5)    -80.2887         0.001693   
    172. D(C   4,C   1,Ir  0,O  31)   -135.1276         0.001693   
    173. D(C   2,C   1,Ir  0,C   4)    118.8123         0.001693   
    174. D(H  28,C   2,Ir  0,C   5)    121.6506         0.001724   
    175. D(H  28,C   2,C   1,C   4)   -176.9968         0.021502   
    176. D(C   5,C   2,C   1,H  27)    178.7548         0.021502   
    177. D(C   1,C   2,Ir  0,N   6)     80.0437         0.001724   
    178. D(C   1,C   2,Ir  0,C   3)    -79.8052         0.001724   
    179. D(Ir  0,C   2,C   1,C   4)     60.7772         0.021502   
    180. D(H  28,C   2,Ir  0,C   1)   -122.2634         0.001724   
    181. D(H  28,C   2,Ir  0,C  20)   -148.7354         0.001724   
    182. D(C   1,C   2,Ir  0,C   5)   -116.0860         0.001724   
    183. D(C   5,C   2,Ir  0,C   3)     36.2807         0.001724   
    184. D(H  28,C   2,Ir  0,C   4)   -158.8236         0.001724   
    185. D(H  28,C   2,Ir  0,C   3)    157.9314         0.001724   
    186. D(Ir  0,C   2,C   1,H  27)   -118.1140         0.021502   
    187. D(C   1,C   2,Ir  0,C   4)    -36.5602         0.001724   
    188. D(C   5,C   2,Ir  0,C   1)    116.0860         0.001724   
    189. D(C   1,C   2,Ir  0,C  20)    -26.4720         0.001724   
    190. D(C   5,C   2,Ir  0,O  31)    -73.6845         0.001724   
    191. D(C   5,C   2,Ir  0,N   6)   -163.8703         0.001724   
    192. D(H  28,C   2,C   1,Ir  0)    122.2260         0.021502   
    193. D(C   5,C   2,C   1,Ir  0)    -63.1312         0.021502   
    194. D(C   1,C   2,Ir  0,O  31)    170.2295         0.001724   
    195. D(C   5,C   2,Ir  0,C  20)     89.6140         0.001724   
    196. D(H  28,C   2,Ir  0,N   6)    -42.2196         0.001724   
    197. D(C   5,C   2,Ir  0,C   4)     79.5258         0.001724   
    198. D(C   5,C   2,C   1,C   4)     -2.3539         0.021502   
    199. D(H  28,C   2,Ir  0,O  31)     47.9661         0.001724   
    200. D(H  28,C   2,C   1,H  27)      4.1120         0.021502   
    201. D(C   4,C   3,Ir  0,N   6)     -2.4791         0.001694   
    202. D(C   5,C   3,Ir  0,C   1)    -80.2847         0.001694   
    203. D(H  37,C   3,Ir  0,C   5)   -121.4626         0.001694   
    204. D(H  37,C   3,Ir  0,C   2)   -158.3891         0.001694   
    205. D(C   4,C   3,Ir  0,O  31)    177.7803         0.001694   
    206. D(H  37,C   3,Ir  0,N   6)    118.7676         0.001694   
    207. D(C   5,C   3,Ir  0,C  20)    162.2585         0.001694   
    208. D(H  37,C   3,Ir  0,C   1)    158.2527         0.001694   
    209. D(H  37,C   3,Ir  0,C   4)    121.2466         0.001694   
    210. D(C   4,C   3,Ir  0,C   5)    117.2907         0.001694   
    211. D(C   5,C   3,Ir  0,C   4)   -117.2907         0.001694   
    212. D(C   5,C   3,Ir  0,O  31)     60.4896         0.001694   
    213. D(C   4,C   3,Ir  0,C  20)    -80.4508         0.001694   
    214. D(C   4,C   3,Ir  0,C   1)     37.0060         0.001694   
    215. D(C   4,C   3,Ir  0,C   2)     80.3642         0.001694   
    216. D(C   5,C   3,Ir  0,N   6)   -119.7698         0.001694   
    217. D(C   5,C   3,Ir  0,C   2)    -36.9265         0.001694   
    218. D(H  37,C   3,Ir  0,C  20)     40.7958         0.001694   
    219. D(H  37,C   3,Ir  0,O  31)    -60.9730         0.001694   
    220. D(C   1,C   4,Ir  0,C  20)   -138.3911         0.001695   
    221. D(C   1,C   4,Ir  0,C   2)     37.5530         0.001695   
    222. D(C   3,C   4,Ir  0,C   2)    -80.4550         0.001695   
    223. D(C   1,C   4,Ir  0,C   5)     80.5952         0.001695   
    224. D(C   1,C   4,Ir  0,N   6)    -62.9383         0.001695   
    225. D(C   3,C   4,Ir  0,C   5)    -37.4128         0.001695   
    226. D(C   3,C   4,Ir  0,C   1)   -118.0080         0.001695   
    227. D(C   1,C   4,Ir  0,O  31)    113.4768         0.001695   
    228. D(C   1,C   4,Ir  0,C   3)    118.0080         0.001695   
    229. D(H  38,C   4,C   1,Ir  0)   -119.2584         0.027419   
    230. D(C   3,C   4,Ir  0,C  20)    103.6009         0.001695   
    231. D(C   3,C   4,Ir  0,O  31)     -4.5313         0.001695   
    232. D(Ir  0,C   4,C   1,C   2)    -59.9942         0.027419   
    233. D(H  38,C   4,Ir  0,C   1)    121.1986         0.001695   
    234. D(H  38,C   4,Ir  0,C   3)   -120.7933         0.001695   
    235. D(H  38,C   4,Ir  0,C   5)   -158.2062         0.001695   
    236. D(H  38,C   4,Ir  0,N   6)     58.2603         0.001695   
    237. D(H  38,C   4,Ir  0,C  20)    -17.1925         0.001695   
    238. D(H  38,C   4,Ir  0,C   2)    158.7516         0.001695   
    239. D(Ir  0,C   4,C   1,H  27)    118.9006         0.027419   
    240. D(H  38,C   4,Ir  0,O  31)   -125.3246         0.001695   
    241. D(C   3,C   4,C   1,Ir  0)     61.1610         0.027419   
    242. D(C   3,C   4,C   1,C   2)      1.1668         0.027419   
    243. D(H  38,C   4,C   1,C   2)   -179.2525         0.027419   
    244. D(C   3,C   4,Ir  0,N   6)    179.0537         0.001695   
    245. D(C   3,C   4,C   1,H  27)   -179.9385         0.027419   
    246. D(Ir  0,C   4,C   3,H  37)   -120.1204         0.020800   
    247. D(Ir  0,C   4,C   3,C   5)     61.9690         0.020800   
    248. D(H  38,C   4,C   3,C   5)   -179.0953         0.020800   
    249. D(C   1,C   4,C   3,C   5)      0.4858         0.020800   
    250. D(C   1,C   4,C   3,H  37)    178.3964         0.020800   
    251. D(H  38,C   4,C   3,Ir  0)    118.9357         0.020800   
    252. D(H  38,C   4,C   1,H  27)     -0.3578         0.027419   
    253. D(H  38,C   4,C   3,H  37)     -1.1848         0.020800   
    254. D(C   1,C   4,C   3,Ir  0)    -61.4832         0.020800   
    255. D(H  29,C   5,C   2,H  28)     -7.1294         0.023377   
    256. D(C   2,C   5,Ir  0,C   4)    -81.1758         0.001685   
    257. D(C   2,C   5,Ir  0,C   3)   -119.5361         0.001685   
    258. D(C   3,C   5,C   2,C   1)      2.6683         0.023377   
    259. D(C   2,C   5,Ir  0,C  20)   -144.8746         0.001685   
    260. D(C   2,C   5,Ir  0,O  31)    112.8430         0.001685   
    261. D(H  29,C   5,Ir  0,O  31)     -6.9674         0.001685   
    262. D(C   3,C   5,Ir  0,C   2)    119.5361         0.001685   
    263. D(C   3,C   5,Ir  0,C   4)     38.3603         0.001685   
    264. D(C   3,C   5,Ir  0,N   6)    148.4097         0.001685   
    265. D(C   3,C   5,Ir  0,C  20)    -25.3385         0.001685   
    266. D(C   3,C   5,Ir  0,O  31)   -127.6209         0.001685   
    267. D(H  29,C   5,Ir  0,C   1)   -158.6581         0.001685   
    268. D(H  29,C   5,Ir  0,C   2)   -119.8104         0.001685   
    269. D(H  29,C   5,Ir  0,C   3)    120.6535         0.001685   
    270. D(H  29,C   5,Ir  0,C   4)    159.0138         0.001685   
    271. D(H  29,C   5,Ir  0,N   6)    -90.9368         0.001685   
    272. D(C   3,C   5,Ir  0,C   1)     80.6884         0.001685   
    273. D(H  29,C   5,Ir  0,C  20)     95.3150         0.001685   
    274. D(Ir  0,C   5,C   2,C   1)     62.8727         0.023377   
    275. D(Ir  0,C   5,C   2,H  28)   -122.4364         0.023377   
    276. D(C   2,C   5,Ir  0,N   6)     28.8736         0.001685   
    277. D(C   3,C   5,C   2,Ir  0)    -60.2043         0.023377   
    278. D(H  29,C   5,C   2,Ir  0)    115.3070         0.023377   
    279. D(C   3,C   5,C   2,H  28)    177.3593         0.023377   
    280. D(C   2,C   5,Ir  0,C   1)    -38.8477         0.001685   
    281. D(H  29,C   5,C   2,C   1)    178.1797         0.023377   
    282. D(H  29,C   5,C   3,H  37)      4.6207         0.026813   
    283. D(Ir  0,C   5,C   3,H  37)    120.5994         0.026813   
    284. D(C   2,C   5,C   3,Ir  0)     59.5194         0.026813   
    285. D(C   2,C   5,C   3,C   4)     -1.9653         0.026813   
    286. D(C   2,C   5,C   3,H  37)   -179.8812         0.026813   
    287. D(H  29,C   5,C   3,Ir  0)   -115.9787         0.026813   
    288. D(Ir  0,C   5,C   3,C   4)    -61.4846         0.026813   
    289. D(H  29,C   5,C   3,C   4)   -177.4633         0.026813   
    290. D(C   7,N   6,Ir  0,C   1)     82.9682         0.001768   
    291. D(C   7,N   6,Ir  0,C   2)     43.8858         0.001768   
    292. D(C   7,N   6,Ir  0,C   3)    118.6631         0.001768   
    293. D(C   7,N   6,Ir  0,C   4)    116.8214         0.001768   
    294. D(C   7,N   6,Ir  0,C   5)     24.9646         0.001768   
    295. D(C   7,N   6,Ir  0,C  20)   -159.5359         0.001768   
    296. D(C   7,N   6,Ir  0,O  31)    -61.5739         0.001768   
    297. D(C  17,N   6,Ir  0,C   1)    -95.9045         0.001768   
    298. D(C  17,N   6,Ir  0,C   2)   -134.9869         0.001768   
    299. D(C  17,N   6,Ir  0,C   3)    -60.2096         0.001768   
    300. D(C  17,N   6,Ir  0,C   4)    -62.0513         0.001768   
    301. D(C  17,N   6,Ir  0,C   5)   -153.9081         0.001768   
    302. D(C  17,N   6,Ir  0,C  20)     21.5914         0.001768   
    303. D(C  17,N   6,Ir  0,O  31)    119.5534         0.001768   
    304. D(C   8,C   7,N   6,Ir  0)    151.9687         0.014653   
    305. D(C   8,C   7,N   6,C  17)    -29.2390         0.014653   
    306. D(C  12,C   7,N   6,Ir  0)    -82.4918         0.014653   
    307. D(C  12,C   7,N   6,C  17)     96.3006         0.014653   
    308. D(H  13,C   7,N   6,Ir  0)     33.8759         0.014653   
    309. D(H  13,C   7,N   6,C  17)   -147.3317         0.014653   
    310. D(H   9,C   8,C   7,N   6)   -170.0984         0.011843   
    311. D(H   9,C   8,C   7,C  12)     65.5782         0.011843   
    312. D(H   9,C   8,C   7,H  13)    -54.0606         0.011843   
    313. D(H  10,C   8,C   7,N   6)     71.8246         0.011843   
    314. D(H  10,C   8,C   7,C  12)    -52.4989         0.011843   
    315. D(H  10,C   8,C   7,H  13)   -172.1376         0.011843   
    316. D(H  11,C   8,C   7,N   6)    -51.4555         0.011843   
    317. D(H  11,C   8,C   7,C  12)   -175.7789         0.011843   
    318. D(H  11,C   8,C   7,H  13)     64.5823         0.011843   
    319. D(H  14,C  12,C   7,N   6)    175.5648         0.011582   
    320. D(H  14,C  12,C   7,C   8)    -57.8070         0.011582   
    321. D(H  14,C  12,C   7,H  13)     61.6518         0.011582   
    322. D(H  15,C  12,C   7,N   6)    -65.2182         0.011582   
    323. D(H  15,C  12,C   7,C   8)     61.4100         0.011582   
    324. D(H  15,C  12,C   7,H  13)   -179.1312         0.011582   
    325. D(H  16,C  12,C   7,N   6)     56.2992         0.011582   
    326. D(H  16,C  12,C   7,C   8)   -177.0726         0.011582   
    327. D(H  16,C  12,C   7,H  13)    -57.6138         0.011582   
    328. D(C  18,C  17,N   6,Ir  0)     -6.9979         0.060832   
    329. D(C  18,C  17,N   6,C   7)    174.1218         0.060832   
    330. D(H  19,C  17,N   6,Ir  0)    175.3981         0.060832   
    331. D(H  19,C  17,N   6,C   7)     -3.4822         0.060832   
    332. D(C  20,C  18,C  17,N   6)    -25.4553         0.018459   
    333. D(C  20,C  18,C  17,H  19)    152.1578         0.018459   
    334. D(S  22,C  18,C  17,N   6)    149.3142         0.018459   
    335. D(S  22,C  18,C  17,H  19)    -33.0728         0.018459   
    336. D(C  18,C  20,Ir  0,C   1)     65.1510         0.001574   
    337. D(H  24,C  20,C  18,C  17)    -45.6241         0.028680   
    338. D(C  18,C  20,Ir  0,C   3)    131.2878         0.001574   
    339. D(C  18,C  20,Ir  0,C   4)     92.9623         0.001574   
    340. D(Ir  0,C  20,C  18,C  17)     38.8867         0.028680   
    341. D(C  18,C  20,Ir  0,N   6)    -29.7755         0.001574   
    342. D(C  18,C  20,Ir  0,O  31)   -112.2559         0.001574   
    343. D(H  24,C  20,Ir  0,C   4)   -151.4037         0.001574   
    344. D(C  21,C  20,Ir  0,C   2)    -40.7937         0.001574   
    345. D(C  21,C  20,Ir  0,C   3)      6.6520         0.001574   
    346. D(C  21,C  20,Ir  0,C   4)    -31.6735         0.001574   
    347. D(C  21,C  20,Ir  0,C   5)     22.1561         0.001574   
    348. D(C  21,C  20,Ir  0,N   6)   -154.4113         0.001574   
    349. D(C  21,C  20,Ir  0,O  31)    123.1083         0.001574   
    350. D(H  24,C  20,Ir  0,C   1)   -179.2150         0.001574   
    351. D(H  24,C  20,Ir  0,C   2)   -160.5239         0.001574   
    352. D(C  21,C  20,Ir  0,C   1)    -59.4848         0.001574   
    353. D(H  24,C  20,Ir  0,C   3)   -113.0782         0.001574   
    354. D(H  24,C  20,Ir  0,C   5)    -97.5741         0.001574   
    355. D(H  24,C  20,Ir  0,N   6)     85.8585         0.001574   
    356. D(C  18,C  20,Ir  0,C   5)    146.7919         0.001574   
    357. D(H  24,C  20,Ir  0,O  31)      3.3781         0.001574   
    358. D(Ir  0,C  20,C  18,S  22)   -136.5691         0.028680   
    359. D(C  21,C  20,C  18,C  17)    175.0532         0.028680   
    360. D(C  18,C  20,Ir  0,C   2)     83.8421         0.001574   
    361. D(C  21,C  20,C  18,S  22)     -0.4026         0.028680   
    362. D(H  24,C  20,C  18,S  22)    138.9202         0.028680   
    363. D(C  23,C  21,C  20,Ir  0)    120.6812         0.022217   
    364. D(C  23,C  21,C  20,C  18)      0.2836         0.022217   
    365. D(C  23,C  21,C  20,H  24)   -137.9237         0.022217   
    366. D(H  25,C  21,C  20,Ir  0)    -62.8093         0.022217   
    367. D(H  25,C  21,C  20,C  18)    176.7931         0.022217   
    368. D(H  25,C  21,C  20,H  24)     38.5858         0.022217   
    369. D(C  23,S  22,C  18,C  17)   -174.7027         0.005887   
    370. D(C  23,S  22,C  18,C  20)      0.3263         0.005887   
    371. D(S  22,C  23,C  21,C  20)     -0.0469         0.034142   
    372. D(S  22,C  23,C  21,H  25)   -176.5934         0.034142   
    373. D(H  26,C  23,C  21,C  20)    178.1658         0.034142   
    374. D(H  26,C  23,C  21,H  25)      1.6193         0.034142   
    375. D(C  21,C  23,S  22,C  18)     -0.1562         0.005329   
    376. D(H  26,C  23,S  22,C  18)   -178.5346         0.005329   
    377. D(C  32,O  31,Ir  0,C   1)   -178.4924         0.001882   
    378. D(C  32,O  31,Ir  0,C   2)    170.8858         0.001882   
    379. D(C  32,O  31,Ir  0,C   3)    101.5557         0.001882   
    380. D(C  32,O  31,Ir  0,C   4)    104.6877         0.001882   
    381. D(C  32,O  31,Ir  0,C   5)    133.9851         0.001882   
    382. D(C  32,O  31,Ir  0,N   6)    -78.3601         0.001882   
    383. D(C  32,O  31,Ir  0,C  20)     -2.4119         0.001882   
    384. D(O  30,C  32,O  31,Ir  0)      3.7445         0.053008   
    385. D(C  33,C  32,O  31,Ir  0)   -174.7535         0.053008   
    386. D(H  34,C  33,C  32,O  30)     25.5980         0.012681   
    387. D(H  34,C  33,C  32,O  31)   -155.8411         0.012681   
    388. D(H  35,C  33,C  32,O  30)    -92.7055         0.012681   
    389. D(H  35,C  33,C  32,O  31)     85.8554         0.012681   
    390. D(H  36,C  33,C  32,O  30)    148.8539         0.012681   
    391. D(H  36,C  33,C  32,O  31)    -32.5853         0.012681   
    -----------------------------------------------------------------

Number of atoms                         .... 39
Number of degrees of freedom            .... 391

         *************************************************************
         *                GEOMETRY OPTIMIZATION CYCLE   1            *
         *************************************************************
---------------------------------
CARTESIAN COORDINATES (ANGSTROEM)
---------------------------------
  Ir     0.619360   -0.713687    0.436120
  C      0.102547   -2.815022    0.326737
  C      0.046354   -2.358231    1.690610
  C      2.212574   -2.096071    0.930750
  C      1.418165   -2.640899   -0.145094
  C      1.369137   -1.954781    2.054115
  N     -1.045816    0.144269   -0.519237
  C     -2.312528    0.417213    0.178527
  C     -3.096529    1.577920   -0.415051
  H     -3.919363    1.826634    0.253752
  H     -3.543475    1.337906   -1.380754
  H     -2.482207    2.472033   -0.523246
  C     -3.146907   -0.857532    0.231246
  H     -2.019475    0.684691    1.194635
  H     -4.049971   -0.682483    0.814259
  H     -3.450793   -1.172538   -0.767851
  H     -2.608362   -1.678695    0.701954
  C     -0.886346    0.392058   -1.759077
  C      0.444912    0.191802   -2.255483
  H     -1.688416    0.766674   -2.388007
  C      1.521334    0.284903   -1.376049
  C      2.730667   -0.059772   -2.050330
  S      0.893520   -0.280990   -3.824191
  C      2.541558   -0.381421   -3.358329
  H      1.520703    1.234908   -0.610011
  H      3.708175   -0.014902   -1.592556
  H      3.287969   -0.649706   -4.090602
  H     -0.725950   -3.206668   -0.245699
  H     -0.807973   -2.398865    2.349639
  H      1.656092   -1.536288    3.008413
  O      1.438436    2.411767    0.170014
  O      0.549261    0.962396    1.607697
  C      0.977687    2.127287    1.279895
  C      0.920495    3.162164    2.367106
  H      0.881676    4.163351    1.946504
  H      1.827405    3.090325    2.970611
  H      0.073992    3.001159    3.030754
  H      3.267783   -1.871762    0.895647
  H      1.773677   -2.879956   -1.136673

----------------------------
CARTESIAN COORDINATES (A.U.)
----------------------------
  NO LB      ZA    FRAG     MASS         X           Y           Z
   0 Ir   17.0000*   0   192.220    1.170421   -1.348672    0.824147
   1 C     6.0000    0    12.011    0.193786   -5.319621    0.617444
   2 C     6.0000    0    12.011    0.087597   -4.456411    3.194789
   3 C     6.0000    0    12.011    4.181160   -3.960999    1.758863
   4 C     6.0000    0    12.011    2.679944   -4.990576   -0.274188
   5 C     6.0000    0    12.011    2.587294   -3.694001    3.881715
   6 N     7.0000    0    14.007   -1.976305    0.272630   -0.981216
   7 C     6.0000    0    12.011   -4.370045    0.788418    0.337367
   8 C     6.0000    0    12.011   -5.851591    2.981837   -0.784333
   9 H     1.0000    0     1.008   -7.406522    3.451837    0.479521
  10 H     1.0000    0     1.008   -6.696196    2.528276   -2.609248
  11 H     1.0000    0     1.008   -4.690692    4.671465   -0.988791
  12 C     6.0000    0    12.011   -5.946792   -1.620501    0.436991
  13 H     1.0000    0     1.008   -3.816254    1.293878    2.257533
  14 H     1.0000    0     1.008   -7.653337   -1.289706    1.538727
  15 H     1.0000    0     1.008   -6.521055   -2.215776   -1.451029
  16 H     1.0000    0     1.008   -4.929089   -3.172274    1.326500
  17 C     6.0000    0    12.011   -1.674951    0.740882   -3.324174
  18 C     6.0000    0    12.011    0.840761    0.362453   -4.262246
  19 H     1.0000    0     1.008   -3.190644    1.448804   -4.512679
  20 C     6.0000    0    12.011    2.874904    0.538388   -2.600356
  21 C     6.0000    0    12.011    5.160212   -0.112952   -3.874563
  22 S    16.0000    0    32.060    1.688508   -0.530994   -7.226673
  23 C     6.0000    0    12.011    4.802848   -0.720780   -6.346323
  24 H     1.0000    0     1.008    2.873712    2.333638   -1.152754
  25 H     1.0000    0     1.008    7.007435   -0.028160   -3.009495
  26 H     1.0000    0     1.008    6.213360   -1.227766   -7.730118
  27 H     1.0000    0     1.008   -1.371846   -6.059724   -0.464304
  28 H     1.0000    0     1.008   -1.526847   -4.533199    4.440173
  29 H     1.0000    0     1.008    3.129560   -2.903163    5.685076
  30 O     8.0000    0    15.999    2.718251    4.557579    0.321280
  31 O     8.0000    0    15.999    1.037953    1.818664    3.038107
  32 C     6.0000    0    12.011    1.847561    4.019989    2.418651
  33 C     6.0000    0    12.011    1.739484    5.975624    4.473182
  34 H     1.0000    0     1.008    1.666127    7.867594    3.678360
  35 H     1.0000    0     1.008    3.453296    5.839869    5.613642
  36 H     1.0000    0     1.008    0.139825    5.671368    5.727294
  37 H     1.0000    0     1.008    6.175214   -3.537117    1.692527
  38 H     1.0000    0     1.008    3.351764   -5.442329   -2.148001
* core charge reduced due to ECP

--------------------------------
INTERNAL COORDINATES (ANGSTROEM)
--------------------------------
 Ir     0   0   0     0.000000000000     0.00000000     0.00000000
 C      1   0   0     2.166851792917     0.00000000     0.00000000
 C      2   1   0     1.439716028484    69.74189533     0.00000000
 C      1   2   3     2.166799250791    64.38419535    80.78274419
 C      2   1   3     1.408092798298    70.99633206   241.22171362
 C      4   1   2     1.410970569780    71.27148031   279.71138811
 N      1   2   3     2.102462776080   100.63932342   248.67288386
 C      7   1   2     1.471704488550   122.75130349    82.89199029
 C      8   7   1     1.521253765725   113.58352434   151.97473471
 H      9   8   7     1.089128454539   108.90422029   189.90166676
 H      9   8   7     1.090846091533   112.87369040    71.82467879
 H      9   8   7     1.090198035391   111.96725481   308.54445905
 C      8   7   1     1.524446874836   109.41483100   277.51426151
 H      8   7   1     1.090823082820   104.82609241    33.88214442
 H     13   8   7     1.089064766779   109.75249930   175.56481602
 H     13   8   7     1.090763683470   111.24170402   294.78181330
 H     13   8   7     1.088988176066   112.01300652    56.29922149
 C      7   1   2     1.279570538709   115.08495313   264.03253964
 C     18   7   1     1.439843068559   115.81134702   352.78808481
 H     18   7   1     1.085903831961   122.25354917   175.20515139
 C     19  18   7     1.393094676301   119.42143641   334.35552429
 C     21  19  18     1.426114885356   110.15888507   175.01962409
 S     19  18   7     1.698797669765   127.16454446   149.17967802
 C     22  21  19     1.360410770280   113.03825988     0.38621291
 H     21  19  18     1.219951042816   116.52876661   314.43667382
 H     22  21  19     1.080279871006   123.89137295   176.90754286
 H     24  22  21     1.079472466692   127.94094304   178.15464750
 H      2   1   3     1.080498460084   124.12539238   120.40647700
 H      3   2   1     1.079738206095   126.67923968   122.20894054
 H      6   4   1     1.080814917350   125.64227545   244.02092448
 O     25  21  19     1.428571427546   174.60578805   345.77899980
 O      1   2   3     2.046577695869   144.59033368   343.68301069
 C     31  25  21     1.234775855041   110.48479785   111.71598436
 C     33  31  25     1.502085620898   120.36445775   173.39275822
 H     34  33  31     1.086639732507   110.85372934    25.59666701
 H     34  33  31     1.091722432581   108.85344167   267.29308075
 H     34  33  31     1.087616812950   111.67216309   148.85243862
 H      4   1   2     1.079353776842   125.36152061   158.26641925
 H      5   2   1     1.080163875695   125.99554730   240.74966991

---------------------------
INTERNAL COORDINATES (A.U.)
---------------------------
 Ir     0   0   0     0.000000000000     0.00000000     0.00000000
 C      1   0   0     4.094756461410     0.00000000     0.00000000
 C      2   1   0     2.720669004452    69.74189533     0.00000000
 C      1   2   3     4.094657171181    64.38419535    80.78274419
 C      2   1   3     2.660909759931    70.99633206   241.22171362
 C      4   1   2     2.666347959907    71.27148031   279.71138811
 N      1   2   3     3.973078853555   100.63932342   248.67288386
 C      7   1   2     2.781118433422   122.75130349    82.89199029
 C      8   7   1     2.874752997417   113.58352434   151.97473471
 H      9   8   7     2.058154503739   108.90422029   189.90166676
 H      9   8   7     2.061400367256   112.87369040    71.82467879
 H      9   8   7     2.060175718628   111.96725481   308.54445905
 C      8   7   1     2.880787099152   109.41483100   277.51426151
 H      8   7   1     2.061356887090   104.82609241    33.88214442
 H     13   8   7     2.058034151315   109.75249930   175.56481602
 H     13   8   7     2.061244638586   111.24170402   294.78181330
 H     13   8   7     2.057889415843   112.01300652    56.29922149
 C      7   1   2     2.418037887195   115.08495313   264.03253964
 C     18   7   1     2.720909075401   115.81134702   352.78808481
 H     18   7   1     2.052060850181   122.25354917   175.20515139
 C     19  18   7     2.632567416833   119.42143641   334.35552429
 C     21  19  18     2.694966568832   110.15888507   175.01962409
 S     19  18   7     3.210262352799   127.16454446   149.17967802
 C     22  21  19     2.570803785466   113.03825988     0.38621291
 H     21  19  18     2.305373367713   116.52876661   314.43667382
 H     22  21  19     2.041433104189   123.89137295   176.90754286
 H     24  22  21     2.039907331157   127.94094304   178.15464750
 H      2   1   3     2.041846177682   124.12539238   120.40647700
 H      3   2   1     2.040409505852   126.67923968   122.20894054
 H      6   4   1     2.042444195248   125.64227545   244.02092448
 O     25  21  19     2.699608760807   174.60578805   345.77899980
 O      1   2   3     3.867471356984   144.59033368   343.68301069
 C     31  25  21     2.333388202806   110.48479785   111.71598436
 C     33  31  25     2.838530453197   120.36445775   173.39275822
 H     34  33  31     2.053451500675   110.85372934    25.59666701
 H     34  33  31     2.063056411836   108.85344167   267.29308075
 H     34  33  31     2.055297915123   111.67216309   148.85243862
 H      4   1   2     2.039683039846   125.36152061   158.26641925
 H      5   2   1     2.041213904818   125.99554730   240.74966991

---------------------
BASIS SET INFORMATION
---------------------
There are 6 groups of distinct atoms

 Group   1 Type Ir  : 7s6p5d1f contracted to 6s3p2d1f pattern {211111/411/41/1}
 Group   2 Type C   : 8s4p1d contracted to 4s2p1d pattern {5111/31/1}
 Group   3 Type N   : 8s4p1d contracted to 4s2p1d pattern {5111/31/1}
 Group   4 Type H   : 4s contracted to 2s pattern {31}
 Group   5 Type S   : 10s7p1d contracted to 4s3p1d pattern {5311/511/1}
 Group   6 Type O   : 8s4p1d contracted to 4s2p1d pattern {5111/31/1}

Atom   0Ir   basis set group =>   1
Atom   1C    basis set group =>   2
Atom   2C    basis set group =>   2
Atom   3C    basis set group =>   2
Atom   4C    basis set group =>   2
Atom   5C    basis set group =>   2
Atom   6N    basis set group =>   3
Atom   7C    basis set group =>   2
Atom   8C    basis set group =>   2
Atom   9H    basis set group =>   4
Atom  10H    basis set group =>   4
Atom  11H    basis set group =>   4
Atom  12C    basis set group =>   2
Atom  13H    basis set group =>   4
Atom  14H    basis set group =>   4
Atom  15H    basis set group =>   4
Atom  16H    basis set group =>   4
Atom  17C    basis set group =>   2
Atom  18C    basis set group =>   2
Atom  19H    basis set group =>   4
Atom  20C    basis set group =>   2
Atom  21C    basis set group =>   2
Atom  22S    basis set group =>   5
Atom  23C    basis set group =>   2
Atom  24H    basis set group =>   4
Atom  25H    basis set group =>   4
Atom  26H    basis set group =>   4
Atom  27H    basis set group =>   4
Atom  28H    basis set group =>   4
Atom  29H    basis set group =>   4
Atom  30O    basis set group =>   6
Atom  31O    basis set group =>   6
Atom  32C    basis set group =>   2
Atom  33C    basis set group =>   2
Atom  34H    basis set group =>   4
Atom  35H    basis set group =>   4
Atom  36H    basis set group =>   4
Atom  37H    basis set group =>   4
Atom  38H    basis set group =>   4
---------------------------------
AUXILIARY/J BASIS SET INFORMATION
---------------------------------
There are 6 groups of distinct atoms

 Group   1 Type Ir  : 11s5p5d3f3g contracted to 8s5p5d2f3g pattern {41111111/11111/11111/21/111}
 Group   2 Type C   : 12s5p4d2f1g contracted to 6s4p3d1f1g pattern {711111/2111/211/2/1}
 Group   3 Type N   : 12s5p4d2f1g contracted to 6s4p3d1f1g pattern {711111/2111/211/2/1}
 Group   4 Type H   : 5s2p1d contracted to 3s1p1d pattern {311/2/1}
 Group   5 Type S   : 14s5p5d2f1g contracted to 8s4p3d1f1g pattern {71111111/2111/311/2/1}
 Group   6 Type O   : 12s5p4d2f1g contracted to 6s4p3d1f1g pattern {711111/2111/211/2/1}

Atom   0Ir   basis set group =>   1
Atom   1C    basis set group =>   2
Atom   2C    basis set group =>   2
Atom   3C    basis set group =>   2
Atom   4C    basis set group =>   2
Atom   5C    basis set group =>   2
Atom   6N    basis set group =>   3
Atom   7C    basis set group =>   2
Atom   8C    basis set group =>   2
Atom   9H    basis set group =>   4
Atom  10H    basis set group =>   4
Atom  11H    basis set group =>   4
Atom  12C    basis set group =>   2
Atom  13H    basis set group =>   4
Atom  14H    basis set group =>   4
Atom  15H    basis set group =>   4
Atom  16H    basis set group =>   4
Atom  17C    basis set group =>   2
Atom  18C    basis set group =>   2
Atom  19H    basis set group =>   4
Atom  20C    basis set group =>   2
Atom  21C    basis set group =>   2
Atom  22S    basis set group =>   5
Atom  23C    basis set group =>   2
Atom  24H    basis set group =>   4
Atom  25H    basis set group =>   4
Atom  26H    basis set group =>   4
Atom  27H    basis set group =>   4
Atom  28H    basis set group =>   4
Atom  29H    basis set group =>   4
Atom  30O    basis set group =>   6
Atom  31O    basis set group =>   6
Atom  32C    basis set group =>   2
Atom  33C    basis set group =>   2
Atom  34H    basis set group =>   4
Atom  35H    basis set group =>   4
Atom  36H    basis set group =>   4
Atom  37H    basis set group =>   4
Atom  38H    basis set group =>   4
-------------------------
ECP PARAMETER INFORMATION
-------------------------

 Group 1, Type Ir ECP Def2-ECP (replacing 60 core electrons, lmax=3)

Atom   0Ir   ECP group =>   1

------------------------------------------------------------------------------
                           ORCA GTO INTEGRAL CALCULATION
                           -- RI-GTO INTEGRALS CHOSEN --
------------------------------------------------------------------------------
------------------------------------------------------------------------------
                   ___                                                        
                  /   \      - P O W E R E D   B Y -                         
                 /     \                                                     
                 |  |  |   _    _      __       _____    __    __             
                 |  |  |  | |  | |    /  \     |  _  \  |  |  /  |          
                  \  \/   | |  | |   /    \    | | | |  |  | /  /          
                 / \  \   | |__| |  /  /\  \   | |_| |  |  |/  /          
                |  |  |   |  __  | /  /__\  \  |    /   |      \           
                |  |  |   | |  | | |   __   |  |    \   |  |\   \          
                \     /   | |  | | |  |  |  |  | |\  \  |  | \   \       
                 \___/    |_|  |_| |__|  |__|  |_| \__\ |__|  \__/        
                                                                              
                      - O R C A' S   B I G   F R I E N D -                    
                                      &                                       
                       - I N T E G R A L  F E E D E R -                       
                                                                              
 v1 FN, 2020, v2 2021                                                         
------------------------------------------------------------------------------


Reading SHARK input file reaction4-IEIP_ts_guess_scan_8-6_orca.SHARKINP.tmp ... ok
----------------------
SHARK INTEGRAL PACKAGE
----------------------

Number of atoms                             ...     39
Number of basis functions                   ...    358
Number of shells                            ...    184
Maximum angular momentum                    ...      3
Integral batch strategy                     ... SHARK/LIBINT Hybrid
RI-J (if used) integral strategy            ... SPLIT-RIJ (Revised 2003 algorithm where possible)
Printlevel                                  ...      1
Contraction scheme used                     ... SEGMENTED contraction
Coulomb Range Separation                    ... NOT USED
Exchange Range Separation                   ... NOT USED
Finite Nucleus Model                        ... NOT USED
Auxiliary Coulomb fitting basis             ... AVAILABLE
   # of basis functions in Aux-J            ...   1231
   # of shells in Aux-J                     ...    405
   Maximum angular momentum in Aux-J        ...      4
Auxiliary J/K fitting basis                 ... NOT available
Auxiliary Correlation fitting basis         ... NOT available
Auxiliary 'external' fitting basis          ... NOT available
Integral threshold                          ...     2.500000e-11
Primitive cut-off                           ...     2.500000e-12
Primitive pair pre-selection threshold      ...     2.500000e-12

Calculating pre-screening integrals         ... done (  0.1 sec) Dimension = 184
Organizing shell pair data                  ... done (  0.2 sec)
Shell pair information
Total number of shell pairs                 ...     17020
Shell pairs after pre-screening             ...     12999
Total number of primitive shell pairs       ...     60705
Primitive shell pairs kept                  ...     29248
          la=0 lb=0:   4981 shell pairs
          la=1 lb=0:   4259 shell pairs
          la=1 lb=1:    859 shell pairs
          la=2 lb=0:   1749 shell pairs
          la=2 lb=1:    793 shell pairs
          la=2 lb=2:    181 shell pairs
          la=3 lb=0:    113 shell pairs
          la=3 lb=1:     42 shell pairs
          la=3 lb=2:     21 shell pairs
          la=3 lb=3:      1 shell pairs

Calculating one electron integrals          ... done (  0.1 sec)
Calculating ECP integrals                   ... done (  0.8 sec)
Calculating RI/J V-Matrix + Cholesky decomp.... done (  0.1 sec)
Calculating Nuclear repulsion               ... done (  0.0 sec) ENN=   2040.219063075688 Eh

SHARK setup successfully completed in   1.6 seconds

Maximum memory used throughout the entire GTOINT-calculation: 91.1 MB
-------------------------------------------------------------------------------
                                 ORCA SCF
-------------------------------------------------------------------------------

------------
SCF SETTINGS
------------
Hamiltonian:
 Density Functional     Method          .... DFT(GTOs)
 Exchange Functional    Exchange        .... PBE
   PBE kappa parameter   XKappa         ....  1.024500
   PBE mue parameter    XMuePBE         ....  0.123457
 Correlation Functional Correlation     .... PBE
   PBE beta parameter  CBetaPBE         ....  0.030000
 LDA part of GGA corr.  LDAOpt          .... PW91-LDA
 Gradients option       PostSCFGGA      .... off
 Hybrid DFT is turned on
   Fraction HF Exchange ScalHFX         ....  0.420000
   Scaling of DF-GGA-X  ScalDFX         ....  0.580000
   Scaling of DF-GGA-C  ScalDFC         ....  1.000000
   Scaling of DF-LDA-C  ScalLDAC        ....  1.000000
   Perturbative correction              ....  0.000000
   Density functional embedding theory  .... OFF
 RI-approximation to the Coulomb term is turned on
   Number of AuxJ basis functions       .... 1231
   RIJ-ON(X) (HFX calculated with O(N)) .... on
   Number of AuxJ basis functions       .... 1231
   RIJ-COSX (HFX calculated with COS-X)).... on


General Settings:
 Integral files         IntName         .... reaction4-IEIP_ts_guess_scan_8-6_orca
 Hartree-Fock type      HFTyp           .... RHF
 Total Charge           Charge          ....    1
 Multiplicity           Mult            ....    1
 Number of Electrons    NEL             ....  164
 Basis Dimension        Dim             ....  358
 Nuclear Repulsion      ENuc            ....   2040.2190630757 Eh

Convergence Acceleration:
 DIIS                   CNVDIIS         .... on
   Start iteration      DIISMaxIt       ....    12
   Startup error        DIISStart       ....  0.200000
   # of expansion vecs  DIISMaxEq       ....     5
   Bias factor          DIISBfac        ....   1.050
   Max. coefficient     DIISMaxC        ....  10.000
 Trust-Rad. Augm. Hess. CNVTRAH         .... auto
   Auto Start mean grad. ratio tolernc. ....  1.125000
   Auto Start start iteration           ....    20
   Auto Start num. interpolation iter.  ....    10
   Max. Number of Micro iterations      ....    16
   Max. Number of Macro iterations      .... Maxiter - #DIIS iter
   Number of Davidson start vectors     ....     2
   Converg. threshold I  (grad. norm)   ....   1.000e-05
   Converg. threshold II (energy diff.) ....   1.000e-08
   Grad. Scal. Fac. for Micro threshold ....   0.100
   Minimum threshold for Micro iter.    ....   0.010
   NR start threshold (gradient norm)   ....   0.001
   Initial trust radius                 ....   0.400
   Minimum AH scaling param. (alpha)    ....   1.000
   Maximum AH scaling param. (alpha)    .... 1000.000
   Orbital update algorithm             .... Taylor
   White noise on init. David. guess    .... on
   Maximum white noise                  ....   0.010
   Quad. conv. algorithm                .... NR
   COSX micro iterations for RIJONX calc.... off
 SOSCF                  CNVSOSCF        .... off
 Level Shifting         CNVShift        .... on
   Level shift para.    LevelShift      ....    0.2500
   Turn off err/grad.   ShiftErr        ....    0.0010
 Zerner damping         CNVZerner       .... off
 Static damping         CNVDamp         .... on
   Fraction old density DampFac         ....    0.7000
   Max. Damping (<1)    DampMax         ....    0.9800
   Min. Damping (>=0)   DampMin         ....    0.0000
   Turn off err/grad.   DampErr         ....    0.1000
 Fernandez-Rico         CNVRico         .... off

SCF Procedure:
 Maximum # iterations   MaxIter         ....   250
 SCF integral mode      SCFMode         .... Direct
   Integral package                     .... SHARK and LIBINT hybrid scheme
 Reset frequency        DirectResetFreq ....    20
 Integral Threshold     Thresh          ....  2.500e-11 Eh
 Primitive CutOff       TCut            ....  2.500e-12 Eh

Convergence Tolerance:
 Convergence Check Mode ConvCheckMode   .... Total+1el-Energy
 Convergence forced     ConvForced      .... 0
 Energy Change          TolE            ....  1.000e-08 Eh
 1-El. energy change                    ....  1.000e-05 Eh
 DIIS Error             TolErr          ....  5.000e-07


Diagonalization of the overlap matrix:
Smallest eigenvalue                        ... 1.240e-03
Time for diagonalization                   ...    0.036 sec
Threshold for overlap eigenvalues          ... 1.000e-08
Number of eigenvalues below threshold      ... 0
Time for construction of square roots      ...    0.012 sec
Total time needed                          ...    0.049 sec

--------------------
INITIAL GUESS: HCORE
--------------------
                      -----------------
                      INTIAL GUESS DONE 
                      -----------------
-------------------
DFT GRID GENERATION
-------------------

General Integration Accuracy     IntAcc      ... 4.159
Radial Grid Type                 RadialGrid  ... OptM3 with GC (2021)
Angular Grid (max. ang.)         AngularGrid ... 3 (Lebedev-194)
Angular grid pruning method      GridPruning ... 4 (adaptive)
Weight generation scheme         WeightScheme... Becke
Basis function cutoff            BFCut       ... 1.0000e-11
Integration weight cutoff        WCut        ... 1.0000e-14
Angular grids for H and He will be reduced by one unit
Partially contracted basis set               ... off
Rotationally invariant grid construction     ... off

Total number of grid points                  ...    93266
Total number of batches                      ...     1479
Average number of points per batch           ...       63
Average number of grid points per atom       ...     2391
Time for grid setup =    1.661 sec

--------------------
COSX GRID GENERATION
--------------------

GRIDX 1
-------
General Integration Accuracy     IntAcc      ... 3.816
Radial Grid Type                 RadialGrid  ... OptM3 with GC (2021)
Angular Grid (max. ang.)         AngularGrid ... 1 (Lebedev-50)
Angular grid pruning method      GridPruning ... 4 (adaptive)
Weight generation scheme         WeightScheme... Becke
Basis function cutoff            BFCut       ... 1.0000e-11
Integration weight cutoff        WCut        ... 1.0000e-14
Angular grids for H and He will be reduced by one unit
Partially contracted basis set               ... on
Rotationally invariant grid construction     ... off

Total number of grid points                  ...    23171
Total number of batches                      ...      381
Average number of points per batch           ...       60
Average number of grid points per atom       ...      594
UseSFitting                                  ... on

GRIDX 2
-------
General Integration Accuracy     IntAcc      ... 4.020
Radial Grid Type                 RadialGrid  ... OptM3 with GC (2021)
Angular Grid (max. ang.)         AngularGrid ... 2 (Lebedev-110)
Angular grid pruning method      GridPruning ... 4 (adaptive)
Weight generation scheme         WeightScheme... Becke
Basis function cutoff            BFCut       ... 1.0000e-11
Integration weight cutoff        WCut        ... 1.0000e-14
Angular grids for H and He will be reduced by one unit
Partially contracted basis set               ... on
Rotationally invariant grid construction     ... off

Total number of grid points                  ...    50318
Total number of batches                      ...      808
Average number of points per batch           ...       62
Average number of grid points per atom       ...     1290
UseSFitting                                  ... on

GRIDX 3
-------
General Integration Accuracy     IntAcc      ... 4.338
Radial Grid Type                 RadialGrid  ... OptM3 with GC (2021)
Angular Grid (max. ang.)         AngularGrid ... 3 (Lebedev-194)
Angular grid pruning method      GridPruning ... 4 (adaptive)
Weight generation scheme         WeightScheme... Becke
Basis function cutoff            BFCut       ... 1.0000e-11
Integration weight cutoff        WCut        ... 1.0000e-14
Angular grids for H and He will be reduced by one unit
Partially contracted basis set               ... on
Rotationally invariant grid construction     ... off

Total number of grid points                  ...   108732
Total number of batches                      ...     1716
Average number of points per batch           ...       63
Average number of grid points per atom       ...     2788
UseSFitting                                  ... on

Time for X-Grid setup             =    4.294 sec

--------------
SCF ITERATIONS
--------------
ITER       Energy         Delta-E        Max-DP      RMS-DP      [F,P]     Damp
               ***  Starting incremental Fock matrix formation  ***
  0   -849.6088609356   0.00000000000020.84882938  0.15853309  2.9143794 0.7000
  1  -1087.7329580679-238.12409713236511.19912578  0.14034609  1.4752035 0.7000
  2  -1156.3941947539 -68.661236685963 5.53955193  0.07361520  1.0586019 0.7000
  3  -1183.4705220782 -27.076327324321 3.84912677  0.04915000  0.7705711 0.7000
  4  -1204.7916677017 -21.321145623467 2.71070173  0.03979228  0.4627542 0.7000
  5  -1218.5071193968 -13.715451695116 2.51066404  0.03353252  0.3659001 0.7000
  6  -1229.0236257567 -10.516506359889 1.68063197  0.02907320  0.3416438 0.7000
  7  -1238.0459096224  -9.022283865700 1.64816612  0.02646442  0.3147718 0.7000
  8  -1244.4640906111  -6.418180988694 1.57767721  0.02739887  0.3528385 0.7000
  9  -1249.1875725575  -4.723481946427 1.50862018  0.02349609  0.3197217 0.7000
 10  -1254.9594117689  -5.771839211392 1.41757939  0.02413241  0.3150677 0.7000
 11  -1256.4353391009  -1.475927331946 1.46271642  0.02309428  0.2887191 0.7000
                               ***Turning on DIIS***
 12  -1259.3367177176  -2.901378616709 1.39399201  0.02255959  0.3230810 0.7000
 13  -1259.7264055370  -0.389687819409 1.27910738  0.01898663  0.3081533 0.7000
 14  -1268.4740441784  -8.747638641373 0.89457628  0.01346479  0.2392298 0.7000
 15  -1274.7199271269  -6.245882948532 0.62694590  0.00951744  0.1827946 0.7000
 16  -1279.0400775459  -4.320150419010 0.43971320  0.00671272  0.1244355 0.7000
 17  -1281.9651071786  -2.925029632684 1.02456612  0.01575270  0.0818087 0.0000
 18  -1288.4303775340  -6.465270355428 0.03918642  0.00054115  0.0218504 0.0000
 19  -1288.4420317223  -0.011654188290 0.03070021  0.00039287  0.0159167 0.0000
               *** Restarting incremental Fock matrix formation ***
                                   *** Resetting DIIS ***
 20  -1288.4460209693  -0.003989247017 0.03643162  0.00047869  0.0151264 0.0000
 21  -1288.4465631223  -0.000542153018 0.01809977  0.00020081  0.0203929 0.0000
 22  -1288.4486199047  -0.002056782360 0.00314476  0.00006545  0.0031397 0.0000
 23  -1288.4487598543  -0.000139949568 0.00266327  0.00003173  0.0017818 0.0000
 24  -1288.4487899185  -0.000030064228 0.00217485  0.00002760  0.0003620 0.0000
               *** Restarting incremental Fock matrix formation ***
                                   *** Resetting DIIS ***
 25  -1288.4496488540  -0.000858935552 0.00470591  0.00009114  0.0006649 0.0000
 26  -1288.4496647700  -0.000015915916 0.00176366  0.00001673  0.0006592 0.0000
 27  -1288.4496644024   0.000000367590 0.00092812  0.00000935  0.0008050 0.0000
 28  -1288.4496679415  -0.000003539139 0.00026503  0.00000306  0.0001378 0.0000
 29  -1288.4496680855  -0.000000144000 0.00016015  0.00000147  0.0000890 0.0000
 30  -1288.4496681475  -0.000000061981 0.00007683  0.00000058  0.0000222 0.0000
 31  -1288.4496681721  -0.000000024649 0.00003442  0.00000033  0.0000135 0.0000
 32  -1288.4496681707   0.000000001414 0.00002502  0.00000021  0.0000042 0.0000
 33  -1288.4496681811  -0.000000010363 0.00001334  0.00000010  0.0000025 0.0000
 34  -1288.4496681896  -0.000000008549 0.00000432  0.00000004  0.0000019 0.0000
                            ***DIIS convergence achieved***

               *****************************************************
               *                     SUCCESS                       *
               *           SCF CONVERGED AFTER  35 CYCLES          *
               *****************************************************

Old exchange energy                            =    -59.657192565 Eh
New exchange energy                            =    -59.657136357 Eh
Exchange energy change after final integration =      0.000056208 Eh
Total energy after final integration           =  -1288.449611984 Eh
Final COS-X integration done in                =    57.308 sec

----------------
TOTAL SCF ENERGY
----------------

Total Energy       :        -1288.44961198 Eh          -35060.49638 eV

Components:
Nuclear Repulsion  :         2040.21906308 Eh           55517.18315 eV
Electronic Energy  :        -3328.66867506 Eh          -90577.67953 eV
One Electron Energy:        -5835.94832077 Eh         -158804.22726 eV
Two Electron Energy:         2507.27964571 Eh           68226.54773 eV
Max COSX asymmetry :            0.00001719 Eh               0.00047 eV

Virial components:
Potential Energy   :        -2501.56817393 Eh          -68071.13068 eV
Kinetic Energy     :         1213.11856195 Eh           33010.63430 eV
Virial Ratio       :            2.06209702


DFT components:
N(Alpha)           :       82.000296805848 electrons
N(Beta)            :       82.000296805848 electrons
N(Total)           :      164.000593611695 electrons
E(X)               :      -79.595611065537 Eh       
E(C)               :       -7.458083351296 Eh       
E(XC)              :      -87.053694416832 Eh       
DFET-embed. en.    :        0.000000000000 Eh       

---------------
SCF CONVERGENCE
---------------

  Last Energy change         ...   -3.2062e-09  Tolerance :   1.0000e-08
  Last MAX-Density change    ...    0.0000e+00  Tolerance :   1.0000e-07
  Last RMS-Density change    ...    0.0000e+00  Tolerance :   5.0000e-09
  Last DIIS Error            ...    4.5996e-07  Tolerance :   5.0000e-07

             **** THE GBW FILE WAS UPDATED (reaction4-IEIP_ts_guess_scan_8-6_orca.gbw) ****
             **** DENSITY reaction4-IEIP_ts_guess_scan_8-6_orca.scfp WAS UPDATED ****
             **** ENERGY FILE WAS UPDATED (reaction4-IEIP_ts_guess_scan_8-6_orca.en.tmp) ****
             **** THE GBW FILE WAS UPDATED (reaction4-IEIP_ts_guess_scan_8-6_orca.gbw) ****
             **** DENSITY reaction4-IEIP_ts_guess_scan_8-6_orca.scfp WAS UPDATED ****
----------------
ORBITAL ENERGIES
----------------

  NO   OCC          E(Eh)            E(eV) 
   0   2.0000     -89.765273     -2442.6373 
   1   2.0000     -19.626668      -534.0688 
   2   2.0000     -19.600301      -533.3513 
   3   2.0000     -14.838169      -403.7671 
   4   2.0000     -10.685763      -290.7744 
   5   2.0000     -10.658584      -290.0348 
   6   2.0000     -10.631192      -289.2894 
   7   2.0000     -10.630922      -289.2821 
   8   2.0000     -10.630876      -289.2809 
   9   2.0000     -10.627161      -289.1798 
  10   2.0000     -10.624167      -289.0983 
  11   2.0000     -10.622751      -289.0597 
  12   2.0000     -10.614489      -288.8349 
  13   2.0000     -10.610936      -288.7383 
  14   2.0000     -10.588014      -288.1145 
  15   2.0000     -10.585709      -288.0518 
  16   2.0000     -10.555759      -287.2368 
  17   2.0000     -10.551330      -287.1163 
  18   2.0000     -10.536864      -286.7226 
  19   2.0000      -8.404691      -228.7033 
  20   2.0000      -6.294621      -171.2854 
  21   2.0000      -6.291014      -171.1872 
  22   2.0000      -6.289620      -171.1493 
  23   2.0000      -4.025593      -109.5420 
  24   2.0000      -2.343985       -63.7831 
  25   2.0000      -2.310782       -62.8796 
  26   2.0000      -2.309156       -62.8353 
  27   2.0000      -1.312640       -35.7187 
  28   2.0000      -1.215301       -33.0700 
  29   2.0000      -1.212655       -32.9980 
  30   2.0000      -1.167435       -31.7675 
  31   2.0000      -1.128933       -30.7198 
  32   2.0000      -1.027064       -27.9478 
  33   2.0000      -0.981361       -26.7042 
  34   2.0000      -0.973161       -26.4810 
  35   2.0000      -0.968815       -26.3628 
  36   2.0000      -0.961282       -26.1578 
  37   2.0000      -0.931155       -25.3380 
  38   2.0000      -0.901920       -24.5425 
  39   2.0000      -0.874332       -23.7918 
  40   2.0000      -0.800000       -21.7691 
  41   2.0000      -0.784027       -21.3345 
  42   2.0000      -0.783447       -21.3187 
  43   2.0000      -0.781983       -21.2788 
  44   2.0000      -0.767914       -20.8960 
  45   2.0000      -0.757897       -20.6234 
  46   2.0000      -0.744123       -20.2486 
  47   2.0000      -0.724427       -19.7127 
  48   2.0000      -0.691975       -18.8296 
  49   2.0000      -0.678722       -18.4690 
  50   2.0000      -0.664744       -18.0886 
  51   2.0000      -0.651685       -17.7332 
  52   2.0000      -0.648346       -17.6424 
  53   2.0000      -0.637026       -17.3344 
  54   2.0000      -0.635848       -17.3023 
  55   2.0000      -0.631259       -17.1774 
  56   2.0000      -0.622623       -16.9424 
  57   2.0000      -0.612589       -16.6694 
  58   2.0000      -0.603456       -16.4209 
  59   2.0000      -0.602934       -16.4067 
  60   2.0000      -0.599381       -16.3100 
  61   2.0000      -0.591313       -16.0905 
  62   2.0000      -0.580243       -15.7892 
  63   2.0000      -0.572651       -15.5826 
  64   2.0000      -0.563982       -15.3467 
  65   2.0000      -0.559517       -15.2252 
  66   2.0000      -0.552148       -15.0247 
  67   2.0000      -0.548332       -14.9209 
  68   2.0000      -0.540997       -14.7213 
  69   2.0000      -0.536776       -14.6064 
  70   2.0000      -0.528806       -14.3895 
  71   2.0000      -0.519320       -14.1314 
  72   2.0000      -0.515158       -14.0182 
  73   2.0000      -0.502038       -13.6611 
  74   2.0000      -0.490448       -13.3458 
  75   2.0000      -0.481517       -13.1027 
  76   2.0000      -0.475161       -12.9298 
  77   2.0000      -0.447201       -12.1690 
  78   2.0000      -0.444843       -12.1048 
  79   2.0000      -0.422180       -11.4881 
  80   2.0000      -0.417138       -11.3509 
  81   2.0000      -0.399265       -10.8646 
  82   0.0000      -0.203888        -5.5481 
  83   0.0000      -0.149096        -4.0571 
  84   0.0000      -0.141304        -3.8451 
  85   0.0000      -0.092944        -2.5291 
  86   0.0000      -0.075704        -2.0600 
  87   0.0000      -0.066046        -1.7972 
  88   0.0000      -0.057648        -1.5687 
  89   0.0000      -0.056003        -1.5239 
[...]

----------------------
LOEWDIN ATOMIC CHARGES
----------------------
   0 Ir:   -0.245361
   1 C :   -0.046579
   2 C :   -0.083318
   3 C :   -0.074555
   4 C :   -0.051046
   5 C :   -0.017274
   6 N :   -0.003330
   7 C :   -0.069859
   8 C :   -0.362913
   9 H :    0.156598
  10 H :    0.132900
  11 H :    0.145532
  12 C :   -0.343617
  13 H :    0.156211
  14 H :    0.151994
  15 H :    0.137334
  16 H :    0.133152
  17 C :    0.031833
  18 C :   -0.180666
  19 H :    0.161483
  20 C :   -0.211466
  21 C :   -0.126759
  22 S :    0.489453
  23 C :   -0.261299
  24 H :    0.322715
  25 H :    0.162582
  26 H :    0.168879
  27 H :    0.183249
  28 H :    0.182762
  29 H :    0.191348
  30 O :   -0.269380
  31 O :   -0.197825
  32 C :    0.157351
  33 C :   -0.373927
  34 H :    0.160945
  35 H :    0.169031
  36 H :    0.154615
  37 H :    0.184047
  38 H :    0.185158

-------------------------------
LOEWDIN REDUCED ORBITAL CHARGES
-------------------------------
  0 Irs       :     2.448195  s :     2.448195
      pz      :     2.248655  p :     6.764485
      px      :     2.247819
      py      :     2.268010
      dz2     :     1.807414  d :     7.943245
      dxz     :     1.694868
      dyz     :     1.334212
      dx2y2   :     1.622630
      dxy     :     1.484122
      f0      :     0.011073  f :     0.089436
      f+1     :     0.004122
      f-1     :     0.014294
      f+2     :     0.015982
      f-2     :     0.016588
      f+3     :     0.011097
      f-3     :     0.016280
  1 C s       :     2.874985  s :     2.874985
      pz      :     1.050349  p :     3.067531
      px      :     1.082981
      py      :     0.934201
      dz2     :     0.026121  d :     0.104062
      dxz     :     0.026502
      dyz     :     0.017165
      dx2y2   :     0.018703
      dxy     :     0.015571
  2 C s       :     2.874484  s :     2.874484
      pz      :     1.042326  p :     3.108702
      px      :     1.081438
      py      :     0.984938
      dz2     :     0.024812  d :     0.100132
      dxz     :     0.027818
      dyz     :     0.016961
      dx2y2   :     0.017701
      dxy     :     0.012840
  3 C s       :     2.872667  s :     2.872667
      pz      :     1.031553  p :     3.101442
      px      :     1.081757
      py      :     0.988133
      dz2     :     0.023154  d :     0.100446
      dxz     :     0.031731
      dyz     :     0.015510
      dx2y2   :     0.015815
      dxy     :     0.014237
  4 C s       :     2.874446  s :     2.874446
      pz      :     1.087595  p :     3.073905
      px      :     1.039281
      py      :     0.947029
      dz2     :     0.022428  d :     0.102695
      dxz     :     0.030543
      dyz     :     0.013036
      dx2y2   :     0.018449
      dxy     :     0.018239
  5 C s       :     2.878456  s :     2.878456
      pz      :     1.055832  p :     3.033887
      px      :     1.036933
      py      :     0.941122
      dz2     :     0.023492  d :     0.104931
      dxz     :     0.030786
      dyz     :     0.015931
      dx2y2   :     0.015743
      dxy     :     0.018978
  6 N s       :     3.123304  s :     3.123304
      pz      :     1.258447  p :     3.781732
      px      :     1.291667
      py      :     1.231618
      dz2     :     0.030579  d :     0.098294
      dxz     :     0.027492
      dyz     :     0.018729
      dx2y2   :     0.011645
      dxy     :     0.009849
  7 C s       :     2.862569  s :     2.862569
      pz      :     1.059653  p :     3.073022
      px      :     0.938140
      py      :     1.075229
      dz2     :     0.026331  d :     0.134268
      dxz     :     0.028896
      dyz     :     0.015981
      dx2y2   :     0.029837
      dxy     :     0.033222
  8 C s       :     2.953432  s :     2.953432
      pz      :     1.134757  p :     3.342034
      px      :     1.124292
      py      :     1.082985
      dz2     :     0.013558  d :     0.067447
      dxz     :     0.017594
      dyz     :     0.007656
      dx2y2   :     0.009759
      dxy     :     0.018880
  9 H s       :     0.843402  s :     0.843402
 10 H s       :     0.867100  s :     0.867100
 11 H s       :     0.854468  s :     0.854468
 12 C s       :     2.953332  s :     2.953332
      pz      :     1.143318  p :     3.322322
      px      :     1.109435
      py      :     1.069569
      dz2     :     0.012577  d :     0.067963
      dxz     :     0.013850
      dyz     :     0.011726
      dx2y2   :     0.011705
      dxy     :     0.018105
 13 H s       :     0.843789  s :     0.843789
 14 H s       :     0.848006  s :     0.848006
 15 H s       :     0.862666  s :     0.862666
 16 H s       :     0.866848  s :     0.866848
 17 C s       :     2.877152  s :     2.877152
      pz      :     1.015642  p :     2.950944
      px      :     1.063181
      py      :     0.872122
      dz2     :     0.039895  d :     0.140071
      dxz     :     0.050010
      dyz     :     0.025372
      dx2y2   :     0.011935
      dxy     :     0.012858
 18 C s       :     2.893876  s :     2.893876
      pz      :     1.049265  p :     3.174330
      px      :     1.089910
      py      :     1.035155
      dz2     :     0.033167  d :     0.112460
      dxz     :     0.032829
      dyz     :     0.017566
      dx2y2   :     0.017021
      dxy     :     0.011877
 19 H s       :     0.838517  s :     0.838517
 20 C s       :     2.902942  s :     2.902942
      pz      :     1.127065  p :     3.215149
      px      :     1.055152
      py      :     1.032931
      dz2     :     0.012109  d :     0.093375
      dxz     :     0.036419
      dyz     :     0.010842
      dx2y2   :     0.017777
      dxy     :     0.016228
 21 C s       :     2.897128  s :     2.897128
      pz      :     1.077179  p :     3.135198
      px      :     1.087553
      py      :     0.970467
      dz2     :     0.027787  d :     0.094433
      dxz     :     0.031239
      dyz     :     0.014032
      dx2y2   :     0.013940
      dxy     :     0.007436
 22 S s       :     5.500966  s :     5.500966
      pz      :     3.265580  p :     9.855001
      px      :     3.083602
      py      :     3.505819
      dz2     :     0.046219  d :     0.154579
      dxz     :     0.034381
      dyz     :     0.019508
      dx2y2   :     0.029906
      dxy     :     0.024565
 23 C s       :     2.964446  s :     2.964446
      pz      :     1.119396  p :     3.211286
      px      :     1.023183
      py      :     1.068706
      dz2     :     0.023085  d :     0.085567
      dxz     :     0.029940
      dyz     :     0.012009
      dx2y2   :     0.011745
      dxy     :     0.008788
 24 H s       :     0.677285  s :     0.677285
 25 H s       :     0.837418  s :     0.837418
 26 H s       :     0.831121  s :     0.831121
 27 H s       :     0.816751  s :     0.816751
 28 H s       :     0.817238  s :     0.817238
 29 H s       :     0.808652  s :     0.808652
 30 O s       :     3.510847  s :     3.510847
      pz      :     1.456934  p :     4.703884
      px      :     1.546134
      py      :     1.700817
      dz2     :     0.017333  d :     0.054649
      dxz     :     0.013946
      dyz     :     0.015201
      dx2y2   :     0.004775
      dxy     :     0.003394
 31 O s       :     3.445547  s :     3.445547
      pz      :     1.692550  p :     4.692654
      px      :     1.617160
      py      :     1.382944
      dz2     :     0.009245  d :     0.059625
      dxz     :     0.003894
      dyz     :     0.016039
      dx2y2   :     0.015222
      dxy     :     0.015225
 32 C s       :     2.813558  s :     2.813558
      pz      :     0.989077  p :     2.708352
      px      :     0.762037
      py      :     0.957238
      dz2     :     0.074122  d :     0.320740
      dxz     :     0.047243
      dyz     :     0.103579
      dx2y2   :     0.046597
      dxy     :     0.049199
 33 C s       :     2.959132  s :     2.959132
      pz      :     1.099779  p :     3.352126
      px      :     1.150888
      py      :     1.101459
      dz2     :     0.004630  d :     0.062669
      dxz     :     0.017342
      dyz     :     0.020122
      dx2y2   :     0.018440
      dxy     :     0.002135
 34 H s       :     0.839055  s :     0.839055
 35 H s       :     0.830969  s :     0.830969
 36 H s       :     0.845385  s :     0.845385
 37 H s       :     0.815953  s :     0.815953
 38 H s       :     0.814842  s :     0.814842


                      *****************************
                      * MAYER POPULATION ANALYSIS *
                      *****************************

  NA   - Mulliken gross atomic population
  ZA   - Total nuclear charge
  QA   - Mulliken gross atomic charge
  VA   - Mayer's total valence
  BVA  - Mayer's bonded valence
  FA   - Mayer's free valence

  ATOM       NA         ZA         QA         VA         BVA        FA
  0 Ir    16.3924    17.0000     0.6076     3.7423     3.7423    -0.0000
  1 C      6.2209     6.0000    -0.2209     3.7108     3.7108    -0.0000
  2 C      6.2755     6.0000    -0.2755     3.7377     3.7377    -0.0000
  3 C      6.2519     6.0000    -0.2519     3.7392     3.7392    -0.0000
  4 C      6.2385     6.0000    -0.2385     3.7212     3.7212     0.0000
  5 C      6.1608     6.0000    -0.1608     3.6972     3.6972     0.0000
  6 N      7.4301     7.0000    -0.4301     3.2163     3.2163    -0.0000
  7 C      6.1269     6.0000    -0.1269     3.7022     3.7022    -0.0000
  8 C      6.6847     6.0000    -0.6847     3.6868     3.6868    -0.0000
  9 H      0.7299     1.0000     0.2701     0.8972     0.8972    -0.0000
 10 H      0.7756     1.0000     0.2244     0.9107     0.9107    -0.0000
 11 H      0.7418     1.0000     0.2582     0.8987     0.8987    -0.0000
 12 C      6.6349     6.0000    -0.6349     3.6723     3.6723     0.0000
 13 H      0.7179     1.0000     0.2821     0.8740     0.8740     0.0000
 14 H      0.7383     1.0000     0.2617     0.8977     0.8977    -0.0000
 15 H      0.7687     1.0000     0.2313     0.9097     0.9097     0.0000
 16 H      0.7679     1.0000     0.2321     0.9063     0.9063    -0.0000
 17 C      5.9288     6.0000     0.0712     3.6494     3.6494     0.0000
 18 C      6.1458     6.0000    -0.1458     3.7061     3.7061     0.0000
 19 H      0.7120     1.0000     0.2880     0.8868     0.8868    -0.0000
 20 C      6.5179     6.0000    -0.5179     3.5054     3.5054     0.0000
 21 C      6.1137     6.0000    -0.1137     3.7531     3.7531    -0.0000
 22 S     15.6710    16.0000     0.3290     2.5947     2.5947     0.0000
 23 C      6.4313     6.0000    -0.4313     3.7509     3.7509    -0.0000
 24 H      0.5144     1.0000     0.4856     0.7418     0.7418    -0.0000
 25 H      0.7337     1.0000     0.2663     0.9034     0.9034    -0.0000
 26 H      0.7018     1.0000     0.2982     0.8970     0.8970     0.0000
 27 H      0.7121     1.0000     0.2879     0.9038     0.9038    -0.0000
 28 H      0.7129     1.0000     0.2871     0.9074     0.9074    -0.0000
 29 H      0.6971     1.0000     0.3029     0.8932     0.8932    -0.0000
 30 O      8.4782     8.0000    -0.4782     2.1368     2.1368     0.0000
 31 O      8.5275     8.0000    -0.5275     2.0883     2.0883    -0.0000
 32 C      5.3771     6.0000     0.6229     3.9076     3.9076    -0.0000
 33 C      6.7442     6.0000    -0.7442     3.6653     3.6653     0.0000
 34 H      0.7293     1.0000     0.2707     0.8946     0.8946    -0.0000
 35 H      0.7305     1.0000     0.2695     0.8939     0.8939     0.0000
 36 H      0.7440     1.0000     0.2560     0.8999     0.8999     0.0000
 37 H      0.7129     1.0000     0.2871     0.9056     0.9056    -0.0000
 38 H      0.7068     1.0000     0.2932     0.9032     0.9032    -0.0000

  Mayer bond orders larger than 0.100000
B(  0-Ir,  1-C ) :   0.4208 B(  0-Ir,  2-C ) :   0.4744 B(  0-Ir,  3-C ) :   0.4609 
B(  0-Ir,  4-C ) :   0.4417 B(  0-Ir,  5-C ) :   0.3954 B(  0-Ir,  6-N ) :   0.4642 
B(  0-Ir, 20-C ) :   0.3646 B(  0-Ir, 31-O ) :   0.5547 B(  1-C ,  2-C ) :   1.1271 
B(  1-C ,  4-C ) :   1.2399 B(  1-C , 27-H ) :   0.9054 B(  2-C ,  5-C ) :   1.1604 
B(  2-C , 28-H ) :   0.9096 B(  3-C ,  4-C ) :   1.1161 B(  3-C ,  5-C ) :   1.2134 
B(  3-C , 37-H ) :   0.9094 B(  4-C , 38-H ) :   0.9005 B(  5-C , 29-H ) :   0.8991 
B(  6-N ,  7-C ) :   0.8930 B(  6-N , 17-C ) :   1.6660 B(  7-C ,  8-C ) :   0.9907 
B(  7-C , 12-C ) :   0.9673 B(  7-C , 13-H ) :   0.8742 B(  8-C ,  9-H ) :   0.9043 
B(  8-C , 10-H ) :   0.9132 B(  8-C , 11-H ) :   0.9100 B( 12-C , 14-H ) :   0.9071 
B( 12-C , 15-H ) :   0.9156 B( 12-C , 16-H ) :   0.9124 B( 17-C , 18-C ) :   1.0883 
B( 17-C , 19-H ) :   0.8758 B( 18-C , 20-C ) :   1.2533 B( 18-C , 22-S ) :   1.2453 
B( 20-C , 21-C ) :   1.2681 B( 20-C , 24-H ) :   0.4165 B( 21-C , 23-C ) :   1.5498 
B( 21-C , 25-H ) :   0.9038 B( 22-S , 23-C ) :   1.2080 B( 23-C , 26-H ) :   0.8913 
B( 24-H , 30-O ) :   0.2853 B( 30-O , 32-C ) :   1.6416 B( 31-O , 32-C ) :   1.3165 
B( 32-C , 33-C ) :   0.9457 B( 33-C , 34-H ) :   0.9036 B( 33-C , 35-H ) :   0.8968 
B( 33-C , 36-H ) :   0.9087 


------------------
HIRSHFELD ANALYSIS
------------------

Total integrated alpha density =     82.000081347
Total integrated beta density  =     82.000081347

  ATOM     CHARGE      SPIN    
   0 Ir   0.187557    0.000000
   1 C    0.003268    0.000000
   2 C   -0.009652    0.000000
   3 C   -0.009472    0.000000
   4 C   -0.001842    0.000000
   5 C    0.020108    0.000000
   6 N   -0.066769    0.000000
   7 C    0.052892    0.000000
   8 C   -0.071310    0.000000
   9 H    0.053482    0.000000
  10 H    0.037520    0.000000
  11 H    0.042597    0.000000
  12 C   -0.070846    0.000000
  13 H    0.045620    0.000000
  14 H    0.050843    0.000000
  15 H    0.036799    0.000000
  16 H    0.030543    0.000000
  17 C    0.097623    0.000000
  18 C   -0.003058    0.000000
  19 H    0.077852    0.000000
  20 C   -0.079558    0.000000
  21 C   -0.026315    0.000000
  22 S    0.138600    0.000000
  23 C   -0.026014    0.000000
  24 H    0.077812    0.000000
  25 H    0.069814    0.000000
  26 H    0.078685    0.000000
  27 H    0.082236    0.000000
  28 H    0.081922    0.000000
  29 H    0.093068    0.000000
  30 O   -0.248320    0.000000
  31 O   -0.253407    0.000000
  32 C    0.244830    0.000000
  33 C   -0.065308    0.000000
  34 H    0.055535    0.000000
  35 H    0.061047    0.000000
  36 H    0.049678    0.000000
  37 H    0.082998    0.000000
  38 H    0.078780    0.000000

  TOTAL   0.999837    0.000000

-------
TIMINGS
-------

Total SCF time: 0 days 0 hours 4 min 39 sec 

Total time                  ....     279.179 sec
Sum of individual times     ....     278.602 sec  ( 99.8%)

Fock matrix formation       ....     270.818 sec  ( 97.0%)
  Split-RI-J                ....      21.791 sec  (  8.0% of F)
  Chain of spheres X        ....     233.880 sec  ( 86.4% of F)
  XC integration            ....      15.149 sec  (  5.6% of F)
    Basis function eval.    ....       6.978 sec  ( 46.1% of XC)
    Density eval.           ....       3.967 sec  ( 26.2% of XC)
    XC-Functional eval.     ....       1.105 sec  (  7.3% of XC)
    XC-Potential eval.      ....       2.539 sec  ( 16.8% of XC)
Diagonalization             ....       0.228 sec  (  0.1%)
Density matrix formation    ....       0.037 sec  (  0.0%)
Population analysis         ....       1.445 sec  (  0.5%)
Initial guess               ....       0.025 sec  (  0.0%)
Orbital Transformation      ....       0.000 sec  (  0.0%)
Orbital Orthonormalization  ....       0.018 sec  (  0.0%)
DIIS solution               ....       0.088 sec  (  0.0%)
Grid generation             ....       5.962 sec  (  2.1%)

Maximum memory used throughout the entire SCF-calculation: 173.4 MB


-------------------------------------------------------------------------------
                          DFT DISPERSION CORRECTION                            
                                                                               
                              DFTD3 V3.1  Rev 1                                
                          USING Becke-Johnson damping                          
-------------------------------------------------------------------------------
The PBEh-3c composite method is recognized
Using three-body term ABC
Active option DFTDOPT                   ...         4   

molecular C6(AA) [au] = 19549.661288 


            DFT-D V3
 parameters
 s6 scaling factor         :     1.0000 
 a1 scaling factor         :     0.4860 
 s8 scaling factor         :     0.0000 
 a2 scaling factor         :     4.5000 
 Damping factor alpha9(ATM):    16.0000 
 ad hoc parameters k1-k3   :    16.0000     1.3333    -4.0000 

 Edisp/kcal,au: -19.323743569484  -0.030794342248 
 E6   /kcal   : -19.667280106 
 E8   /kcal   :  -0.000000000 
 E6(ABC)      :   0.343536537 
 % E8         :   0.000000000 
 % E6(ABC)    :  -1.777794948 

-------------------------   ----------------
Dispersion correction           -0.030794342
-------------------------   ----------------

 ** NOTE ** -> element ir will be treated as co
NOTIFICATION: Different basis set in ORCA and otool_gcp:
ORCA: 358  gCP: 357 
If you are NOT using ECPs, check your basis set inputs!
------------------   -----------------
gCP correction             0.079810773
------------------   -----------------

-------------------------   --------------------
FINAL SINGLE POINT ENERGY     -1288.400825539251
-------------------------   --------------------

                                *** OPTIMIZATION RUN DONE ***

                            ***************************************
                            *     ORCA property calculations      *
                            ***************************************

                                    ---------------------
                                    Active property flags
                                    ---------------------
   (+) Dipole Moment


------------------------------------------------------------------------------
                       ORCA ELECTRIC PROPERTIES CALCULATION
------------------------------------------------------------------------------

Dipole Moment Calculation                       ... on
Quadrupole Moment Calculation                   ... off
Polarizability Calculation                      ... off
GBWName                                         ... reaction4-IEIP_ts_guess_scan_8-6_orca.gbw
Electron density                                ... reaction4-IEIP_ts_guess_scan_8-6_orca.scfp
The origin for moment calculation is the CENTER OF MASS  = ( 0.868386, -0.588490 -0.160862)

-------------
DIPOLE MOMENT
-------------
                                X             Y             Z
Electronic contribution:     38.05408     -69.92969      73.04442
Nuclear contribution   :    -38.67825      69.01682     -73.37839
                        -----------------------------------------
Total Dipole Moment    :     -0.62417      -0.91287      -0.33397
                        -----------------------------------------
Magnitude (a.u.)       :      1.15519
Magnitude (Debye)      :      2.93626



--------------------
Rotational spectrum 
--------------------
 
Rotational constants in cm-1:     0.010566     0.009034     0.008193 
Rotational constants in MHz :   316.775541   270.836682   245.611774 

 Dipole components along the rotational axes: 
x,y,z [a.u.] :    -0.129511     0.254636    -1.119307 
x,y,z [Debye]:    -0.329191     0.647233    -2.845053 

 

Timings for individual modules:

Sum of individual times         ...     5286.855 sec (=  88.114 min)
GTO integral calculation        ...       16.769 sec (=   0.279 min)   0.3 %
SCF iterations                  ...     4197.883 sec (=  69.965 min)  79.4 %
SCF Gradient evaluation         ...     1069.428 sec (=  17.824 min)  20.2 %
Geometry relaxation             ...        2.776 sec (=   0.046 min)   0.1 %
                             ****ORCA TERMINATED NORMALLY****
TOTAL RUN TIME: 0 days 1 hours 28 minutes 10 seconds 741 msec
