
                                 *****************
                                 * O   R   C   A *
                                 *****************

                                            #,                                       
                                            ###                                      
                                            ####                                     
                                            #####                                    
                                            ######                                   
                                           ########,                                 
                                     ,,################,,,,,                         
                               ,,#################################,,                 
                          ,,##########################################,,             
                       ,#########################################, ''#####,          
                    ,#############################################,,   '####,        
                  ,##################################################,,,,####,       
                ,###########''''           ''''###############################       
              ,#####''   ,,,,##########,,,,          '''####'''          '####       
            ,##' ,,,,###########################,,,                        '##       
           ' ,,###''''                  '''############,,,                           
         ,,##''                                '''############,,,,        ,,,,,,###''
      ,#''                                            '''#######################'''  
     '                                                          ''''####''''         
             ,#######,   #######,   ,#######,      ##                                
            ,#'     '#,  ##    ##  ,#'     '#,    #''#        ######   ,####,        
            ##       ##  ##   ,#'  ##            #'  '#       #        #'  '#        
            ##       ##  #######   ##           ,######,      #####,   #    #        
            '#,     ,#'  ##    ##  '#,     ,#' ,#      #,         ##   #,  ,#        
             '#######'   ##     ##  '#######'  #'      '#     #####' # '####'        



                  #######################################################
                  #                        -***-                        #
                  #          Department of theory and spectroscopy      #
                  #    Directorship and core code : Frank Neese         #
                  #        Max Planck Institute fuer Kohlenforschung    #
                  #                Kaiser Wilhelm Platz 1               #
                  #                 D-45470 Muelheim/Ruhr               #
                  #                      Germany                        #
                  #                                                     #
                  #                  All rights reserved                #
                  #                        -***-                        #
                  #######################################################


                         Program Version 5.0.3 -  RELEASE  -


 With contributions from (in alphabetic order):
   Daniel Aravena         : Magnetic Suceptibility
   Michael Atanasov       : Ab Initio Ligand Field Theory (pilot matlab implementation)
   Alexander A. Auer      : GIAO ZORA, VPT2 properties, NMR spectrum
   Ute Becker             : Parallelization
   Giovanni Bistoni       : ED, misc. LED, open-shell LED, HFLD
   Martin Brehm           : Molecular dynamics
   Dmytro Bykov           : SCF Hessian
   Vijay G. Chilkuri      : MRCI spin determinant printing, contributions to CSF-ICE
   Dipayan Datta          : RHF DLPNO-CCSD density
   Achintya Kumar Dutta   : EOM-CC, STEOM-CC
   Dmitry Ganyushin       : Spin-Orbit,Spin-Spin,Magnetic field MRCI
   Miquel Garcia          : C-PCM and meta-GGA Hessian, CC/C-PCM, Gaussian charge scheme
   Yang Guo               : DLPNO-NEVPT2, F12-NEVPT2, CIM, IAO-localization
   Andreas Hansen         : Spin unrestricted coupled pair/coupled cluster methods
   Benjamin Helmich-Paris : MC-RPA, TRAH-SCF, COSX integrals
   Lee Huntington         : MR-EOM, pCC
   Robert Izsak           : Overlap fitted RIJCOSX, COSX-SCS-MP3, EOM
   Marcus Kettner         : VPT2
   Christian Kollmar      : KDIIS, OOCD, Brueckner-CCSD(T), CCSD density, CASPT2, CASPT2-K
   Simone Kossmann        : Meta GGA functionals, TD-DFT gradient, OOMP2, MP2 Hessian
   Martin Krupicka        : Initial AUTO-CI
   Lucas Lang             : DCDCAS
   Marvin Lechner         : AUTO-CI (C++ implementation), FIC-MRCC
   Dagmar Lenk            : GEPOL surface, SMD
   Dimitrios Liakos       : Extrapolation schemes; Compound Job, initial MDCI parallelization
   Dimitrios Manganas     : Further ROCIS development; embedding schemes
   Dimitrios Pantazis     : SARC Basis sets
   Anastasios Papadopoulos: AUTO-CI, single reference methods and gradients
   Taras Petrenko         : DFT Hessian,TD-DFT gradient, ASA, ECA, R-Raman, ABS, FL, XAS/XES, NRVS
   Peter Pinski           : DLPNO-MP2, DLPNO-MP2 Gradient
   Christoph Reimann      : Effective Core Potentials
   Marius Retegan         : Local ZFS, SOC
   Christoph Riplinger    : Optimizer, TS searches, QM/MM, DLPNO-CCSD(T), (RO)-DLPNO pert. Triples
   Tobias Risthaus        : Range-separated hybrids, TD-DFT gradient, RPA, STAB
   Michael Roemelt        : Original ROCIS implementation
   Masaaki Saitow         : Open-shell DLPNO-CCSD energy and density
   Barbara Sandhoefer     : DKH picture change effects
   Avijit Sen             : IP-ROCIS
   Kantharuban Sivalingam : CASSCF convergence, NEVPT2, FIC-MRCI
   Bernardo de Souza      : ESD, SOC TD-DFT
   Georgi Stoychev        : AutoAux, RI-MP2 NMR, DLPNO-MP2 response
   Willem Van den Heuvel  : Paramagnetic NMR
   Boris Wezisla          : Elementary symmetry handling
   Frank Wennmohs         : Technical directorship


 We gratefully acknowledge several colleagues who have allowed us to
 interface, adapt or use parts of their codes:
   Stefan Grimme, W. Hujo, H. Kruse, P. Pracht,  : VdW corrections, initial TS optimization,
                  C. Bannwarth, S. Ehlert          DFT functionals, gCP, sTDA/sTD-DF
   Ed Valeev, F. Pavosevic, A. Kumar             : LibInt (2-el integral package), F12 methods
   Garnet Chan, S. Sharma, J. Yang, R. Olivares  : DMRG
   Ulf Ekstrom                                   : XCFun DFT Library
   Mihaly Kallay                                 : mrcc  (arbitrary order and MRCC methods)
   Jiri Pittner, Ondrej Demel                    : Mk-CCSD
   Frank Weinhold                                : gennbo (NPA and NBO analysis)
   Christopher J. Cramer and Donald G. Truhlar   : smd solvation model
   Lars Goerigk                                  : TD-DFT with DH, B97 family of functionals
   V. Asgeirsson, H. Jonsson                     : NEB implementation
   FAccTs GmbH                                   : IRC, NEB, NEB-TS, DLPNO-Multilevel, CI-OPT
                                                   MM, QMMM, 2- and 3-layer-ONIOM, Crystal-QMMM,
                                                   LR-CPCM, SF, NACMEs, symmetry and pop. for TD-DFT,
                                                   nearIR, NL-DFT gradient (VV10), updates on ESD,
                                                   ML-optimized integration grids
   S Lehtola, MJT Oliveira, MAL Marques          : LibXC Library
   Liviu Ungur et al                             : ANISO software


 Your calculation uses the libint2 library for the computation of 2-el integrals
 For citations please refer to: http://libint.valeyev.net

 Your ORCA version has been built with support for libXC version: 5.1.0
 For citations please refer to: https://tddft.org/programs/libxc/

 This ORCA versions uses:
   CBLAS   interface :  Fast vector & matrix operations
   LAPACKE interface :  Fast linear algebra routines
   SCALAPACK package :  Parallel linear algebra routines
   Shared memory     :  Shared parallel matrices
   BLAS/LAPACK       :  OpenBLAS 0.3.15  USE64BITINT DYNAMIC_ARCH NO_AFFINITY SkylakeX SINGLE_THREADED
        Core in use  :  SkylakeX
   Copyright (c) 2011-2014, The OpenBLAS Project


Your calculation utilizes the geometrical counterpoise correction gCP
Please cite in your paper:
H.Kruse, S. Grimme J.Chem.Phys., 136, (2012), 154101 
   

Your calculation utilizes the atom-pairwise dispersion correction
with the Becke-Johnson damping scheme (D3BJ)
Cite in your paper:
S.Grimme, S.Ehrlich, L.Goerigk, J Comput Chem, (2011), 32, 1456–1465 
S.Grimme, J.Antony, S.Ehrlich and H.Krieg, J.Chem.Phys., 132, (2010), 154104 
   

Your calculation employs the composite approach PBEh-3c.
Please cite in your paper:
S. Grimme, J. G. Brandenburg, C. Bannwarth, A. Hansen J.Chem.Phys., 143, (2015), 054107 
   

================================================================================

cite the ECPs for Ir [Def2-ECP] as follows:
Ce-Yb(ecp-28): M. Dolg, H. Stoll, H.Preuss, J. Chem. Phys., 1989, 90, 1730-1734.
Y-Cd(ecp-28), Hf-Hg(ecp-46): D. Andrae,U. Haeussermann, M. Dolg, H. Stoll, H. Preuss, Theor. Chim. Acta, 1990, 77, 123-141.
In-Sb(ecp-28), Tl-Bi(ecp-46): B. Metz, H. Stoll, M. Dolg, J. Chem. Phys., 2000, 113, 2563-2569.
Te-Xe(ecp-28), Po-Rn(ecp-46): K. A. Peterson, D. Figgen, E. Goll, H. Stoll, M. Dolg, J. Chem. Phys., 2003, 119, 11113-11123.
Rb(ecp-28), Cs(ecp-46): T. Leininger, A. Nicklass, W. Kuechle, H. Stoll, M. Dolg, A. Bergner, Chem. Phys. Lett., 1996, 255, 274-280.
Sr(ecp-28), Ba(ecp-46): M. Kaupp, P. V. Schleyer, H. Stoll and H. Preuss, J. Chem. Phys., 1991, 94, 1360-1366.
La(ecp-46): M. Dolg, H. Stoll, A. Savin, H. Preuss, Theor. Chim. Acta, 1989, 75, 173-194.
Lu(ecp-28): X. Cao, M. Dolg, J. Chem. Phys., 2001, 115, 7348-7355.

ECP parameters for Ir [Def2-ECP] have been obtained from:
TURBOMOLE (7.0.2)

----- Orbital basis set information -----
Your calculation utilizes the basis: def2-mSVP

----- AuxJ basis set information -----
Your calculation utilizes the auxiliary basis: def2/J
   F. Weigend, Phys. Chem. Chem. Phys. 8, 1057 (2006).

================================================================================
                                        WARNINGS
                       Please study these warnings very carefully!
================================================================================


WARNING: Geometry Optimization
  ===> : Switching off AutoStart
         For restart on a previous wavefunction, please use MOREAD

WARNING: No Hueckel Guess possible with ECP basis!
  ===> : Switching to HCORE guess!

INFO   : the flag for use of the SHARK integral package has been found!

================================================================================
                                       INPUT FILE
================================================================================
NAME = reaction4-IEIP_ts_guess_scan_7-4_orca.inp
|  1> ! Opt PBEh-3c
|  2> %geom Constraints
|  3> { B 0 20 2.3 C }
|  4> { B 24 30 1.4428571428571428 C }
|  5>     end
|  6> end
|  7> %output 
|  8> xyzfile=True 
|  9> end 
| 10> %scf 
| 11> maxiter 250 
| 12> end
| 13> %output
| 14> Print[P_Hirshfeld] = 1
| 15> end
| 16> % maxcore
| 17> 4000
| 18> *xyz 1 1
| 19> Ir   0.60881681  -0.71190767   0.43766382 
| 20> C    0.06196589  -2.80392604   0.35270479 
| 21> C    0.10031656  -2.34466114   1.71684443 
| 22> C    2.21272441  -2.11583267   0.81986280 
| 23> C    1.34386655  -2.64494197  -0.20656482 
| 24> C    1.45246079  -1.96433475   1.99577630 
| 25> N   -1.04650076   0.15807261  -0.52553474 
| 26> C   -2.31444341   0.46040686   0.15654898 
| 27> C   -3.11368747   1.56920215  -0.50961327 
| 28> H   -3.93906616   1.84966593   0.14334474 
| 29> H   -3.55901382   1.26240673  -1.45726627 
| 30> H   -2.51227025   2.46347829  -0.67513400 
| 31> C   -3.13300193  -0.81745181   0.29862268 
| 32> H   -2.01992756   0.79724509   1.15160258 
| 33> H   -4.04288565  -0.60836380   0.85922428 
| 34> H   -3.42480743  -1.21153482  -0.67569998 
| 35> H   -2.59036353  -1.59240862   0.83792674 
| 36> C   -0.86705074   0.38362342  -1.77063451 
| 37> C    0.47590153   0.17274235  -2.25430830 
| 38> H   -1.65895033   0.74920977  -2.41753304 
| 39> C    1.56200458   0.37546278  -1.40571301 
| 40> C    2.77355940  -0.00342207  -2.05578491 
| 41> S    0.92265207  -0.43936942  -3.77597463 
| 42> C    2.57942929  -0.45560559  -3.32306628 
| 43> H    1.52551505   1.29962238  -0.65085403 
| 44> H    3.75290817   0.10905266  -1.61386282 
| 45> H    3.32395051  -0.77666404  -4.03578172 
| 46> H   -0.80930512  -3.17861985  -0.16509647 
| 47> H   -0.71014290  -2.37349660   2.42981149 
| 48> H    1.80845582  -1.55430258   2.93006545 
| 49> O    1.36239767   2.45286976   0.22474776 
| 50> O    0.53436559   0.93880926   1.63548660 
| 51> C    0.93275619   2.12541932   1.33090942 
| 52> C    0.87330350   3.11919915   2.45676155 
| 53> H    0.84797980   4.13548944   2.07326233 
| 54> H    1.77094297   3.01538487   3.06946206 
| 55> H    0.01765044   2.94273155   3.10507594 
| 56> H    3.26399636  -1.89516470   0.71172062 
| 57> H    1.63286712  -2.88889630  -1.21826253 
| 58> *
| 59> 
| 60>                          ****END OF INPUT****
================================================================================

                       *****************************
                       * Geometry Optimization Run *
                       *****************************

Geometry optimization settings:
Update method            Update   .... BFGS
Choice of coordinates    CoordSys .... Z-matrix Internals
Initial Hessian          InHess   .... Almoef's Model

Convergence Tolerances:
Energy Change            TolE     ....  5.0000e-06 Eh
Max. Gradient            TolMAXG  ....  3.0000e-04 Eh/bohr
RMS Gradient             TolRMSG  ....  1.0000e-04 Eh/bohr
Max. Displacement        TolMAXD  ....  4.0000e-03 bohr
RMS Displacement         TolRMSD  ....  2.0000e-03 bohr
Strict Convergence                ....  False
------------------------------------------------------------------------------
                        ORCA OPTIMIZATION COORDINATE SETUP
------------------------------------------------------------------------------

The optimization will be done in new redundant internal coordinates
Making redundant internal coordinates   ...  (new redundants) done
Evaluating the initial hessian          ...  (Almloef) done
Evaluating the coordinates              ...  done
Calculating the B-matrix                .... done
Calculating the G-matrix                .... done
Diagonalizing the G-matrix              .... done
Imposing constraints:
 Iter   0:  RMS(Cart)=    0.0241101078 RMS(Int)=    0.0024101303
 Iter   1:  RMS(Cart)=    0.0009709441 RMS(Int)=    0.0001095066
 Iter   2:  RMS(Cart)=    0.0000425810 RMS(Int)=    0.0000047970
 Iter   3:  RMS(Cart)=    0.0000017856 RMS(Int)=    0.0000002008
 Iter   4:  RMS(Cart)=    0.0000000716 RMS(Int)=    0.0000000081
CONVERGED
Small eigenvalue found = 1.280e-02
Small eigenvalue found = 1.640e-02
Small eigenvalue found = 2.241e-02
Small eigenvalue found = 2.352e-02
Small eigenvalue found = 2.831e-02
The first mode is                       ....  227
The number of degrees of freedom        ....  111
Storing new coordinates                 .... done

    -----------------------------------------------------------------
                    Redundant Internal Coordinates


    -----------------------------------------------------------------
         Definition                    Initial Value    Approx d2E/dq
    -----------------------------------------------------------------
      1. B(C   1,Ir  0)                  2.1640         0.084694   
      2. B(C   2,C   1)                  1.4399         0.520174   
      3. B(C   2,Ir  0)                  2.1356         0.094003   
      4. B(C   3,Ir  0)                  2.1656         0.084207   
      5. B(C   4,Ir  0)                  2.1661         0.084040   
      6. B(C   4,C   3)                  1.4452         0.510234   
      7. B(C   4,C   1)                  1.4076         0.585686   
      8. B(C   5,Ir  0)                  2.1698         0.082903   
      9. B(C   5,C   2)                  1.4321         0.535381   
     10. B(C   5,C   3)                  1.4085         0.583857   
     11. B(N   6,Ir  0)                  2.1031         0.094730   
     12. B(C   7,N   6)                  1.4712         0.415321   
     13. B(C   8,C   7)                  1.5205         0.386810   
     14. B(H   9,C   8)                  1.0892         0.361216   
     15. B(H  10,C   8)                  1.0911         0.358656   
     16. B(H  11,C   8)                  1.0903         0.359658   
     17. B(C  12,C   7)                  1.5242         0.381638   
     18. B(H  13,C   7)                  1.0910         0.358749   
     19. B(H  14,C  12)                  1.0890         0.361450   
     20. B(H  15,C  12)                  1.0908         0.359097   
     21. B(H  16,C  12)                  1.0890         0.361460   
     22. B(C  17,N   6)                  1.2764         0.844353   
     23. B(C  18,C  17)                  1.4420         0.514465   
     24. B(H  19,C  17)                  1.0859         0.365529   
     25. B(C  20,C  18)                  1.3932         0.617639   
     26. B(C  20,Ir  0)                  2.3000         0.043900 C 
     27. B(C  21,C  20)                  1.4263         0.547020   
     28. B(S  22,C  18)                  1.6999         0.539567   
     29. B(C  23,C  21)                  1.3597         0.698952   
     30. B(C  23,S  22)                  1.7179         0.505559   
     31. B(H  24,C  20)                  1.1938         0.245912   
     32. B(H  25,C  21)                  1.0804         0.373150   
     33. B(H  26,C  23)                  1.0796         0.374240   
     34. B(H  27,C   1)                  1.0806         0.372796   
     35. B(H  28,C   2)                  1.0798         0.373830   
     36. B(H  29,C   5)                  1.0806         0.372715   
     37. B(O  30,H  24)                  1.4429         0.083716 C 
     38. B(O  31,Ir  0)                  2.0409         0.119231   
     39. B(C  32,O  30)                  1.2310         1.003503   
     40. B(C  32,O  31)                  1.2883         0.813298   
     41. B(C  33,C  32)                  1.5029         0.412697   
     42. B(H  34,C  33)                  1.0865         0.364713   
     43. B(H  35,C  33)                  1.0918         0.357782   
     44. B(H  36,C  33)                  1.0880         0.362847   
     45. B(H  37,C   3)                  1.0796         0.374108   
     46. B(H  38,C   4)                  1.0801         0.373468   
     47. A(C   2,Ir  0,O  31)          104.9578         0.262013   
     48. A(C   1,Ir  0,O  31)          142.7247         0.257978   
     49. A(C   5,Ir  0,N   6)          150.8693         0.248631   
     50. A(C   1,Ir  0,C   3)           64.3650         0.246312   
     51. A(C   1,Ir  0,C   5)           64.4333         0.245757   
     52. A(C   3,Ir  0,O  31)          116.6013         0.257757   
     53. A(C   3,Ir  0,N   6)          158.7156         0.249196   
     54. A(C   2,Ir  0,C   5)           38.8450         0.249501   
     55. A(C   3,Ir  0,C   4)           38.9778         0.246036   
     56. A(C   2,Ir  0,C   4)           64.9557         0.249996   
     57. A(C   5,Ir  0,O  31)           93.4145         0.257162   
     58. A(C   4,Ir  0,N   6)          119.9966         0.249124   
     59. A(C   1,Ir  0,C   2)           39.1252         0.250279   
     60. A(C   4,Ir  0,C   5)           64.3121         0.245482   
     61. A(C   4,Ir  0,O  31)          155.3305         0.257681   
     62. A(C   1,Ir  0,N   6)          100.5439         0.249405   
     63. A(C   2,Ir  0,C   3)           64.8489         0.250069   
     64. A(C   2,Ir  0,N   6)          113.7722         0.253236   
     65. A(C   1,Ir  0,C   4)           37.9412         0.246241   
     66. A(N   6,Ir  0,O  31)           84.5794         0.261075   
     67. A(C   3,Ir  0,C   5)           37.9160         0.245553   
     68. A(Ir  0,C   1,H  27)          123.9030         0.268710   
     69. A(C   2,C   1,C   4)          108.4299         0.416377   
     70. A(Ir  0,C   1,C   4)           71.1112         0.319154   
     71. A(C   4,C   1,H  27)          125.6674         0.351581   
     72. A(Ir  0,C   1,C   2)           69.3741         0.313057   
     73. A(C   2,C   1,H  27)          125.8776         0.344625   
     74. A(C   5,C   2,H  28)          125.9562         0.346459   
     75. A(Ir  0,C   2,C   5)           71.8688         0.319909   
     76. A(C   1,C   2,C   5)          107.1206         0.409790   
     77. A(Ir  0,C   2,C   1)           71.5007         0.318408   
     78. A(Ir  0,C   2,H  28)          126.4858         0.273118   
     79. A(C   1,C   2,H  28)          126.6575         0.344785   
     80. A(Ir  0,C   3,H  37)          124.8220         0.268619   
     81. A(C   4,C   3,C   5)          107.9295         0.414720   
     82. A(C   4,C   3,H  37)          126.0954         0.343714   
     83. A(Ir  0,C   3,C   4)           70.5303         0.311790   
     84. A(Ir  0,C   3,C   5)           71.2057         0.318691   
     85. A(C   5,C   3,H  37)          125.9633         0.351604   
     86. A(Ir  0,C   4,C   1)           70.9476         0.318750   
     87. A(Ir  0,C   4,H  38)          124.8164         0.268468   
     88. A(C   1,C   4,H  38)          126.1816         0.351688   
     89. A(C   3,C   4,H  38)          125.9526         0.343615   
     90. A(Ir  0,C   4,C   3)           70.4918         0.311689   
     91. A(C   1,C   4,C   3)          107.8595         0.414951   
     92. A(Ir  0,C   5,H  29)          122.0011         0.267834   
     93. A(C   3,C   5,H  29)          125.7909         0.351382   
     94. A(C   2,C   5,H  29)          125.4662         0.346285   
     95. A(Ir  0,C   5,C   3)           70.8783         0.317881   
     96. A(C   2,C   5,C   3)          108.5717         0.418286   
     97. A(Ir  0,C   5,C   2)           69.2861         0.313435   
     98. A(Ir  0,N   6,C  17)          113.6649         0.341508   
     99. A(C   7,N   6,C  17)          122.6664         0.421430   
    100. A(Ir  0,N   6,C   7)          123.6583         0.304046   
    101. A(N   6,C   7,C   8)          113.5633         0.369902   
    102. A(N   6,C   7,C  12)          109.4987         0.369047   
    103. A(C   8,C   7,C  12)          111.7102         0.366862   
    104. A(N   6,C   7,H  13)          104.6932         0.327843   
    105. A(C   8,C   7,H  13)          108.4415         0.325979   
    106. A(C  12,C   7,H  13)          108.5902         0.325258   
    107. A(C   7,C   8,H  11)          112.0036         0.326114   
    108. A(H   9,C   8,H  11)          107.3263         0.290925   
    109. A(H  10,C   8,H  11)          108.8989         0.290600   
    110. A(C   7,C   8,H   9)          108.8723         0.326347   
    111. A(C   7,C   8,H  10)          112.9554         0.325965   
    112. A(H   9,C   8,H  10)          106.4870         0.290797   
    113. A(C   7,C  12,H  14)          109.6173         0.325659   
    114. A(C   7,C  12,H  15)          111.3037         0.325310   
    115. A(H  14,C  12,H  15)          107.7992         0.290883   
    116. A(C   7,C  12,H  16)          112.0353         0.325661   
    117. A(H  14,C  12,H  16)          107.3399         0.291183   
    118. A(H  15,C  12,H  16)          108.5769         0.290884   
    119. A(N   6,C  17,C  18)          115.0416         0.440829   
    120. A(N   6,C  17,H  19)          122.7608         0.370641   
    121. A(C  18,C  17,H  19)          122.1507         0.342854   
    122. A(C  17,C  18,C  20)          119.8022         0.419511   
    123. A(C  17,C  18,S  22)          126.8225         0.432059   
    124. A(C  20,C  18,S  22)          113.1836         0.446548   
    125. A(C  18,C  20,C  21)          110.2028         0.424133   
    126. A(C  18,C  20,H  24)          118.3041         0.330873   
    127. A(C  21,C  20,H  24)          121.3389         0.324317   
    128. A(C  20,C  21,H  25)          123.7791         0.347609   
    129. A(C  23,C  21,H  25)          123.0510         0.362360   
    130. A(C  20,C  21,C  23)          113.0788         0.433647   
    131. A(C  18,S  22,C  23)           91.1617         0.454694   
    132. A(C  21,C  23,H  26)          128.0088         0.362541   
    133. A(S  22,C  23,H  26)          119.5960         0.361050   
    134. A(C  21,C  23,S  22)          112.3715         0.451320   
    135. A(Ir  0,O  31,C  32)          126.5347         0.352757   
    136. A(O  30,C  32,O  31)          124.4391         0.491471   
    137. A(O  30,C  32,C  33)          120.7310         0.437048   
    138. A(O  31,C  32,C  33)          114.8126         0.420881   
    139. A(C  32,C  33,H  34)          110.7930         0.330378   
    140. A(C  32,C  33,H  35)          108.9659         0.329332   
    141. A(H  34,C  33,H  35)          107.8304         0.291126   
    142. A(C  32,C  33,H  36)          111.7331         0.330098   
    143. A(H  34,C  33,H  36)          110.1035         0.291770   
    144. A(H  35,C  33,H  36)          107.2653         0.290892   
    145. D(C   2,C   1,Ir  0,C   4)    119.0655         0.001698   
    146. D(C   2,C   1,Ir  0,C   5)     38.7308         0.001698   
    147. D(H  27,C   1,Ir  0,O  31)    100.1328         0.001698   
    148. D(C   4,C   1,Ir  0,C   2)   -119.0655         0.001698   
    149. D(C   2,C   1,Ir  0,O  31)    -19.9674         0.001698   
    150. D(H  27,C   1,Ir  0,C   3)   -158.9391         0.001698   
    151. D(C   4,C   1,Ir  0,O  31)   -139.0329         0.001698   
    152. D(H  27,C   1,Ir  0,C   2)    120.1001         0.001698   
    153. D(C   4,C   1,Ir  0,C   3)    -38.1047         0.001698   
    154. D(H  27,C   1,Ir  0,N   6)      5.2052         0.001698   
    155. D(C   2,C   1,Ir  0,C   3)     80.9608         0.001698   
    156. D(C   4,C   1,Ir  0,N   6)    126.0396         0.001698   
    157. D(H  27,C   1,Ir  0,C   4)   -120.8344         0.001698   
    158. D(H  27,C   1,Ir  0,C   5)    158.8309         0.001698   
    159. D(C   4,C   1,Ir  0,C   5)    -80.3347         0.001698   
    160. D(C   2,C   1,Ir  0,N   6)   -114.8949         0.001698   
    161. D(Ir  0,C   2,C   1,H  27)   -117.6007         0.021474   
    162. D(C   1,C   2,Ir  0,C   5)   -115.8619         0.001743   
    163. D(C   1,C   2,Ir  0,C   4)    -36.3838         0.001743   
    164. D(H  28,C   2,C   1,H  27)      4.5810         0.021474   
    165. D(H  28,C   2,C   1,Ir  0)    122.1818         0.021474   
    166. D(C   5,C   2,C   1,H  27)    178.9140         0.021474   
    167. D(C   1,C   2,Ir  0,C   3)    -79.6185         0.001743   
    168. D(H  28,C   2,Ir  0,C   4)   -158.7673         0.001743   
    169. D(H  28,C   2,Ir  0,C   5)    121.7546         0.001743   
    170. D(C   5,C   2,Ir  0,C   3)     36.2433         0.001743   
    171. D(C   5,C   2,Ir  0,C   1)    115.8619         0.001743   
    172. D(H  28,C   2,C   1,C   4)   -177.1609         0.021474   
    173. D(C   5,C   2,Ir  0,C   4)     79.4780         0.001743   
    174. D(C   5,C   2,C   1,Ir  0)    -63.4853         0.021474   
    175. D(H  28,C   2,Ir  0,N   6)    -45.3652         0.001743   
    176. D(H  28,C   2,Ir  0,O  31)     45.2554         0.001743   
    177. D(Ir  0,C   2,C   1,C   4)     60.6573         0.021474   
    178. D(C   5,C   2,C   1,C   4)     -2.8280         0.021474   
    179. D(C   1,C   2,Ir  0,N   6)     77.0183         0.001743   
    180. D(C   5,C   2,Ir  0,O  31)    -76.4992         0.001743   
    181. D(H  28,C   2,Ir  0,C   1)   -122.3835         0.001743   
    182. D(C   1,C   2,Ir  0,O  31)    167.6389         0.001743   
    183. D(H  28,C   2,Ir  0,C   3)    157.9980         0.001743   
    184. D(C   5,C   2,Ir  0,N   6)   -167.1199         0.001743   
    185. D(C   4,C   3,Ir  0,C   5)    117.7242         0.001695   
    186. D(C   4,C   3,Ir  0,C   1)     37.0995         0.001695   
    187. D(C   4,C   3,Ir  0,O  31)    175.4124         0.001695   
    188. D(C   4,C   3,Ir  0,C   2)     80.6073         0.001695   
    189. D(C   5,C   3,Ir  0,O  31)     57.6882         0.001695   
    190. D(C   5,C   3,Ir  0,C   2)    -37.1170         0.001695   
    191. D(C   4,C   3,Ir  0,N   6)    -10.6283         0.001695   
    192. D(H  37,C   3,Ir  0,C   4)    121.0147         0.001695   
    193. D(H  37,C   3,Ir  0,C   1)    158.1142         0.001695   
    194. D(C   5,C   3,Ir  0,C   1)    -80.6247         0.001695   
    195. D(C   5,C   3,Ir  0,C   4)   -117.7242         0.001695   
    196. D(C   5,C   3,Ir  0,N   6)   -128.3525         0.001695   
    197. D(H  37,C   3,Ir  0,C   5)   -121.2611         0.001695   
    198. D(H  37,C   3,Ir  0,N   6)    110.3864         0.001695   
    199. D(H  37,C   3,Ir  0,O  31)    -63.5730         0.001695   
    200. D(H  37,C   3,Ir  0,C   2)   -158.3781         0.001695   
    201. D(C   1,C   4,Ir  0,C   3)    117.8117         0.001695   
    202. D(H  38,C   4,C   3,H  37)     -0.0320         0.020636   
    203. D(C   1,C   4,Ir  0,C   5)     80.6825         0.001695   
    204. D(C   1,C   4,Ir  0,N   6)    -66.6219         0.001695   
    205. D(C   1,C   4,Ir  0,O  31)    107.9457         0.001695   
    206. D(C   1,C   4,Ir  0,C   2)     37.5019         0.001695   
    207. D(C   3,C   4,Ir  0,C   1)   -117.8117         0.001695   
    208. D(H  38,C   4,C   3,C   5)   -178.8375         0.020636   
    209. D(C   3,C   4,Ir  0,C   5)    -37.1293         0.001695   
    210. D(C   3,C   4,Ir  0,N   6)    175.5664         0.001695   
    211. D(C   3,C   4,Ir  0,O  31)     -9.8660         0.001695   
    212. D(Ir  0,C   4,C   1,C   2)    -59.5716         0.027525   
    213. D(H  38,C   4,Ir  0,C   2)    158.8726         0.001695   
    214. D(H  38,C   4,Ir  0,C   3)   -120.8176         0.001695   
    215. D(H  38,C   4,C   1,C   2)   -179.2921         0.027525   
    216. D(H  38,C   4,Ir  0,N   6)     54.7487         0.001695   
    217. D(H  38,C   4,Ir  0,O  31)   -130.6837         0.001695   
    218. D(Ir  0,C   4,C   1,H  27)    118.6911         0.027525   
    219. D(C   3,C   4,C   1,Ir  0)     61.1540         0.027525   
    220. D(C   3,C   4,C   1,H  27)    179.8451         0.027525   
    221. D(H  38,C   4,C   1,Ir  0)   -119.7205         0.027525   
    222. D(H  38,C   4,Ir  0,C   5)   -157.9469         0.001695   
    223. D(H  38,C   4,C   1,H  27)     -1.0295         0.027525   
    224. D(Ir  0,C   4,C   3,C   5)     61.7357         0.020636   
    225. D(Ir  0,C   4,C   3,H  37)   -119.4587         0.020636   
    226. D(C   3,C   4,C   1,C   2)      1.5825         0.027525   
    227. D(C   1,C   4,C   3,C   5)      0.2905         0.020636   
    228. D(C   1,C   4,C   3,H  37)    179.0960         0.020636   
    229. D(H  38,C   4,C   3,Ir  0)    119.4268         0.020636   
    230. D(H  38,C   4,Ir  0,C   1)    121.3706         0.001695   
    231. D(C   1,C   4,C   3,Ir  0)    -61.4453         0.020636   
    232. D(C   3,C   4,Ir  0,C   2)    -80.3098         0.001695   
    233. D(C   2,C   5,Ir  0,C   1)    -39.0098         0.001689   
    234. D(H  29,C   5,C   3,C   4)   -177.5029         0.027344   
    235. D(C   2,C   5,Ir  0,C   4)    -81.2777         0.001689   
    236. D(C   2,C   5,Ir  0,N   6)     24.7752         0.001689   
    237. D(C   2,C   5,Ir  0,O  31)    109.7646         0.001689   
    238. D(C   3,C   5,Ir  0,C   1)     80.4287         0.001689   
    239. D(C   3,C   5,Ir  0,C   2)    119.4386         0.001689   
    240. D(C   3,C   5,Ir  0,C   4)     38.1608         0.001689   
    241. D(H  29,C   5,C   2,C   1)    178.4711         0.022796   
    242. D(C   3,C   5,Ir  0,O  31)   -130.7968         0.001689   
    243. D(H  29,C   5,Ir  0,C   1)   -158.6912         0.001689   
    244. D(C   3,C   5,C   2,Ir  0)    -60.2310         0.022796   
    245. D(H  29,C   5,Ir  0,C   3)    120.8801         0.001689   
    246. D(H  29,C   5,Ir  0,C   4)    159.0409         0.001689   
    247. D(H  29,C   5,Ir  0,N   6)    -94.9062         0.001689   
    248. D(H  29,C   5,Ir  0,O  31)     -9.9168         0.001689   
    249. D(Ir  0,C   5,C   2,C   1)     63.2423         0.022796   
    250. D(H  29,C   5,Ir  0,C   2)   -119.6814         0.001689   
    251. D(Ir  0,C   5,C   2,H  28)   -122.3738         0.022796   
    252. D(C   3,C   5,C   2,C   1)      3.0113         0.022796   
    253. D(C   3,C   5,C   2,H  28)    177.3952         0.022796   
    254. D(C   3,C   5,Ir  0,N   6)    144.2137         0.001689   
    255. D(H  29,C   5,C   2,Ir  0)    115.2288         0.022796   
    256. D(H  29,C   5,C   2,H  28)     -7.1450         0.022796   
    257. D(Ir  0,C   5,C   3,C   4)    -61.3039         0.027344   
    258. D(Ir  0,C   5,C   3,H  37)    119.8886         0.027344   
    259. D(C   2,C   5,C   3,Ir  0)     59.2422         0.027344   
    260. D(C   2,C   5,C   3,C   4)     -2.0617         0.027344   
    261. D(C   2,C   5,C   3,H  37)    179.1308         0.027344   
    262. D(C   2,C   5,Ir  0,C   3)   -119.4386         0.001689   
    263. D(H  29,C   5,C   3,Ir  0)   -116.1991         0.027344   
    264. D(H  29,C   5,C   3,H  37)      3.6895         0.027344   
    265. D(C  17,N   6,Ir  0,C   1)    -95.9649         0.001766   
    266. D(C   7,N   6,Ir  0,C   2)     44.1763         0.001766   
    267. D(C   7,N   6,Ir  0,C   3)    125.6244         0.001766   
    268. D(C   7,N   6,Ir  0,C   4)    117.9261         0.001766   
    269. D(C   7,N   6,Ir  0,C   5)     27.4854         0.001766   
    270. D(C   7,N   6,Ir  0,C   1)     82.8916         0.001766   
    271. D(C   7,N   6,Ir  0,O  31)    -59.7992         0.001766   
    272. D(C  17,N   6,Ir  0,C   2)   -134.6801         0.001766   
    273. D(C  17,N   6,Ir  0,C   3)    -53.2320         0.001766   
    274. D(C  17,N   6,Ir  0,C   4)    -60.9304         0.001766   
    275. D(C  17,N   6,Ir  0,C   5)   -151.3710         0.001766   
    276. D(C  17,N   6,Ir  0,O  31)    121.3444         0.001766   
    277. D(C   8,C   7,N   6,Ir  0)    155.4039         0.014711   
    278. D(C   8,C   7,N   6,C  17)    -25.8404         0.014711   
    279. D(C  12,C   7,N   6,Ir  0)    -78.9665         0.014711   
    280. D(C  12,C   7,N   6,C  17)     99.7893         0.014711   
    281. D(H  13,C   7,N   6,Ir  0)     37.2955         0.014711   
    282. D(H  13,C   7,N   6,C  17)   -143.9487         0.014711   
    283. D(H   9,C   8,C   7,N   6)   -170.2041         0.011904   
    284. D(H   9,C   8,C   7,C  12)     65.3522         0.011904   
    285. D(H   9,C   8,C   7,H  13)    -54.2833         0.011904   
    286. D(H  10,C   8,C   7,N   6)     71.7290         0.011904   
    287. D(H  10,C   8,C   7,C  12)    -52.7147         0.011904   
    288. D(H  10,C   8,C   7,H  13)   -172.3503         0.011904   
    289. D(H  11,C   8,C   7,N   6)    -51.6756         0.011904   
    290. D(H  11,C   8,C   7,C  12)   -176.1194         0.011904   
    291. D(H  11,C   8,C   7,H  13)     64.2451         0.011904   
    292. D(H  14,C  12,C   7,N   6)    176.4081         0.011603   
    293. D(H  14,C  12,C   7,C   8)    -56.9047         0.011603   
    294. D(H  14,C  12,C   7,H  13)     62.6431         0.011603   
    295. D(H  15,C  12,C   7,N   6)    -64.4278         0.011603   
    296. D(H  15,C  12,C   7,C   8)     62.2593         0.011603   
    297. D(H  15,C  12,C   7,H  13)   -178.1928         0.011603   
    298. D(H  16,C  12,C   7,N   6)     57.3564         0.011603   
    299. D(H  16,C  12,C   7,C   8)   -175.9564         0.011603   
    300. D(H  16,C  12,C   7,H  13)    -56.4086         0.011603   
    301. D(C  18,C  17,N   6,Ir  0)     -7.7560         0.061618   
    302. D(C  18,C  17,N   6,C   7)    173.3747         0.061618   
    303. D(H  19,C  17,N   6,Ir  0)    174.6895         0.061618   
    304. D(H  19,C  17,N   6,C   7)     -4.1798         0.061618   
    305. D(C  20,C  18,C  17,N   6)    -30.2366         0.018043   
    306. D(C  20,C  18,C  17,H  19)    147.3344         0.018043   
    307. D(S  22,C  18,C  17,N   6)    144.3709         0.018043   
    308. D(S  22,C  18,C  17,H  19)    -38.0580         0.018043   
    309. D(C  21,C  20,C  18,C  17)    174.8789         0.028670   
    310. D(C  21,C  20,C  18,S  22)     -0.4269         0.028670   
    311. D(H  24,C  20,C  18,C  17)    -39.2657         0.028670   
    312. D(H  24,C  20,C  18,S  22)    145.4285         0.028670   
    313. D(C  23,C  21,C  20,C  18)      0.2737         0.022204   
    314. D(C  23,C  21,C  20,H  24)   -144.3747         0.022204   
    315. D(H  25,C  21,C  20,C  18)    176.8917         0.022204   
    316. D(H  25,C  21,C  20,H  24)     32.2433         0.022204   
    317. D(C  23,S  22,C  18,C  17)   -174.5454         0.005849   
    318. D(C  23,S  22,C  18,C  20)      0.3651         0.005849   
    319. D(S  22,C  23,C  21,C  20)     -0.0065         0.034399   
    320. D(S  22,C  23,C  21,H  25)   -176.6528         0.034399   
    321. D(H  26,C  23,C  21,C  20)    178.1913         0.034399   
    322. D(H  26,C  23,C  21,H  25)      1.5450         0.034399   
    323. D(C  21,C  23,S  22,C  18)     -0.2019         0.005292   
    324. D(H  26,C  23,S  22,C  18)   -178.5689         0.005292   
    325. D(C  32,O  31,Ir  0,C   1)   -176.5904         0.001898   
    326. D(C  32,O  31,Ir  0,C   2)    170.5219         0.001898   
    327. D(C  32,O  31,Ir  0,C   3)    101.5117         0.001898   
    328. D(C  32,O  31,Ir  0,C   4)    108.4349         0.001898   
    329. D(C  32,O  31,Ir  0,C   5)    132.8623         0.001898   
    330. D(C  32,O  31,Ir  0,N   6)    -76.2893         0.001898   
    331. D(O  30,C  32,O  31,Ir  0)      3.9378         0.051182   
    332. D(C  33,C  32,O  31,Ir  0)   -174.5498         0.051182   
    333. D(H  34,C  33,C  32,O  30)     23.0767         0.012608   
    334. D(H  34,C  33,C  32,O  31)   -158.3744         0.012608   
    335. D(H  35,C  33,C  32,O  30)    -95.4019         0.012608   
    336. D(H  35,C  33,C  32,O  31)     83.1470         0.012608   
    337. D(H  36,C  33,C  32,O  30)    146.2492         0.012608   
    338. D(H  36,C  33,C  32,O  31)    -35.2019         0.012608   
    -----------------------------------------------------------------

Number of atoms                         .... 39
Number of degrees of freedom            .... 338

         *************************************************************
         *                GEOMETRY OPTIMIZATION CYCLE   1            *
         *************************************************************
---------------------------------
CARTESIAN COORDINATES (ANGSTROEM)
---------------------------------
  Ir     0.609130   -0.707649    0.423049
  C      0.065359   -2.800488    0.338552
  C      0.111548   -2.343110    1.703111
  C      2.217887   -2.109341    0.793090
  C      1.343454   -2.638482   -0.228603
  C      1.464800   -1.960843    1.974032
  N     -1.053461    0.160669   -0.528227
  C     -2.319686    0.462222    0.157396
  C     -3.121459    1.570544   -0.506519
  H     -3.945188    1.850496    0.148745
  H     -3.569240    1.263496   -1.452936
  H     -2.521045    2.465188   -0.673699
  C     -3.137073   -0.816136    0.301727
  H     -2.022601    0.799220    1.151635
  H     -4.045521   -0.607610    0.864868
  H     -3.431355   -1.210378   -0.671790
  H     -2.592462   -1.590774    0.839504
  C     -0.873105    0.384458   -1.771876
  C      0.472734    0.167978   -2.242090
  H     -1.661006    0.750534   -2.423394
  C      1.548273    0.368741   -1.379559
  C      2.766714   -0.015204   -2.013900
  S      0.935830   -0.448681   -3.756954
  C      2.586937   -0.469112   -3.282973
  H      1.505013    1.294224   -0.626734
  H      3.740909    0.094860   -1.559943
  H      3.339416   -0.793890   -3.985701
  H     -0.808541   -3.175946   -0.174272
  H     -0.694349   -2.374368    2.421165
  H      1.825996   -1.551533    2.906656
  O      1.355792    2.459658    0.210723
  O      0.539396    0.941245    1.623771
  C      0.933661    2.129194    1.318887
  C      0.879329    3.120707    2.447011
  H      0.849681    4.137683    2.065614
  H      1.780982    3.017430    3.053921
  H      0.028050    2.941370    3.100318
  H      3.268092   -1.886697    0.678614
  H      1.626480   -2.880484   -1.242478

----------------------------
CARTESIAN COORDINATES (A.U.)
----------------------------
  NO LB      ZA    FRAG     MASS         X           Y           Z
   0 Ir   17.0000*   0   192.220    1.151089   -1.337262    0.799447
   1 C     6.0000    0    12.011    0.123511   -5.292155    0.639771
   2 C     6.0000    0    12.011    0.210796   -4.427837    3.218412
   3 C     6.0000    0    12.011    4.191198   -3.986077    1.498723
   4 C     6.0000    0    12.011    2.538760   -4.986009   -0.431997
   5 C     6.0000    0    12.011    2.768070   -3.705457    3.730380
   6 N     7.0000    0    14.007   -1.990752    0.303620   -0.998205
   7 C     6.0000    0    12.011   -4.383571    0.873472    0.297434
   8 C     6.0000    0    12.011   -5.898702    2.967899   -0.957182
   9 H     1.0000    0     1.008   -7.455325    3.496930    0.281087
  10 H     1.0000    0     1.008   -6.744886    2.387662   -2.745652
  11 H     1.0000    0     1.008   -4.764085    4.658531   -1.273107
  12 C     6.0000    0    12.011   -5.928209   -1.542274    0.570181
  13 H     1.0000    0     1.008   -3.822162    1.510307    2.176274
  14 H     1.0000    0     1.008   -7.644928   -1.148217    1.634364
  15 H     1.0000    0     1.008   -6.484321   -2.287283   -1.269499
  16 H     1.0000    0     1.008   -4.899043   -3.006127    1.586433
  17 C     6.0000    0    12.011   -1.649930    0.726520   -3.348361
  18 C     6.0000    0    12.011    0.893338    0.317432   -4.236936
  19 H     1.0000    0     1.008   -3.138846    1.418303   -4.579551
  20 C     6.0000    0    12.011    2.925811    0.696819   -2.606989
  21 C     6.0000    0    12.011    5.228332   -0.028731   -3.805719
  22 S    16.0000    0    32.060    1.768463   -0.847884   -7.099615
  23 C     6.0000    0    12.011    4.888602   -0.886493   -6.203920
  24 H     1.0000    0     1.008    2.844063    2.445730   -1.184355
  25 H     1.0000    0     1.008    7.069294    0.179259   -2.947865
  26 H     1.0000    0     1.008    6.310581   -1.500234   -7.531883
  27 H     1.0000    0     1.008   -1.527921   -6.001669   -0.329325
  28 H     1.0000    0     1.008   -1.312130   -4.486906    4.575339
  29 H     1.0000    0     1.008    3.450632   -2.931972    5.492784
  30 O     8.0000    0    15.999    2.562076    4.648080    0.398209
  31 O     8.0000    0    15.999    1.019311    1.778695    3.068482
  32 C     6.0000    0    12.011    1.764364    4.023594    2.492336
  33 C     6.0000    0    12.011    1.661690    5.897282    4.624181
  34 H     1.0000    0     1.008    1.605664    7.819087    3.903444
  35 H     1.0000    0     1.008    3.365569    5.702117    5.771075
  36 H     1.0000    0     1.008    0.053007    5.558383    5.858751
  37 H     1.0000    0     1.008    6.175800   -3.565341    1.282395
  38 H     1.0000    0     1.008    3.073602   -5.443326   -2.347944
* core charge reduced due to ECP

--------------------------------
INTERNAL COORDINATES (ANGSTROEM)
--------------------------------
 Ir     0   0   0     0.000000000000     0.00000000     0.00000000
 C      1   0   0     2.163978933793     0.00000000     0.00000000
 C      2   1   0     1.439886099551    69.37325753     0.00000000
 C      1   2   3     2.165548673033    64.36438875    80.96087241
 C      2   1   3     1.407596438363    71.11121782   240.93442253
 C      4   1   2     1.408447709765    71.20553629   279.37497934
 N      1   2   3     2.103495522012   100.54415363   245.10478357
 C      7   1   2     1.471163744626   123.43061792    82.87689218
 C      8   7   1     1.520523004067   113.56333050   155.41403569
 H      9   8   7     1.089157507719   108.87235159   189.79596758
 H      9   8   7     1.091093578089   112.95521024    71.72903868
 H      9   8   7     1.090334627142   112.00377711   308.32428120
 C      8   7   1     1.524186920096   109.49854513   281.04378901
 H      8   7   1     1.091023027238   104.69329193    37.30590240
 H     13   8   7     1.088981328476   109.61717350   176.40815507
 H     13   8   7     1.090759604308   111.30383426   295.57220396
 H     13   8   7     1.088973534872   112.03549220    57.35635657
 C      7   1   2     1.278025396784   114.11711669   264.04597391
 C     18   7   1     1.442890141458   115.56082361   352.15814012
 H     18   7   1     1.085926354807   122.50579773   174.59672548
 C     19  18   7     1.393136523880   120.01052862   329.64466888
 C     21  19  18     1.426188026382   110.24159470   174.90287374
 S     19  18   7     1.699922140517   126.67617345   144.32060067
 C     22  21  19     1.359469935717   113.07634301     0.28887807
 H     21  19  18     1.193823492715   118.29218644   320.76601188
 H     22  21  19     1.080310007275   123.77941456   176.90164514
 H     24  22  21     1.079515481020   128.01628967   178.18501826
 H      2   1   3     1.080567799343   123.90365230   120.10022877
 H      3   2   1     1.079813895401   126.65721650   122.18213506
 H      6   4   1     1.080627159397   125.79083781   243.80204991
 O     25  21  19     1.457142852910   174.90298991     2.14724074
 O      1   2   3     2.040879413252   142.72649580   340.03213602
 C     31  25  21     1.231019581504   111.62324135    94.08245643
 C     33  31  25     1.502889214642   120.73443218   171.17327802
 H     34  33  31     1.086535270974   110.79406292    23.07679194
 H     34  33  31     1.091758186499   108.96621320   264.59841547
 H     34  33  31     1.087931303538   111.73229732   146.24968289
 H      4   1   2     1.079611873284   124.82116246   158.11434661
 H      5   2   1     1.080077451392   126.18091868   240.27859408

---------------------------
INTERNAL COORDINATES (A.U.)
---------------------------
 Ir     0   0   0     0.000000000000     0.00000000     0.00000000
 C      1   0   0     4.089327544444     0.00000000     0.00000000
 C      2   1   0     2.720990392192    69.37325753     0.00000000
 C      1   2   3     4.092293921709    64.36438875    80.96087241
 C      2   1   3     2.659971775589    71.11121782   240.93442253
 C      4   1   2     2.661580445404    71.20553629   279.37497934
 N      1   2   3     3.975030460533   100.54415363   245.10478357
 C      7   1   2     2.780096575497   123.43061792    82.87689218
 C      8   7   1     2.873372058014   113.56333050   155.41403569
 H      9   8   7     2.058209406294   108.87235159   189.79596758
 H      9   8   7     2.061868049068   112.95521024    71.72903868
 H      9   8   7     2.060433839630   112.00377711   308.32428120
 C      8   7   1     2.880295855886   109.49854513   281.04378901
 H      8   7   1     2.061734727282   104.69329193    37.30590240
 H     13   8   7     2.057876475773   109.61717350   176.40815507
 H     13   8   7     2.061236930087   111.30383426   295.57220396
 H     13   8   7     2.057861747997   112.03549220    57.35635657
 C      7   1   2     2.415117992117   114.11711669   264.04597391
 C     18   7   1     2.726667208690   115.56082361   352.15814012
 H     18   7   1     2.052103412193   122.50579773   174.59672548
 C     19  18   7     2.632646497297   120.01052862   329.64466888
 C     21  19  18     2.695104785339   110.24159470   174.90287374
 S     19  18   7     3.212387294566   126.67617345   144.32060067
 C     22  21  19     2.569025865804   113.07634301     0.28887807
 H     21  19  18     2.255999453473   118.29218644   320.76601188
 H     22  21  19     2.041490053485   123.77941456   176.90164514
 H     24  22  21     2.039988616455   128.01628967   178.18501826
 H      2   1   3     2.041977209892   123.90365230   120.10022877
 H      3   2   1     2.040552537911   126.65721650   122.18213506
 H      6   4   1     2.042089384138   125.79083781   243.80204991
 O     25  21  19     2.753600930000   174.90298991     2.14724074
 O      1   2   3     3.856703163404   142.72649580   340.03213602
 C     31  25  21     2.326289874537   111.62324135    94.08245643
 C     33  31  25     2.840049025298   120.73443218   171.17327802
 H     34  33  31     2.053254096987   110.79406292    23.07679194
 H     34  33  31     2.063123976950   108.96621320   264.59841547
 H     34  33  31     2.055892216207   111.73229732   146.24968289
 H      4   1   2     2.040170771437   124.82116246   158.11434661
 H      5   2   1     2.041050586554   126.18091868   240.27859408

---------------------
BASIS SET INFORMATION
---------------------
There are 6 groups of distinct atoms

 Group   1 Type Ir  : 7s6p5d1f contracted to 6s3p2d1f pattern {211111/411/41/1}
 Group   2 Type C   : 8s4p1d contracted to 4s2p1d pattern {5111/31/1}
 Group   3 Type N   : 8s4p1d contracted to 4s2p1d pattern {5111/31/1}
 Group   4 Type H   : 4s contracted to 2s pattern {31}
 Group   5 Type S   : 10s7p1d contracted to 4s3p1d pattern {5311/511/1}
 Group   6 Type O   : 8s4p1d contracted to 4s2p1d pattern {5111/31/1}

Atom   0Ir   basis set group =>   1
Atom   1C    basis set group =>   2
Atom   2C    basis set group =>   2
Atom   3C    basis set group =>   2
Atom   4C    basis set group =>   2
Atom   5C    basis set group =>   2
Atom   6N    basis set group =>   3
Atom   7C    basis set group =>   2
Atom   8C    basis set group =>   2
Atom   9H    basis set group =>   4
Atom  10H    basis set group =>   4
Atom  11H    basis set group =>   4
Atom  12C    basis set group =>   2
Atom  13H    basis set group =>   4
Atom  14H    basis set group =>   4
Atom  15H    basis set group =>   4
Atom  16H    basis set group =>   4
Atom  17C    basis set group =>   2
Atom  18C    basis set group =>   2
Atom  19H    basis set group =>   4
Atom  20C    basis set group =>   2
Atom  21C    basis set group =>   2
Atom  22S    basis set group =>   5
Atom  23C    basis set group =>   2
Atom  24H    basis set group =>   4
Atom  25H    basis set group =>   4
Atom  26H    basis set group =>   4
Atom  27H    basis set group =>   4
Atom  28H    basis set group =>   4
Atom  29H    basis set group =>   4
Atom  30O    basis set group =>   6
Atom  31O    basis set group =>   6
Atom  32C    basis set group =>   2
Atom  33C    basis set group =>   2
Atom  34H    basis set group =>   4
Atom  35H    basis set group =>   4
Atom  36H    basis set group =>   4
Atom  37H    basis set group =>   4
Atom  38H    basis set group =>   4
---------------------------------
AUXILIARY/J BASIS SET INFORMATION
---------------------------------
There are 6 groups of distinct atoms

 Group   1 Type Ir  : 11s5p5d3f3g contracted to 8s5p5d2f3g pattern {41111111/11111/11111/21/111}
 Group   2 Type C   : 12s5p4d2f1g contracted to 6s4p3d1f1g pattern {711111/2111/211/2/1}
 Group   3 Type N   : 12s5p4d2f1g contracted to 6s4p3d1f1g pattern {711111/2111/211/2/1}
 Group   4 Type H   : 5s2p1d contracted to 3s1p1d pattern {311/2/1}
 Group   5 Type S   : 14s5p5d2f1g contracted to 8s4p3d1f1g pattern {71111111/2111/311/2/1}
 Group   6 Type O   : 12s5p4d2f1g contracted to 6s4p3d1f1g pattern {711111/2111/211/2/1}

Atom   0Ir   basis set group =>   1
Atom   1C    basis set group =>   2
Atom   2C    basis set group =>   2
Atom   3C    basis set group =>   2
Atom   4C    basis set group =>   2
Atom   5C    basis set group =>   2
Atom   6N    basis set group =>   3
Atom   7C    basis set group =>   2
Atom   8C    basis set group =>   2
Atom   9H    basis set group =>   4
Atom  10H    basis set group =>   4
Atom  11H    basis set group =>   4
Atom  12C    basis set group =>   2
Atom  13H    basis set group =>   4
Atom  14H    basis set group =>   4
Atom  15H    basis set group =>   4
Atom  16H    basis set group =>   4
Atom  17C    basis set group =>   2
Atom  18C    basis set group =>   2
Atom  19H    basis set group =>   4
Atom  20C    basis set group =>   2
Atom  21C    basis set group =>   2
Atom  22S    basis set group =>   5
Atom  23C    basis set group =>   2
Atom  24H    basis set group =>   4
Atom  25H    basis set group =>   4
Atom  26H    basis set group =>   4
Atom  27H    basis set group =>   4
Atom  28H    basis set group =>   4
Atom  29H    basis set group =>   4
Atom  30O    basis set group =>   6
Atom  31O    basis set group =>   6
Atom  32C    basis set group =>   2
Atom  33C    basis set group =>   2
Atom  34H    basis set group =>   4
Atom  35H    basis set group =>   4
Atom  36H    basis set group =>   4
Atom  37H    basis set group =>   4
Atom  38H    basis set group =>   4
-------------------------
ECP PARAMETER INFORMATION
-------------------------

 Group 1, Type Ir ECP Def2-ECP (replacing 60 core electrons, lmax=3)

Atom   0Ir   ECP group =>   1

------------------------------------------------------------------------------
                           ORCA GTO INTEGRAL CALCULATION
                           -- RI-GTO INTEGRALS CHOSEN --
------------------------------------------------------------------------------
------------------------------------------------------------------------------
                   ___                                                        
                  /   \      - P O W E R E D   B Y -                         
                 /     \                                                     
                 |  |  |   _    _      __       _____    __    __             
                 |  |  |  | |  | |    /  \     |  _  \  |  |  /  |          
                  \  \/   | |  | |   /    \    | | | |  |  | /  /          
                 / \  \   | |__| |  /  /\  \   | |_| |  |  |/  /          
                |  |  |   |  __  | /  /__\  \  |    /   |      \           
                |  |  |   | |  | | |   __   |  |    \   |  |\   \          
                \     /   | |  | | |  |  |  |  | |\  \  |  | \   \       
                 \___/    |_|  |_| |__|  |__|  |_| \__\ |__|  \__/        
                                                                              
                      - O R C A' S   B I G   F R I E N D -                    
                                      &                                       
                       - I N T E G R A L  F E E D E R -                       
                                                                              
 v1 FN, 2020, v2 2021                                                         
------------------------------------------------------------------------------


Reading SHARK input file reaction4-IEIP_ts_guess_scan_7-4_orca.SHARKINP.tmp ... ok
----------------------
SHARK INTEGRAL PACKAGE
----------------------

Number of atoms                             ...     39
Number of basis functions                   ...    358
Number of shells                            ...    184
Maximum angular momentum                    ...      3
Integral batch strategy                     ... SHARK/LIBINT Hybrid
RI-J (if used) integral strategy            ... SPLIT-RIJ (Revised 2003 algorithm where possible)
Printlevel                                  ...      1
Contraction scheme used                     ... SEGMENTED contraction
Coulomb Range Separation                    ... NOT USED
Exchange Range Separation                   ... NOT USED
Finite Nucleus Model                        ... NOT USED
Auxiliary Coulomb fitting basis             ... AVAILABLE
   # of basis functions in Aux-J            ...   1231
   # of shells in Aux-J                     ...    405
   Maximum angular momentum in Aux-J        ...      4
Auxiliary J/K fitting basis                 ... NOT available
Auxiliary Correlation fitting basis         ... NOT available
Auxiliary 'external' fitting basis          ... NOT available
Integral threshold                          ...     2.500000e-11
Primitive cut-off                           ...     2.500000e-12
Primitive pair pre-selection threshold      ...     2.500000e-12

Calculating pre-screening integrals         ... done (  0.1 sec) Dimension = 184
Organizing shell pair data                  ... done (  0.1 sec)
Shell pair information
Total number of shell pairs                 ...     17020
Shell pairs after pre-screening             ...     13002
Total number of primitive shell pairs       ...     60705
Primitive shell pairs kept                  ...     29278
          la=0 lb=0:   4983 shell pairs
          la=1 lb=0:   4257 shell pairs
          la=1 lb=1:    856 shell pairs
          la=2 lb=0:   1758 shell pairs
          la=2 lb=1:    791 shell pairs
          la=2 lb=2:    180 shell pairs
          la=3 lb=0:    113 shell pairs
          la=3 lb=1:     42 shell pairs
          la=3 lb=2:     21 shell pairs
          la=3 lb=3:      1 shell pairs

Calculating one electron integrals          ... done (  0.1 sec)
Calculating ECP integrals                   ... done (  0.8 sec)
Calculating RI/J V-Matrix + Cholesky decomp.... done (  0.1 sec)
Calculating Nuclear repulsion               ... done (  0.0 sec) ENN=   2042.681503211725 Eh

SHARK setup successfully completed in   1.4 seconds

Maximum memory used throughout the entire GTOINT-calculation: 91.4 MB
-------------------------------------------------------------------------------
                                 ORCA SCF
-------------------------------------------------------------------------------

------------
SCF SETTINGS
------------
Hamiltonian:
 Density Functional     Method          .... DFT(GTOs)
 Exchange Functional    Exchange        .... PBE
   PBE kappa parameter   XKappa         ....  1.024500
   PBE mue parameter    XMuePBE         ....  0.123457
 Correlation Functional Correlation     .... PBE
   PBE beta parameter  CBetaPBE         ....  0.030000
 LDA part of GGA corr.  LDAOpt          .... PW91-LDA
 Gradients option       PostSCFGGA      .... off
 Hybrid DFT is turned on
   Fraction HF Exchange ScalHFX         ....  0.420000
   Scaling of DF-GGA-X  ScalDFX         ....  0.580000
   Scaling of DF-GGA-C  ScalDFC         ....  1.000000
   Scaling of DF-LDA-C  ScalLDAC        ....  1.000000
   Perturbative correction              ....  0.000000
   Density functional embedding theory  .... OFF
 RI-approximation to the Coulomb term is turned on
   Number of AuxJ basis functions       .... 1231
   RIJ-ON(X) (HFX calculated with O(N)) .... on
   Number of AuxJ basis functions       .... 1231
   RIJ-COSX (HFX calculated with COS-X)).... on


General Settings:
 Integral files         IntName         .... reaction4-IEIP_ts_guess_scan_7-4_orca
 Hartree-Fock type      HFTyp           .... RHF
 Total Charge           Charge          ....    1
 Multiplicity           Mult            ....    1
 Number of Electrons    NEL             ....  164
 Basis Dimension        Dim             ....  358
 Nuclear Repulsion      ENuc            ....   2042.6815032117 Eh

Convergence Acceleration:
 DIIS                   CNVDIIS         .... on
   Start iteration      DIISMaxIt       ....    12
   Startup error        DIISStart       ....  0.200000
   # of expansion vecs  DIISMaxEq       ....     5
   Bias factor          DIISBfac        ....   1.050
   Max. coefficient     DIISMaxC        ....  10.000
 Trust-Rad. Augm. Hess. CNVTRAH         .... auto
   Auto Start mean grad. ratio tolernc. ....  1.125000
   Auto Start start iteration           ....    20
   Auto Start num. interpolation iter.  ....    10
   Max. Number of Micro iterations      ....    16
   Max. Number of Macro iterations      .... Maxiter - #DIIS iter
   Number of Davidson start vectors     ....     2
   Converg. threshold I  (grad. norm)   ....   1.000e-05
   Converg. threshold II (energy diff.) ....   1.000e-08
   Grad. Scal. Fac. for Micro threshold ....   0.100
   Minimum threshold for Micro iter.    ....   0.010
   NR start threshold (gradient norm)   ....   0.001
   Initial trust radius                 ....   0.400
   Minimum AH scaling param. (alpha)    ....   1.000
   Maximum AH scaling param. (alpha)    .... 1000.000
   Orbital update algorithm             .... Taylor
   White noise on init. David. guess    .... on
   Maximum white noise                  ....   0.010
   Quad. conv. algorithm                .... NR
   COSX micro iterations for RIJONX calc.... off
 SOSCF                  CNVSOSCF        .... off
 Level Shifting         CNVShift        .... on
   Level shift para.    LevelShift      ....    0.2500
   Turn off err/grad.   ShiftErr        ....    0.0010
 Zerner damping         CNVZerner       .... off
 Static damping         CNVDamp         .... on
   Fraction old density DampFac         ....    0.7000
   Max. Damping (<1)    DampMax         ....    0.9800
   Min. Damping (>=0)   DampMin         ....    0.0000
   Turn off err/grad.   DampErr         ....    0.1000
 Fernandez-Rico         CNVRico         .... off

SCF Procedure:
 Maximum # iterations   MaxIter         ....   250
 SCF integral mode      SCFMode         .... Direct
   Integral package                     .... SHARK and LIBINT hybrid scheme
 Reset frequency        DirectResetFreq ....    20
 Integral Threshold     Thresh          ....  2.500e-11 Eh
 Primitive CutOff       TCut            ....  2.500e-12 Eh

Convergence Tolerance:
 Convergence Check Mode ConvCheckMode   .... Total+1el-Energy
 Convergence forced     ConvForced      .... 0
 Energy Change          TolE            ....  1.000e-08 Eh
 1-El. energy change                    ....  1.000e-05 Eh
 DIIS Error             TolErr          ....  5.000e-07


Diagonalization of the overlap matrix:
Smallest eigenvalue                        ... 1.220e-03
Time for diagonalization                   ...    0.034 sec
Threshold for overlap eigenvalues          ... 1.000e-08
Number of eigenvalues below threshold      ... 0
Time for construction of square roots      ...    0.011 sec
Total time needed                          ...    0.046 sec

--------------------
INITIAL GUESS: HCORE
--------------------
                      -----------------
                      INTIAL GUESS DONE 
                      -----------------
-------------------
DFT GRID GENERATION
-------------------

General Integration Accuracy     IntAcc      ... 4.159
Radial Grid Type                 RadialGrid  ... OptM3 with GC (2021)
Angular Grid (max. ang.)         AngularGrid ... 3 (Lebedev-194)
Angular grid pruning method      GridPruning ... 4 (adaptive)
Weight generation scheme         WeightScheme... Becke
Basis function cutoff            BFCut       ... 1.0000e-11
Integration weight cutoff        WCut        ... 1.0000e-14
Angular grids for H and He will be reduced by one unit
Partially contracted basis set               ... off
Rotationally invariant grid construction     ... off

Total number of grid points                  ...    93254
Total number of batches                      ...     1478
Average number of points per batch           ...       63
Average number of grid points per atom       ...     2391
Time for grid setup =    1.657 sec

--------------------
COSX GRID GENERATION
--------------------

GRIDX 1
-------
General Integration Accuracy     IntAcc      ... 3.816
Radial Grid Type                 RadialGrid  ... OptM3 with GC (2021)
Angular Grid (max. ang.)         AngularGrid ... 1 (Lebedev-50)
Angular grid pruning method      GridPruning ... 4 (adaptive)
Weight generation scheme         WeightScheme... Becke
Basis function cutoff            BFCut       ... 1.0000e-11
Integration weight cutoff        WCut        ... 1.0000e-14
Angular grids for H and He will be reduced by one unit
Partially contracted basis set               ... on
Rotationally invariant grid construction     ... off

Total number of grid points                  ...    23156
Total number of batches                      ...      381
Average number of points per batch           ...       60
Average number of grid points per atom       ...      594
UseSFitting                                  ... on

GRIDX 2
-------
General Integration Accuracy     IntAcc      ... 4.020
Radial Grid Type                 RadialGrid  ... OptM3 with GC (2021)
Angular Grid (max. ang.)         AngularGrid ... 2 (Lebedev-110)
Angular grid pruning method      GridPruning ... 4 (adaptive)
Weight generation scheme         WeightScheme... Becke
Basis function cutoff            BFCut       ... 1.0000e-11
Integration weight cutoff        WCut        ... 1.0000e-14
Angular grids for H and He will be reduced by one unit
Partially contracted basis set               ... on
Rotationally invariant grid construction     ... off

Total number of grid points                  ...    50286
Total number of batches                      ...      805
Average number of points per batch           ...       62
Average number of grid points per atom       ...     1289
UseSFitting                                  ... on

GRIDX 3
-------
General Integration Accuracy     IntAcc      ... 4.338
Radial Grid Type                 RadialGrid  ... OptM3 with GC (2021)
Angular Grid (max. ang.)         AngularGrid ... 3 (Lebedev-194)
Angular grid pruning method      GridPruning ... 4 (adaptive)
Weight generation scheme         WeightScheme... Becke
Basis function cutoff            BFCut       ... 1.0000e-11
Integration weight cutoff        WCut        ... 1.0000e-14
Angular grids for H and He will be reduced by one unit
Partially contracted basis set               ... on
Rotationally invariant grid construction     ... off

Total number of grid points                  ...   108705
Total number of batches                      ...     1717
Average number of points per batch           ...       63
Average number of grid points per atom       ...     2787
UseSFitting                                  ... on

Time for X-Grid setup             =    4.212 sec

--------------
SCF ITERATIONS
--------------
ITER       Energy         Delta-E        Max-DP      RMS-DP      [F,P]     Damp
               ***  Starting incremental Fock matrix formation  ***
  0   -854.2137786282   0.00000000000020.17669083  0.14874427  2.8292629 0.7000
  1  -1094.9129943317-240.69921570355010.91693414  0.13109595  1.4761365 0.7000
  2  -1164.3908346090 -69.477840277304 5.56777830  0.06564424  1.0607724 0.7000
  3  -1190.4058710065 -26.015036397434 3.87295176  0.04493666  0.7738069 0.7000
  4  -1208.0475865231 -17.641715516669 2.72196284  0.03689624  0.4595131 0.7000
  5  -1223.6394879481 -15.591901424942 2.45324813  0.03093745  0.3702271 0.7000
  6  -1233.5477643842  -9.908276436127 1.79407024  0.02934882  0.3348165 0.7000
  7  -1241.4084982688  -7.860733884543 1.96769313  0.02532749  0.3368404 0.7000
  8  -1246.0744502890  -4.665952020214 1.68732516  0.02553316  0.3896357 0.7000
  9  -1250.2310304831  -4.156580194079 1.65915018  0.02406702  0.3610987 0.7000
 10  -1252.5030822057  -2.272051722678 1.67075349  0.02482295  0.4124489 0.7000
 11  -1254.6263924019  -2.123310196216 1.52389326  0.02395389  0.3722683 0.7000
                               ***Turning on DIIS***
 12  -1255.6496023653  -1.023209963381 1.60100665  0.02449604  0.4257026 0.7000
 13  -1256.8006563611  -1.151053995753 1.43884643  0.02079623  0.3769448 0.7000
 14  -1267.6026274431 -10.801971082023 1.00666696  0.01471019  0.2550251 0.7000
 15  -1273.8998414462  -6.297214003129 2.36833984  0.03494935  0.0990475 0.0000
 16  -1285.6671797565 -11.767338310284 0.03631982  0.00059812  0.3565045 0.7000
 17  -1285.7949494194  -0.127769662851 0.04291758  0.00098557  0.3455905 0.7000
 18  -1286.1924226527  -0.397473233328 0.05054695  0.00119813  0.3098339 0.7000
 19  -1286.6559644808  -0.463541828093 0.07656057  0.00139881  0.2672152 0.7000
               *** Restarting incremental Fock matrix formation ***
                                   *** Resetting DIIS ***

 WARNING: the maximum gradient error descreased on average only by a factor   1.0
          during the last 20 iterations

                      *** Initiating the TRAH-SCF procedure ***


TRAH GRIDX
----------

General Integration Accuracy     IntAcc      ... 3.067
Radial Grid Type                 RadialGrid  ... OptM3 with GC (2021)
Angular Grid (max. ang.)         AngularGrid ... 1 (Lebedev-50)
Angular grid pruning method      GridPruning ... 4 (adaptive)
Weight generation scheme         WeightScheme... Becke
Basis function cutoff            BFCut       ... 1.0000e-11
Integration weight cutoff        WCut        ... 1.0000e-14
Angular grids for H and He will be reduced by one unit
Partially contracted basis set               ... on
Rotationally invariant grid construction     ... off

Total number of grid points                  ...    12498
Total number of batches                      ...      218
Average number of points per batch           ...       57
Average number of grid points per atom       ...      320


TRAH GRID
---------

General Integration Accuracy     IntAcc      ... 3.467
Radial Grid Type                 RadialGrid  ... OptM3 with GC (2021)
Angular Grid (max. ang.)         AngularGrid ... 1 (Lebedev-50)
Angular grid pruning method      GridPruning ... 4 (adaptive)
Weight generation scheme         WeightScheme... Becke
Basis function cutoff            BFCut       ... 1.0000e-11
Integration weight cutoff        WCut        ... 1.0000e-14
Angular grids for H and He will be reduced by one unit
Partially contracted basis set               ... off
Rotationally invariant grid construction     ... off

Total number of grid points                  ...    29163
Total number of batches                      ...      474
Average number of points per batch           ...       61
Average number of grid points per atom       ...      748

 --------------------------------------------------------------------------------------------
   Iter.        energy            ||Error||_2        Shift      TRadius  Mac/Mic        Rej.
 --------------------------------------------------------------------------------------------
WARNING: 2 diagonal Hessian elements are negative!
    0      -1288.043635672839     1.937901e+00                     0.400 (TRAH MAcro)   No
WARNING : negative HOMO - LUMO gap : -0.024787
    0     dE    -2.074077e-01     2.257067e+00    -3.9797e-01      0.206 (TRAH MIcro)
    0     dE    -3.679249e-01     6.868864e-01    -9.8175e-01      0.400 (TRAH MIcro)
    0     dE    -3.818926e-01     1.965859e-01    -1.1988e+00      0.400 (TRAH MIcro)
    0     dE    -3.842565e-01     6.593949e-02    -1.2225e+00      0.400 (TRAH MIcro)
    0     dE    -3.844751e-01     1.797014e-02    -1.2231e+00      0.400 (TRAH MIcro)
    0     dE    -3.844907e-01     4.260963e-03    -1.2187e+00      0.400 (TRAH MIcro)
    1      -1288.398806550485     3.902063e-01                     0.480 (TRAH MAcro)   No
    1     dE    -2.563439e-02     6.809911e-01    -5.0427e-02      0.129 (TRAH MIcro)
    1     dE    -4.252548e-02     2.913278e-01    -8.0744e-02      0.231 (TRAH MIcro)
    1     dE    -4.579432e-02     1.012167e-01    -8.6045e-02      0.254 (TRAH MIcro)
    1     dE    -4.652976e-02     5.018793e-02    -8.7156e-02      0.260 (TRAH MIcro)
    1     dE    -4.668260e-02     2.810872e-02    -8.7334e-02      0.263 (TRAH MIcro)
    1     dE    -4.672932e-02     6.806784e-03    -8.7376e-02      0.264 (TRAH MIcro)
    2      -1288.447101564941     9.701590e-02                     0.576 (TRAH MAcro)   No
    2     dE    -5.697795e-04     3.220187e-01    -1.1394e-03      0.012 (TRAH MIcro)
    2     dE    -1.503624e-03     4.600545e-02    -3.0016e-03      0.043 (TRAH MIcro)
    2     dE    -1.582990e-03     4.614064e-02    -3.1588e-03      0.048 (TRAH MIcro)
    2     dE    -1.601100e-03     1.525375e-02    -3.1944e-03      0.049 (TRAH MIcro)
    2     dE    -1.604681e-03     3.268815e-03    -3.2013e-03      0.050 (TRAH MIcro)
    3      -1288.448769586215     6.965540e-03                     0.691 (TRAH MAcro)   No
    3     dE    -3.057743e-07     2.710627e-02    -6.1160e-07      0.000 (TRAH MIcro)
    3     dE    -6.846587e-06     9.115289e-03    -1.3693e-05      0.003 (TRAH MIcro)
    3     dE    -8.956209e-06     2.482840e-03    -1.7912e-05      0.004 (TRAH MIcro)
    3     dE    -9.302801e-06     9.875279e-04    -1.8605e-05      0.004 (TRAH MIcro)
    3     dE    -9.370992e-06     4.683176e-04    -1.8742e-05      0.005 (TRAH MIcro)
    4      -1288.448779029621     4.751169e-04                           (NR   MAcro)
    4     dE    -1.621455e-08     2.420813e-04                           (NR   MIcro)
    4     dE    -2.450653e-08     1.813043e-04                           (NR   MIcro)
    4     dE    -2.717038e-08     9.983583e-05                           (NR   MIcro)
    4     dE    -2.757775e-08     4.306917e-05                           (NR   MIcro)
    4     dE    -2.771263e-08     1.350501e-05                           (NR   MIcro)
    4     dE    -2.772205e-08     6.677286e-06                           (NR   MIcro)
    4     dE    -2.772371e-08     2.127728e-06                           (NR   MIcro)
    5      -1288.448779055265     2.347322e-06                           (NR   MAcro)
    5     dE    -3.213343e-13     1.038108e-06                           (NR   MIcro)
    5     dE    -4.346545e-13     5.345140e-07                           (NR   MIcro)
    6      -1288.448779055274     5.344892e-07                           (NR   MAcro)

               *****************************************************
               *                     SUCCESS                       *
               *           SCF CONVERGED AFTER  58 CYCLES          *
               *****************************************************

Old exchange energy                            =    -59.659072983 Eh
New exchange energy                            =    -59.658999393 Eh
Exchange energy change after final integration =      0.000073590 Eh
Total energy after final integration           =  -1288.448705466 Eh
Final COS-X integration done in                =    56.982 sec

----------------
TOTAL SCF ENERGY
----------------

Total Energy       :        -1288.44870547 Eh          -35060.47172 eV

Components:
Nuclear Repulsion  :         2042.68150321 Eh           55584.18955 eV
Electronic Energy  :        -3331.13020868 Eh          -90644.66126 eV
One Electron Energy:        -5840.81752516 Eh         -158936.72505 eV
Two Electron Energy:         2509.68731648 Eh           68292.06378 eV
Max COSX asymmetry :            0.00002208 Eh               0.00060 eV

Virial components:
Potential Energy   :        -2501.57077902 Eh          -68071.20157 eV
Kinetic Energy     :         1213.12207356 Eh           33010.72985 eV
Virial Ratio       :            2.06209320


DFT components:
N(Alpha)           :       82.000677539550 electrons
N(Beta)            :       82.000677539550 electrons
N(Total)           :      164.001355079101 electrons
E(X)               :      -79.595805618476 Eh       
E(C)               :       -7.457331891596 Eh       
E(XC)              :      -87.053137510071 Eh       
DFET-embed. en.    :        0.000000000000 Eh       

---------------
SCF CONVERGENCE
---------------

  Last Energy change         ...   -8.8676e-12  Tolerance :   1.0000e-08
  Last Orbital Gradient      ...    5.3449e-07  Tolerance :   1.0000e-05
  Last Orbital Rotation      ...    6.7740e-07

             **** THE GBW FILE WAS UPDATED (reaction4-IEIP_ts_guess_scan_7-4_orca.gbw) ****
             **** DENSITY reaction4-IEIP_ts_guess_scan_7-4_orca.scfp WAS UPDATED ****
             **** ENERGY FILE WAS UPDATED (reaction4-IEIP_ts_guess_scan_7-4_orca.en.tmp) ****
             **** THE GBW FILE WAS UPDATED (reaction4-IEIP_ts_guess_scan_7-4_orca.gbw) ****
             **** DENSITY reaction4-IEIP_ts_guess_scan_7-4_orca.scfp WAS UPDATED ****
----------------
ORBITAL ENERGIES
----------------

  NO   OCC          E(Eh)            E(eV) 
   0   2.0000     -89.766892     -2442.6813 
   1   2.0000     -19.622998      -533.9689 
   2   2.0000     -19.592071      -533.1274 
   3   2.0000     -14.840858      -403.8403 
   4   2.0000     -10.681034      -290.6457 
   5   2.0000     -10.661692      -290.1194 
   6   2.0000     -10.635335      -289.4022 
   7   2.0000     -10.634163      -289.3703 
   8   2.0000     -10.631380      -289.2946 
   9   2.0000     -10.627656      -289.1932 
  10   2.0000     -10.626803      -289.1700 
  11   2.0000     -10.626726      -289.1679 
  12   2.0000     -10.615546      -288.8637 
  13   2.0000     -10.612380      -288.7775 
  14   2.0000     -10.588948      -288.1399 
  15   2.0000     -10.585570      -288.0480 
  16   2.0000     -10.556534      -287.2579 
  17   2.0000     -10.551873      -287.1311 
  18   2.0000     -10.533506      -286.6313 
  19   2.0000      -8.406236      -228.7453 
  20   2.0000      -6.296210      -171.3286 
  21   2.0000      -6.292570      -171.2295 
  22   2.0000      -6.291121      -171.1901 
  23   2.0000      -4.026920      -109.5781 
  24   2.0000      -2.345522       -63.8249 
  25   2.0000      -2.311998       -62.9127 
  26   2.0000      -2.310701       -62.8774 
  27   2.0000      -1.306665       -35.5562 
  28   2.0000      -1.214719       -33.0542 
  29   2.0000      -1.209027       -32.8993 
  30   2.0000      -1.169677       -31.8285 
  31   2.0000      -1.130380       -30.7592 
  32   2.0000      -1.028208       -27.9790 
  33   2.0000      -0.984030       -26.7768 
  34   2.0000      -0.975003       -26.5312 
  35   2.0000      -0.969782       -26.3891 
  36   2.0000      -0.962591       -26.1934 
  37   2.0000      -0.927295       -25.2330 
  38   2.0000      -0.902924       -24.5698 
  39   2.0000      -0.875506       -23.8237 
  40   2.0000      -0.800266       -21.7764 
  41   2.0000      -0.785904       -21.3855 
  42   2.0000      -0.785490       -21.3743 
  43   2.0000      -0.782927       -21.3045 
  44   2.0000      -0.769870       -20.9492 
  45   2.0000      -0.756662       -20.5898 
  46   2.0000      -0.744322       -20.2540 
  47   2.0000      -0.724858       -19.7244 
  48   2.0000      -0.693192       -18.8627 
  49   2.0000      -0.675518       -18.3818 
  50   2.0000      -0.665920       -18.1206 
  51   2.0000      -0.650738       -17.7075 
  52   2.0000      -0.647441       -17.6178 
  53   2.0000      -0.638414       -17.3721 
  54   2.0000      -0.635584       -17.2951 
  55   2.0000      -0.629511       -17.1299 
  56   2.0000      -0.622893       -16.9498 
  57   2.0000      -0.613605       -16.6971 
  58   2.0000      -0.605565       -16.4783 
  59   2.0000      -0.604922       -16.4608 
  60   2.0000      -0.599945       -16.3253 
  61   2.0000      -0.591044       -16.0831 
  62   2.0000      -0.581261       -15.8169 
  63   2.0000      -0.574210       -15.6250 
  64   2.0000      -0.564648       -15.3649 
  65   2.0000      -0.556372       -15.1397 
  66   2.0000      -0.552305       -15.0290 
  67   2.0000      -0.548621       -14.9287 
  68   2.0000      -0.540557       -14.7093 
  69   2.0000      -0.536843       -14.6082 
  70   2.0000      -0.528328       -14.3765 
  71   2.0000      -0.520009       -14.1502 
  72   2.0000      -0.515815       -14.0360 
  73   2.0000      -0.502847       -13.6832 
  74   2.0000      -0.488813       -13.3013 
  75   2.0000      -0.482010       -13.1162 
  76   2.0000      -0.472645       -12.8613 
  77   2.0000      -0.447548       -12.1784 
  78   2.0000      -0.442811       -12.0495 
  79   2.0000      -0.424273       -11.5450 
  80   2.0000      -0.416453       -11.3323 
[...]

----------------------
LOEWDIN ATOMIC CHARGES
----------------------
   0 Ir:   -0.239887
   1 C :   -0.045158
   2 C :   -0.076526
   3 C :   -0.068869
   4 C :   -0.052664
   5 C :   -0.018087
   6 N :   -0.001686
   7 C :   -0.069928
   8 C :   -0.363166
   9 H :    0.156896
  10 H :    0.132927
  11 H :    0.146456
  12 C :   -0.343448
  13 H :    0.156753
  14 H :    0.152458
  15 H :    0.137225
  16 H :    0.133360
  17 C :    0.032726
  18 C :   -0.176802
  19 H :    0.162223
  20 C :   -0.205525
  21 C :   -0.126994
  22 S :    0.486646
  23 C :   -0.262657
  24 H :    0.308248
  25 H :    0.163157
  26 H :    0.168891
  27 H :    0.183727
  28 H :    0.183716
  29 H :    0.192318
  30 O :   -0.272372
  31 O :   -0.203406
  32 C :    0.153558
  33 C :   -0.375192
  34 H :    0.159975
  35 H :    0.167684
  36 H :    0.153456
  37 H :    0.184799
  38 H :    0.185165

-------------------------------
LOEWDIN REDUCED ORBITAL CHARGES
-------------------------------
  0 Irs       :     2.448210  s :     2.448210
      pz      :     2.246100  p :     6.759600
      px      :     2.245090
      py      :     2.268410
      dz2     :     1.822015  d :     7.942402
      dxz     :     1.711120
      dyz     :     1.312867
      dx2y2   :     1.623749
      dxy     :     1.472651
      f0      :     0.011261  f :     0.089676
      f+1     :     0.003801
      f-1     :     0.013965
      f+2     :     0.016500
      f-2     :     0.016554
      f+3     :     0.011082
      f-3     :     0.016514
  1 C s       :     2.875165  s :     2.875165
      pz      :     1.049683  p :     3.065895
      px      :     1.084193
      py      :     0.932019
      dz2     :     0.026245  d :     0.104098
      dxz     :     0.026625
      dyz     :     0.017263
      dx2y2   :     0.018603
      dxy     :     0.015362
  2 C s       :     2.874589  s :     2.874589
      pz      :     1.043288  p :     3.101189
      px      :     1.080015
      py      :     0.977886
      dz2     :     0.025041  d :     0.100748
      dxz     :     0.027765
      dyz     :     0.017190
      dx2y2   :     0.017836
      dxy     :     0.012915
  3 C s       :     2.873057  s :     2.873057
      pz      :     1.032436  p :     3.094943
      px      :     1.080425
      py      :     0.982081
      dz2     :     0.023420  d :     0.100869
      dxz     :     0.031819
      dyz     :     0.015689
      dx2y2   :     0.015649
      dxy     :     0.014293
  4 C s       :     2.874412  s :     2.874412
      pz      :     1.089106  p :     3.075779
      px      :     1.038530
      py      :     0.948143
      dz2     :     0.022421  d :     0.102473
      dxz     :     0.030842
      dyz     :     0.013015
      dx2y2   :     0.018206
      dxy     :     0.017989
  5 C s       :     2.878079  s :     2.878079
      pz      :     1.058184  p :     3.035128
      px      :     1.035229
      py      :     0.941715
      dz2     :     0.023975  d :     0.104880
      dxz     :     0.030619
      dyz     :     0.015918
      dx2y2   :     0.015683
      dxy     :     0.018686
  6 N s       :     3.123498  s :     3.123498
      pz      :     1.261026  p :     3.779642
      px      :     1.292639
      py      :     1.225978
      dz2     :     0.030631  d :     0.098546
      dxz     :     0.027615
      dyz     :     0.018943
      dx2y2   :     0.011498
      dxy     :     0.009859
  7 C s       :     2.862530  s :     2.862530
      pz      :     1.060125  p :     3.073142
      px      :     0.938286
      py      :     1.074731
      dz2     :     0.025559  d :     0.134256
      dxz     :     0.029085
      dyz     :     0.016930
      dx2y2   :     0.029531
      dxy     :     0.033151
  8 C s       :     2.953310  s :     2.953310
      pz      :     1.133487  p :     3.342412
      px      :     1.124407
      py      :     1.084518
      dz2     :     0.013032  d :     0.067444
      dxz     :     0.017696
      dyz     :     0.008440
      dx2y2   :     0.009430
      dxy     :     0.018845
  9 H s       :     0.843104  s :     0.843104
 10 H s       :     0.867073  s :     0.867073
 11 H s       :     0.853544  s :     0.853544
 12 C s       :     2.953279  s :     2.953279
      pz      :     1.142675  p :     3.322219
      px      :     1.109718
      py      :     1.069826
      dz2     :     0.011795  d :     0.067950
      dxz     :     0.013959
      dyz     :     0.012698
      dx2y2   :     0.011360
      dxy     :     0.018138
 13 H s       :     0.843247  s :     0.843247
 14 H s       :     0.847542  s :     0.847542
 15 H s       :     0.862775  s :     0.862775
 16 H s       :     0.866640  s :     0.866640
 17 C s       :     2.877497  s :     2.877497
      pz      :     1.018398  p :     2.949656
      px      :     1.061964
      py      :     0.869293
      dz2     :     0.040296  d :     0.140121
      dxz     :     0.050558
      dyz     :     0.025045
      dx2y2   :     0.011804
      dxy     :     0.012418
 18 C s       :     2.895333  s :     2.895333
      pz      :     1.046521  p :     3.169124
      px      :     1.090399
      py      :     1.032204
      dz2     :     0.032308  d :     0.112346
      dxz     :     0.031896
      dyz     :     0.017497
      dx2y2   :     0.018228
      dxy     :     0.012417
 19 H s       :     0.837777  s :     0.837777
 20 C s       :     2.904254  s :     2.904254
      pz      :     1.115415  p :     3.209226
      px      :     1.051742
      py      :     1.042070
      dz2     :     0.011444  d :     0.092045
      dxz     :     0.035358
      dyz     :     0.010379
      dx2y2   :     0.017957
      dxy     :     0.016908
 21 C s       :     2.897502  s :     2.897502
      pz      :     1.073442  p :     3.135190
      px      :     1.088289
      py      :     0.973460
      dz2     :     0.026664  d :     0.094302
      dxz     :     0.030174
      dyz     :     0.014130
      dx2y2   :     0.014944
      dxy     :     0.008391
 22 S s       :     5.501730  s :     5.501730
      pz      :     3.274336  p :     9.857448
      px      :     3.084215
      py      :     3.498896
      dz2     :     0.043459  d :     0.154176
      dxz     :     0.033743
      dyz     :     0.021327
      dx2y2   :     0.031290
      dxy     :     0.024356
 23 C s       :     2.964417  s :     2.964417
      pz      :     1.117861  p :     3.212712
      px      :     1.021490
      py      :     1.073361
      dz2     :     0.022178  d :     0.085527
      dxz     :     0.029061
      dyz     :     0.012310
      dx2y2   :     0.012447
      dxy     :     0.009531
 24 H s       :     0.691752  s :     0.691752
 25 H s       :     0.836843  s :     0.836843
 26 H s       :     0.831109  s :     0.831109
 27 H s       :     0.816273  s :     0.816273
 28 H s       :     0.816284  s :     0.816284
 29 H s       :     0.807682  s :     0.807682
 30 O s       :     3.509931  s :     3.509931
      pz      :     1.461901  p :     4.707887
      px      :     1.534023
      py      :     1.711963
      dz2     :     0.017812  d :     0.054553
      dxz     :     0.013471
      dyz     :     0.015631
      dx2y2   :     0.004276
      dxy     :     0.003363
 31 O s       :     3.446239  s :     3.446239
      pz      :     1.694032  p :     4.697887
      px      :     1.624696
      py      :     1.379158
      dz2     :     0.009307  d :     0.059280
      dxz     :     0.003634
      dyz     :     0.016162
      dx2y2   :     0.015519
      dxy     :     0.014659
 32 C s       :     2.813870  s :     2.813870
      pz      :     0.999201  p :     2.710745
      px      :     0.757781
      py      :     0.953763
      dz2     :     0.075496  d :     0.321828
      dxz     :     0.045771
      dyz     :     0.106480
      dx2y2   :     0.045560
      dxy     :     0.048521
 33 C s       :     2.959614  s :     2.959614
      pz      :     1.097687  p :     3.352896
      px      :     1.150033
      py      :     1.105175
      dz2     :     0.005313  d :     0.062682
      dxz     :     0.017323
      dyz     :     0.019567
      dx2y2   :     0.018255
      dxy     :     0.002224
 34 H s       :     0.840025  s :     0.840025
 35 H s       :     0.832316  s :     0.832316
 36 H s       :     0.846544  s :     0.846544
 37 H s       :     0.815201  s :     0.815201
 38 H s       :     0.814835  s :     0.814835


                      *****************************
                      * MAYER POPULATION ANALYSIS *
                      *****************************

  NA   - Mulliken gross atomic population
  ZA   - Total nuclear charge
  QA   - Mulliken gross atomic charge
  VA   - Mayer's total valence
  BVA  - Mayer's bonded valence
  FA   - Mayer's free valence

  ATOM       NA         ZA         QA         VA         BVA        FA
  0 Ir    16.3919    17.0000     0.6081     3.7408     3.7408    -0.0000
  1 C      6.2176     6.0000    -0.2176     3.7076     3.7076     0.0000
  2 C      6.2791     6.0000    -0.2791     3.7393     3.7393    -0.0000
  3 C      6.2479     6.0000    -0.2479     3.7379     3.7379     0.0000
  4 C      6.2406     6.0000    -0.2406     3.7215     3.7215     0.0000
  5 C      6.1617     6.0000    -0.1617     3.6956     3.6956    -0.0000
  6 N      7.4267     7.0000    -0.4267     3.2166     3.2166     0.0000
  7 C      6.1266     6.0000    -0.1266     3.7000     3.7000     0.0000
  8 C      6.6862     6.0000    -0.6862     3.6860     3.6860     0.0000
  9 H      0.7293     1.0000     0.2707     0.8970     0.8970     0.0000
 10 H      0.7758     1.0000     0.2242     0.9106     0.9106    -0.0000
 11 H      0.7401     1.0000     0.2599     0.8980     0.8980     0.0000
 12 C      6.6354     6.0000    -0.6354     3.6725     3.6725    -0.0000
 13 H      0.7171     1.0000     0.2829     0.8744     0.8744     0.0000
 14 H      0.7373     1.0000     0.2627     0.8974     0.8974     0.0000
 15 H      0.7689     1.0000     0.2311     0.9097     0.9097    -0.0000
 16 H      0.7679     1.0000     0.2321     0.9062     0.9062     0.0000
 17 C      5.9283     6.0000     0.0717     3.6422     3.6422     0.0000
 18 C      6.1567     6.0000    -0.1567     3.7100     3.7100    -0.0000
 19 H      0.7104     1.0000     0.2896     0.8865     0.8865     0.0000
 20 C      6.5044     6.0000    -0.5044     3.4870     3.4870    -0.0000
 21 C      6.1150     6.0000    -0.1150     3.7471     3.7471    -0.0000
 22 S     15.6770    16.0000     0.3230     2.5932     2.5932    -0.0000
 23 C      6.4326     6.0000    -0.4326     3.7482     3.7482     0.0000
 24 H      0.5090     1.0000     0.4910     0.7431     0.7431    -0.0000
 25 H      0.7327     1.0000     0.2673     0.9030     0.9030    -0.0000
 26 H      0.7014     1.0000     0.2986     0.8969     0.8969    -0.0000
 27 H      0.7112     1.0000     0.2888     0.9032     0.9032     0.0000
 28 H      0.7112     1.0000     0.2888     0.9066     0.9066    -0.0000
 29 H      0.6955     1.0000     0.3045     0.8925     0.8925    -0.0000
 30 O      8.4765     8.0000    -0.4765     2.1357     2.1357    -0.0000
 31 O      8.5340     8.0000    -0.5340     2.0804     2.0804    -0.0000
 32 C      5.3821     6.0000     0.6179     3.9167     3.9167     0.0000
 33 C      6.7445     6.0000    -0.7445     3.6677     3.6677    -0.0000
 34 H      0.7305     1.0000     0.2695     0.8952     0.8952     0.0000
 35 H      0.7327     1.0000     0.2673     0.8949     0.8949     0.0000
 36 H      0.7463     1.0000     0.2537     0.9007     0.9007     0.0000
 37 H      0.7113     1.0000     0.2887     0.9047     0.9047    -0.0000
 38 H      0.7068     1.0000     0.2932     0.9033     0.9033     0.0000

  Mayer bond orders larger than 0.100000
B(  0-Ir,  1-C ) :   0.4183 B(  0-Ir,  2-C ) :   0.4912 B(  0-Ir,  3-C ) :   0.4625 
B(  0-Ir,  4-C ) :   0.4437 B(  0-Ir,  5-C ) :   0.3977 B(  0-Ir,  6-N ) :   0.4622 
B(  0-Ir, 20-C ) :   0.3296 B(  0-Ir, 31-O ) :   0.5676 B(  1-C ,  2-C ) :   1.1244 
B(  1-C ,  4-C ) :   1.2437 B(  1-C , 27-H ) :   0.9049 B(  2-C ,  5-C ) :   1.1525 
B(  2-C , 28-H ) :   0.9089 B(  3-C ,  4-C ) :   1.1114 B(  3-C ,  5-C ) :   1.2197 
B(  3-C , 37-H ) :   0.9082 B(  4-C , 38-H ) :   0.9004 B(  5-C , 29-H ) :   0.8984 
B(  6-N ,  7-C ) :   0.8922 B(  6-N , 17-C ) :   1.6764 B(  7-C ,  8-C ) :   0.9910 
B(  7-C , 12-C ) :   0.9676 B(  7-C , 13-H ) :   0.8731 B(  8-C ,  9-H ) :   0.9041 
B(  8-C , 10-H ) :   0.9131 B(  8-C , 11-H ) :   0.9091 B( 12-C , 14-H ) :   0.9069 
B( 12-C , 15-H ) :   0.9156 B( 12-C , 16-H ) :   0.9122 B( 17-C , 18-C ) :   1.0752 
B( 17-C , 19-H ) :   0.8753 B( 18-C , 20-C ) :   1.2626 B( 18-C , 22-S ) :   1.2477 
B( 20-C , 21-C ) :   1.2612 B( 20-C , 24-H ) :   0.4457 B( 21-C , 23-C ) :   1.5520 
B( 21-C , 25-H ) :   0.9037 B( 22-S , 23-C ) :   1.2038 B( 23-C , 26-H ) :   0.8914 
B( 24-H , 30-O ) :   0.2646 B( 30-O , 32-C ) :   1.6723 B( 31-O , 32-C ) :   1.2946 
B( 32-C , 33-C ) :   0.9454 B( 33-C , 34-H ) :   0.9046 B( 33-C , 35-H ) :   0.8981 
B( 33-C , 36-H ) :   0.9094 


------------------
HIRSHFELD ANALYSIS
------------------

Total integrated alpha density =     82.000366888
Total integrated beta density  =     82.000366888

  ATOM     CHARGE      SPIN    
   0 Ir   0.192504    0.000000
   1 C    0.004139    0.000000
   2 C   -0.006079    0.000000
   3 C   -0.006655    0.000000
   4 C   -0.002862    0.000000
   5 C    0.020255    0.000000
   6 N   -0.065189    0.000000
   7 C    0.053294    0.000000
   8 C   -0.071178    0.000000
   9 H    0.053722    0.000000
  10 H    0.037509    0.000000
  11 H    0.043317    0.000000
  12 C   -0.070627    0.000000
  13 H    0.046172    0.000000
  14 H    0.051230    0.000000
  15 H    0.036710    0.000000
  16 H    0.030562    0.000000
  17 C    0.099225    0.000000
  18 C   -0.000124    0.000000
  19 H    0.078607    0.000000
  20 C   -0.074915    0.000000
  21 C   -0.025929    0.000000
  22 S    0.137156    0.000000
  23 C   -0.026456    0.000000
  24 H    0.070421    0.000000
  25 H    0.070538    0.000000
  26 H    0.078574    0.000000
  27 H    0.082666    0.000000
  28 H    0.083062    0.000000
  29 H    0.093829    0.000000
  30 O   -0.256496    0.000000
  31 O   -0.257042    0.000000
  32 C    0.241913    0.000000
  33 C   -0.066829    0.000000
  34 H    0.054590    0.000000
  35 H    0.059747    0.000000
  36 H    0.048508    0.000000
  37 H    0.083657    0.000000
  38 H    0.077744    0.000000

  TOTAL   0.999266    0.000000

-------
TIMINGS
-------

Total SCF time: 0 days 0 hours 4 min 14 sec 

Total time                  ....     254.050 sec
Sum of individual times     ....     253.608 sec  ( 99.8%)

Fock matrix formation       ....     246.269 sec  ( 96.9%)
  Split-RI-J                ....      17.374 sec  (  7.1% of F)
  Chain of spheres X        ....     218.399 sec  ( 88.7% of F)
  XC integration            ....      10.493 sec  (  4.3% of F)
    Basis function eval.    ....       4.853 sec  ( 46.2% of XC)
    Density eval.           ....       2.795 sec  ( 26.6% of XC)
    XC-Functional eval.     ....       0.766 sec  (  7.3% of XC)
    XC-Potential eval.      ....       1.652 sec  ( 15.7% of XC)
Diagonalization             ....       0.163 sec  (  0.1%)
Density matrix formation    ....       0.027 sec  (  0.0%)
Population analysis         ....       1.153 sec  (  0.5%)
Initial guess               ....       0.024 sec  (  0.0%)
Orbital Transformation      ....       0.000 sec  (  0.0%)
Orbital Orthonormalization  ....       0.018 sec  (  0.0%)
DIIS solution               ....       0.064 sec  (  0.0%)
Grid generation             ....       5.908 sec  (  2.3%)

Maximum memory used throughout the entire SCF-calculation: 173.3 MB


-------------------------------------------------------------------------------
                          DFT DISPERSION CORRECTION                            
                                                                               
                              DFTD3 V3.1  Rev 1                                
                          USING Becke-Johnson damping                          
-------------------------------------------------------------------------------
The PBEh-3c composite method is recognized
Using three-body term ABC
Active option DFTDOPT                   ...         4   

molecular C6(AA) [au] = 19550.402143 


            DFT-D V3
 parameters
 s6 scaling factor         :     1.0000 
 a1 scaling factor         :     0.4860 
 s8 scaling factor         :     0.0000 
 a2 scaling factor         :     4.5000 
 Damping factor alpha9(ATM):    16.0000 
 ad hoc parameters k1-k3   :    16.0000     1.3333    -4.0000 

 Edisp/kcal,au: -19.364464999944  -0.030859235971 
 E6   /kcal   : -19.711052262 
 E8   /kcal   :  -0.000000000 
 E6(ABC)      :   0.346587263 
 % E8         :   0.000000000 
 % E6(ABC)    :  -1.789810679 

-------------------------   ----------------
Dispersion correction           -0.030859236
-------------------------   ----------------

 ** NOTE ** -> element ir will be treated as co
NOTIFICATION: Different basis set in ORCA and otool_gcp:
ORCA: 358  gCP: 357 
If you are NOT using ECPs, check your basis set inputs!
------------------   -----------------
gCP correction             0.079525222
------------------   -----------------

-------------------------   --------------------
FINAL SINGLE POINT ENERGY     -1288.400423253232
-------------------------   --------------------

                                *** OPTIMIZATION RUN DONE ***

                            ***************************************
                            *     ORCA property calculations      *
                            ***************************************

                                    ---------------------
                                    Active property flags
                                    ---------------------
   (+) Dipole Moment


------------------------------------------------------------------------------
                       ORCA ELECTRIC PROPERTIES CALCULATION
------------------------------------------------------------------------------

Dipole Moment Calculation                       ... on
Quadrupole Moment Calculation                   ... off
Polarizability Calculation                      ... off
GBWName                                         ... reaction4-IEIP_ts_guess_scan_7-4_orca.gbw
Electron density                                ... reaction4-IEIP_ts_guess_scan_7-4_orca.scfp
The origin for moment calculation is the CENTER OF MASS  = ( 0.866202, -0.599812 -0.160201)

-------------
DIPOLE MOMENT
-------------
                                X             Y             Z
Electronic contribution:     38.06154     -68.60222      72.35992
Nuclear contribution   :    -38.69085      67.53317     -72.73231
                        -----------------------------------------
Total Dipole Moment    :     -0.62931      -1.06905      -0.37239
                        -----------------------------------------
Magnitude (a.u.)       :      1.29521
Magnitude (Debye)      :      3.29216



--------------------
Rotational spectrum 
--------------------
 
Rotational constants in cm-1:     0.010615     0.009096     0.008215 
Rotational constants in MHz :   318.231936   272.703392   246.287284 

 Dipole components along the rotational axes: 
x,y,z [a.u.] :    -0.245611     0.340696    -1.225220 
x,y,z [Debye]:    -0.624294     0.865980    -3.114263 

 

Timings for individual modules:

Sum of individual times         ...     7774.059 sec (= 129.568 min)
GTO integral calculation        ...       23.068 sec (=   0.384 min)   0.3 %
SCF iterations                  ...     6208.587 sec (= 103.476 min)  79.9 %
SCF Gradient evaluation         ...     1538.911 sec (=  25.649 min)  19.8 %
Geometry relaxation             ...        3.493 sec (=   0.058 min)   0.0 %
                             ****ORCA TERMINATED NORMALLY****
TOTAL RUN TIME: 0 days 2 hours 9 minutes 39 seconds 217 msec
