
                                 *****************
                                 * O   R   C   A *
                                 *****************

                                            #,                                       
                                            ###                                      
                                            ####                                     
                                            #####                                    
                                            ######                                   
                                           ########,                                 
                                     ,,################,,,,,                         
                               ,,#################################,,                 
                          ,,##########################################,,             
                       ,#########################################, ''#####,          
                    ,#############################################,,   '####,        
                  ,##################################################,,,,####,       
                ,###########''''           ''''###############################       
              ,#####''   ,,,,##########,,,,          '''####'''          '####       
            ,##' ,,,,###########################,,,                        '##       
           ' ,,###''''                  '''############,,,                           
         ,,##''                                '''############,,,,        ,,,,,,###''
      ,#''                                            '''#######################'''  
     '                                                          ''''####''''         
             ,#######,   #######,   ,#######,      ##                                
            ,#'     '#,  ##    ##  ,#'     '#,    #''#        ######   ,####,        
            ##       ##  ##   ,#'  ##            #'  '#       #        #'  '#        
            ##       ##  #######   ##           ,######,      #####,   #    #        
            '#,     ,#'  ##    ##  '#,     ,#' ,#      #,         ##   #,  ,#        
             '#######'   ##     ##  '#######'  #'      '#     #####' # '####'        



                  #######################################################
                  #                        -***-                        #
                  #          Department of theory and spectroscopy      #
                  #    Directorship and core code : Frank Neese         #
                  #        Max Planck Institute fuer Kohlenforschung    #
                  #                Kaiser Wilhelm Platz 1               #
                  #                 D-45470 Muelheim/Ruhr               #
                  #                      Germany                        #
                  #                                                     #
                  #                  All rights reserved                #
                  #                        -***-                        #
                  #######################################################


                         Program Version 5.0.3 -  RELEASE  -


 With contributions from (in alphabetic order):
   Daniel Aravena         : Magnetic Suceptibility
   Michael Atanasov       : Ab Initio Ligand Field Theory (pilot matlab implementation)
   Alexander A. Auer      : GIAO ZORA, VPT2 properties, NMR spectrum
   Ute Becker             : Parallelization
   Giovanni Bistoni       : ED, misc. LED, open-shell LED, HFLD
   Martin Brehm           : Molecular dynamics
   Dmytro Bykov           : SCF Hessian
   Vijay G. Chilkuri      : MRCI spin determinant printing, contributions to CSF-ICE
   Dipayan Datta          : RHF DLPNO-CCSD density
   Achintya Kumar Dutta   : EOM-CC, STEOM-CC
   Dmitry Ganyushin       : Spin-Orbit,Spin-Spin,Magnetic field MRCI
   Miquel Garcia          : C-PCM and meta-GGA Hessian, CC/C-PCM, Gaussian charge scheme
   Yang Guo               : DLPNO-NEVPT2, F12-NEVPT2, CIM, IAO-localization
   Andreas Hansen         : Spin unrestricted coupled pair/coupled cluster methods
   Benjamin Helmich-Paris : MC-RPA, TRAH-SCF, COSX integrals
   Lee Huntington         : MR-EOM, pCC
   Robert Izsak           : Overlap fitted RIJCOSX, COSX-SCS-MP3, EOM
   Marcus Kettner         : VPT2
   Christian Kollmar      : KDIIS, OOCD, Brueckner-CCSD(T), CCSD density, CASPT2, CASPT2-K
   Simone Kossmann        : Meta GGA functionals, TD-DFT gradient, OOMP2, MP2 Hessian
   Martin Krupicka        : Initial AUTO-CI
   Lucas Lang             : DCDCAS
   Marvin Lechner         : AUTO-CI (C++ implementation), FIC-MRCC
   Dagmar Lenk            : GEPOL surface, SMD
   Dimitrios Liakos       : Extrapolation schemes; Compound Job, initial MDCI parallelization
   Dimitrios Manganas     : Further ROCIS development; embedding schemes
   Dimitrios Pantazis     : SARC Basis sets
   Anastasios Papadopoulos: AUTO-CI, single reference methods and gradients
   Taras Petrenko         : DFT Hessian,TD-DFT gradient, ASA, ECA, R-Raman, ABS, FL, XAS/XES, NRVS
   Peter Pinski           : DLPNO-MP2, DLPNO-MP2 Gradient
   Christoph Reimann      : Effective Core Potentials
   Marius Retegan         : Local ZFS, SOC
   Christoph Riplinger    : Optimizer, TS searches, QM/MM, DLPNO-CCSD(T), (RO)-DLPNO pert. Triples
   Tobias Risthaus        : Range-separated hybrids, TD-DFT gradient, RPA, STAB
   Michael Roemelt        : Original ROCIS implementation
   Masaaki Saitow         : Open-shell DLPNO-CCSD energy and density
   Barbara Sandhoefer     : DKH picture change effects
   Avijit Sen             : IP-ROCIS
   Kantharuban Sivalingam : CASSCF convergence, NEVPT2, FIC-MRCI
   Bernardo de Souza      : ESD, SOC TD-DFT
   Georgi Stoychev        : AutoAux, RI-MP2 NMR, DLPNO-MP2 response
   Willem Van den Heuvel  : Paramagnetic NMR
   Boris Wezisla          : Elementary symmetry handling
   Frank Wennmohs         : Technical directorship


 We gratefully acknowledge several colleagues who have allowed us to
 interface, adapt or use parts of their codes:
   Stefan Grimme, W. Hujo, H. Kruse, P. Pracht,  : VdW corrections, initial TS optimization,
                  C. Bannwarth, S. Ehlert          DFT functionals, gCP, sTDA/sTD-DF
   Ed Valeev, F. Pavosevic, A. Kumar             : LibInt (2-el integral package), F12 methods
   Garnet Chan, S. Sharma, J. Yang, R. Olivares  : DMRG
   Ulf Ekstrom                                   : XCFun DFT Library
   Mihaly Kallay                                 : mrcc  (arbitrary order and MRCC methods)
   Jiri Pittner, Ondrej Demel                    : Mk-CCSD
   Frank Weinhold                                : gennbo (NPA and NBO analysis)
   Christopher J. Cramer and Donald G. Truhlar   : smd solvation model
   Lars Goerigk                                  : TD-DFT with DH, B97 family of functionals
   V. Asgeirsson, H. Jonsson                     : NEB implementation
   FAccTs GmbH                                   : IRC, NEB, NEB-TS, DLPNO-Multilevel, CI-OPT
                                                   MM, QMMM, 2- and 3-layer-ONIOM, Crystal-QMMM,
                                                   LR-CPCM, SF, NACMEs, symmetry and pop. for TD-DFT,
                                                   nearIR, NL-DFT gradient (VV10), updates on ESD,
                                                   ML-optimized integration grids
   S Lehtola, MJT Oliveira, MAL Marques          : LibXC Library
   Liviu Ungur et al                             : ANISO software


 Your calculation uses the libint2 library for the computation of 2-el integrals
 For citations please refer to: http://libint.valeyev.net

 Your ORCA version has been built with support for libXC version: 5.1.0
 For citations please refer to: https://tddft.org/programs/libxc/

 This ORCA versions uses:
   CBLAS   interface :  Fast vector & matrix operations
   LAPACKE interface :  Fast linear algebra routines
   SCALAPACK package :  Parallel linear algebra routines
   Shared memory     :  Shared parallel matrices
   BLAS/LAPACK       :  OpenBLAS 0.3.15  USE64BITINT DYNAMIC_ARCH NO_AFFINITY SkylakeX SINGLE_THREADED
        Core in use  :  SkylakeX
   Copyright (c) 2011-2014, The OpenBLAS Project


Your calculation utilizes the geometrical counterpoise correction gCP
Please cite in your paper:
H.Kruse, S. Grimme J.Chem.Phys., 136, (2012), 154101 
   

Your calculation utilizes the atom-pairwise dispersion correction
with the Becke-Johnson damping scheme (D3BJ)
Cite in your paper:
S.Grimme, S.Ehrlich, L.Goerigk, J Comput Chem, (2011), 32, 1456–1465 
S.Grimme, J.Antony, S.Ehrlich and H.Krieg, J.Chem.Phys., 132, (2010), 154104 
   

Your calculation employs the composite approach PBEh-3c.
Please cite in your paper:
S. Grimme, J. G. Brandenburg, C. Bannwarth, A. Hansen J.Chem.Phys., 143, (2015), 054107 
   

================================================================================

cite the ECPs for Ir [Def2-ECP] as follows:
Ce-Yb(ecp-28): M. Dolg, H. Stoll, H.Preuss, J. Chem. Phys., 1989, 90, 1730-1734.
Y-Cd(ecp-28), Hf-Hg(ecp-46): D. Andrae,U. Haeussermann, M. Dolg, H. Stoll, H. Preuss, Theor. Chim. Acta, 1990, 77, 123-141.
In-Sb(ecp-28), Tl-Bi(ecp-46): B. Metz, H. Stoll, M. Dolg, J. Chem. Phys., 2000, 113, 2563-2569.
Te-Xe(ecp-28), Po-Rn(ecp-46): K. A. Peterson, D. Figgen, E. Goll, H. Stoll, M. Dolg, J. Chem. Phys., 2003, 119, 11113-11123.
Rb(ecp-28), Cs(ecp-46): T. Leininger, A. Nicklass, W. Kuechle, H. Stoll, M. Dolg, A. Bergner, Chem. Phys. Lett., 1996, 255, 274-280.
Sr(ecp-28), Ba(ecp-46): M. Kaupp, P. V. Schleyer, H. Stoll and H. Preuss, J. Chem. Phys., 1991, 94, 1360-1366.
La(ecp-46): M. Dolg, H. Stoll, A. Savin, H. Preuss, Theor. Chim. Acta, 1989, 75, 173-194.
Lu(ecp-28): X. Cao, M. Dolg, J. Chem. Phys., 2001, 115, 7348-7355.

ECP parameters for Ir [Def2-ECP] have been obtained from:
TURBOMOLE (7.0.2)

----- Orbital basis set information -----
Your calculation utilizes the basis: def2-mSVP

----- AuxJ basis set information -----
Your calculation utilizes the auxiliary basis: def2/J
   F. Weigend, Phys. Chem. Chem. Phys. 8, 1057 (2006).

================================================================================
                                        WARNINGS
                       Please study these warnings very carefully!
================================================================================


WARNING: Geometry Optimization
  ===> : Switching off AutoStart
         For restart on a previous wavefunction, please use MOREAD

WARNING: No Hueckel Guess possible with ECP basis!
  ===> : Switching to HCORE guess!

INFO   : the flag for use of the SHARK integral package has been found!

================================================================================
                                       INPUT FILE
================================================================================
NAME = reaction4-IEIP_ts_guess_scan_5-2_orca.inp
|  1> ! Opt PBEh-3c
|  2> %geom Constraints
|  3> { B 0 20 2.3857142857142857 C }
|  4> { B 24 30 1.4714285714285715 C }
|  5>     end
|  6> end
|  7> %output 
|  8> xyzfile=True 
|  9> end 
| 10> %scf 
| 11> maxiter 250 
| 12> end
| 13> %output
| 14> Print[P_Hirshfeld] = 1
| 15> end
| 16> % maxcore
| 17> 4000
| 18> *xyz 1 1
| 19> Ir   0.60181640  -0.71310481   0.43596439 
| 20> C    0.05067323  -2.79961775   0.33887682 
| 21> C    0.12604393  -2.34425677   1.70494822 
| 22> C    2.21405483  -2.12174187   0.75763219 
| 23> C    1.31741066  -2.63979863  -0.25111039 
| 24> C    1.48965344  -1.97720952   1.95468085 
| 25> N   -1.04628367   0.17229364  -0.52589704 
| 26> C   -2.31256987   0.49801569   0.14774499 
| 27> C   -3.12264992   1.56777856  -0.56645882 
| 28> H   -3.94885300   1.87042107   0.07544601 
| 29> H   -3.56751466   1.21457835  -1.49821425 
| 30> H   -2.53039158   2.45961368  -0.77366050 
| 31> C   -3.12110183  -0.77677033   0.35590404 
| 32> H   -2.01425687   0.88434420   1.12362591 
| 33> H   -4.03037016  -0.54563753   0.90868496 
| 34> H   -3.41402325  -1.22057296  -0.59649002 
| 35> H   -2.57256779  -1.52032993   0.93239147 
| 36> C   -0.85234254   0.38117615  -1.76997253 
| 37> C    0.49729956   0.15079151  -2.23760129 
| 38> H   -1.63293062   0.74516139  -2.43166763 
| 39> C    1.59505662   0.46442770  -1.44149405 
| 40> C    2.80263171   0.04673349  -2.07416732 
| 41> S    0.93110496  -0.60337218  -3.70224024 
| 42> C    2.59639244  -0.53735879  -3.28354027 
| 43> H    1.53166717   1.35501453  -0.68501016 
| 44> H    3.78632723   0.22473100  -1.66465226 
| 45> H    3.33528418  -0.91445408  -3.97432699 
| 46> H   -0.83610658  -3.16653447  -0.15772698 
| 47> H   -0.66572464  -2.37459889   2.43887459 
| 48> H    1.87202738  -1.57646947   2.88248902 
| 49> O    1.30033727   2.47876349   0.25892931 
| 50> O    0.53475562   0.91474639   1.65306159 
| 51> C    0.90026782   2.12040794   1.36231641 
| 52> C    0.83317327   3.08363937   2.51512426 
| 53> H    0.78996435   4.10854550   2.15689479 
| 54> H    1.73561490   2.97869264   3.12052535 
| 55> H   -0.01556460   2.87941881   3.16463829 
| 56> H    3.26060534  -1.89514976   0.61867617 
| 57> H    1.58045928  -2.87312740  -1.27245885 
| 58> *
| 59> 
| 60>                          ****END OF INPUT****
================================================================================

                       *****************************
                       * Geometry Optimization Run *
                       *****************************

Geometry optimization settings:
Update method            Update   .... BFGS
Choice of coordinates    CoordSys .... Z-matrix Internals
Initial Hessian          InHess   .... Almoef's Model

Convergence Tolerances:
Energy Change            TolE     ....  5.0000e-06 Eh
Max. Gradient            TolMAXG  ....  3.0000e-04 Eh/bohr
RMS Gradient             TolRMSG  ....  1.0000e-04 Eh/bohr
Max. Displacement        TolMAXD  ....  4.0000e-03 bohr
RMS Displacement         TolRMSD  ....  2.0000e-03 bohr
Strict Convergence                ....  False
------------------------------------------------------------------------------
                        ORCA OPTIMIZATION COORDINATE SETUP
------------------------------------------------------------------------------

The optimization will be done in new redundant internal coordinates
Making redundant internal coordinates   ...  (new redundants) done
Evaluating the initial hessian          ...  (Almloef) done
Evaluating the coordinates              ...  done
Calculating the B-matrix                .... done
Calculating the G-matrix                .... done
Diagonalizing the G-matrix              .... done
Imposing constraints:
 Iter   0:  RMS(Cart)=    0.0241009869 RMS(Int)=    0.0025068170
 Iter   1:  RMS(Cart)=    0.0010162069 RMS(Int)=    0.0001177493
 Iter   2:  RMS(Cart)=    0.0000468225 RMS(Int)=    0.0000053548
 Iter   3:  RMS(Cart)=    0.0000020812 RMS(Int)=    0.0000002353
 Iter   4:  RMS(Cart)=    0.0000000896 RMS(Int)=    0.0000000100
CONVERGED
Small eigenvalue found = 1.238e-02
Small eigenvalue found = 1.590e-02
Small eigenvalue found = 2.250e-02
Small eigenvalue found = 2.333e-02
Small eigenvalue found = 2.891e-02
The first mode is                       ....  227
The number of degrees of freedom        ....  111
Storing new coordinates                 .... done

    -----------------------------------------------------------------
                    Redundant Internal Coordinates


    -----------------------------------------------------------------
         Definition                    Initial Value    Approx d2E/dq
    -----------------------------------------------------------------
      1. B(C   1,Ir  0)                  2.1603         0.085860   
      2. B(C   2,C   1)                  1.4420         0.516267   
      3. B(C   2,Ir  0)                  2.1207         0.099292   
      4. B(C   3,Ir  0)                  2.1650         0.084390   
      5. B(C   4,Ir  0)                  2.1671         0.083731   
      6. B(C   4,C   3)                  1.4457         0.509268   
      7. B(C   4,C   1)                  1.4066         0.588043   
      8. B(C   5,Ir  0)                  2.1663         0.083985   
      9. B(C   5,C   2)                  1.4341         0.531432   
     10. B(C   5,C   3)                  1.4067         0.587796   
     11. B(N   6,Ir  0)                  2.1032         0.094677   
     12. B(C   7,N   6)                  1.4708         0.415816   
     13. B(C   8,C   7)                  1.5201         0.387409   
     14. B(H   9,C   8)                  1.0892         0.361227   
     15. B(H  10,C   8)                  1.0913         0.358452   
     16. B(H  11,C   8)                  1.0904         0.359511   
     17. B(C  12,C   7)                  1.5239         0.382104   
     18. B(H  13,C   7)                  1.0911         0.358597   
     19. B(H  14,C  12)                  1.0889         0.361525   
     20. B(H  15,C  12)                  1.0908         0.359059   
     21. B(H  16,C  12)                  1.0891         0.361311   
     22. B(C  17,N   6)                  1.2747         0.849688   
     23. B(C  18,C  17)                  1.4459         0.507091   
     24. B(H  19,C  17)                  1.0861         0.365278   
     25. B(C  20,C  18)                  1.3918         0.620582   
     26. B(C  20,Ir  0)                  2.3857         0.032042 C 
     27. B(C  21,C  20)                  1.4260         0.547746   
     28. B(S  22,C  18)                  1.7035         0.532404   
     29. B(C  23,C  21)                  1.3590         0.700727   
     30. B(C  23,S  22)                  1.7186         0.504182   
     31. B(H  24,C  20)                  1.1701         0.268180   
     32. B(H  25,C  21)                  1.0804         0.373167   
     33. B(H  26,C  23)                  1.0796         0.374244   
     34. B(H  27,C   1)                  1.0806         0.372800   
     35. B(H  28,C   2)                  1.0801         0.373533   
     36. B(H  29,C   5)                  1.0806         0.372794   
     37. B(O  30,H  24)                  1.4714         0.075374 C 
     38. B(O  31,Ir  0)                  2.0338         0.122441   
     39. B(C  32,O  30)                  1.2272         1.017809   
     40. B(C  32,O  31)                  1.2930         0.799269   
     41. B(C  33,C  32)                  1.5038         0.411385   
     42. B(H  34,C  33)                  1.0866         0.364670   
     43. B(H  35,C  33)                  1.0918         0.357788   
     44. B(H  36,C  33)                  1.0881         0.362641   
     45. B(H  37,C   3)                  1.0798         0.373879   
     46. B(H  38,C   4)                  1.0802         0.373327   
     47. A(C   2,Ir  0,O  31)          104.4835         0.265227   
     48. A(C   1,Ir  0,O  31)          142.3340         0.259523   
     49. A(C   5,Ir  0,N   6)          152.5295         0.249080   
     50. A(C   1,Ir  0,C   3)           64.4210         0.246877   
     51. A(C   1,Ir  0,C   5)           64.6885         0.246705   
     52. A(C   3,Ir  0,O  31)          117.1568         0.258858   
     53. A(C   3,Ir  0,N   6)          157.7021         0.249254   
     54. A(C   2,Ir  0,C   5)           39.0681         0.251979   
     55. A(C   3,Ir  0,C   4)           38.9885         0.245982   
     56. A(C   2,Ir  0,C   4)           65.1646         0.251868   
     57. A(C   5,Ir  0,O  31)           93.4963         0.258674   
     58. A(C   4,Ir  0,N   6)          119.2053         0.248970   
     59. A(C   1,Ir  0,C   2)           39.3543         0.252796   
     60. A(C   4,Ir  0,C   5)           64.4145         0.245811   
     61. A(C   4,Ir  0,O  31)          155.8230         0.258557   
     62. A(C   1,Ir  0,N   6)          100.7241         0.249881   
     63. A(C   2,Ir  0,C   3)           65.0213         0.252157   
     64. A(C   2,Ir  0,N   6)          114.9329         0.255262   
     65. A(C   1,Ir  0,C   4)           37.9353         0.246596   
     66. A(N   6,Ir  0,O  31)           84.8900         0.262091   
     67. A(C   3,Ir  0,C   5)           37.9025         0.246090   
     68. A(Ir  0,C   1,H  27)          123.9167         0.269267   
     69. A(C   2,C   1,C   4)          108.3272         0.416117   
     70. A(Ir  0,C   1,C   4)           71.2961         0.320077   
     71. A(C   4,C   1,H  27)          125.7975         0.351820   
     72. A(Ir  0,C   1,C   2)           68.8435         0.313368   
     73. A(C   2,C   1,H  27)          125.8396         0.344190   
     74. A(C   5,C   2,H  28)          125.8693         0.345982   
     75. A(Ir  0,C   2,C   5)           72.1829         0.322396   
     76. A(C   1,C   2,C   5)          107.1879         0.408707   
     77. A(Ir  0,C   2,C   1)           71.8023         0.320872   
     78. A(Ir  0,C   2,H  28)          126.3496         0.275380   
     79. A(C   1,C   2,H  28)          126.6269         0.344303   
     80. A(Ir  0,C   3,H  37)          124.4810         0.268682   
     81. A(C   4,C   3,C   5)          108.1331         0.415077   
     82. A(C   4,C   3,H  37)          125.9123         0.343569   
     83. A(Ir  0,C   3,C   4)           70.5845         0.311804   
     84. A(Ir  0,C   3,C   5)           71.0994         0.319154   
     85. A(C   5,C   3,H  37)          125.9518         0.351968   
     86. A(Ir  0,C   4,C   1)           70.7686         0.318767   
     87. A(Ir  0,C   4,H  38)          124.9065         0.268303   
     88. A(C   1,C   4,H  38)          126.2576         0.351905   
     89. A(C   3,C   4,H  38)          125.8831         0.343484   
     90. A(Ir  0,C   4,C   3)           70.4270         0.311408   
     91. A(C   1,C   4,C   3)          107.8553         0.415108   
     92. A(Ir  0,C   5,H  29)          122.0459         0.268368   
     93. A(C   3,C   5,H  29)          125.9142         0.351795   
     94. A(C   2,C   5,H  29)          125.5153         0.345867   
     95. A(Ir  0,C   5,C   3)           70.9980         0.318904   
     96. A(C   2,C   5,C   3)          108.3732         0.418236   
     97. A(Ir  0,C   5,C   2)           68.7490         0.313717   
     98. A(Ir  0,N   6,C  17)          112.8347         0.341836   
     99. A(C   7,N   6,C  17)          122.9827         0.421994   
    100. A(Ir  0,N   6,C   7)          124.1713         0.304077   
    101. A(N   6,C   7,C   8)          113.5443         0.370076   
    102. A(N   6,C   7,C  12)          109.5180         0.369200   
    103. A(C   8,C   7,C  12)          111.7245         0.367036   
    104. A(N   6,C   7,H  13)          104.6345         0.327884   
    105. A(C   8,C   7,H  13)          108.4660         0.326039   
    106. A(C  12,C   7,H  13)          108.6071         0.325300   
    107. A(C   7,C   8,H  11)          112.0489         0.326176   
    108. A(H   9,C   8,H  11)          107.2619         0.290907   
    109. A(H  10,C   8,H  11)          108.8981         0.290555   
    110. A(C   7,C   8,H   9)          108.8382         0.326431   
    111. A(C   7,C   8,H  10)          112.9946         0.326017   
    112. A(H   9,C   8,H  10)          106.4940         0.290773   
    113. A(C   7,C  12,H  14)          109.5620         0.325736   
    114. A(C   7,C  12,H  15)          111.3200         0.325369   
    115. A(H  14,C  12,H  15)          107.7796         0.290888   
    116. A(C   7,C  12,H  16)          112.0994         0.325704   
    117. A(H  14,C  12,H  16)          107.2639         0.291173   
    118. A(H  15,C  12,H  16)          108.6417         0.290861   
    119. A(N   6,C  17,C  18)          114.9896         0.440181   
    120. A(N   6,C  17,H  19)          122.9056         0.370999   
    121. A(C  18,C  17,H  19)          122.0620         0.341986   
    122. A(C  17,C  18,C  20)          120.8053         0.418787   
    123. A(C  17,C  18,S  22)          126.0009         0.429907   
    124. A(C  20,C  18,S  22)          113.0496         0.445852   
    125. A(C  18,C  20,C  21)          110.3427         0.424594   
    126. A(C  18,C  20,H  24)          119.9128         0.335931   
    127. A(C  21,C  20,H  24)          123.7730         0.329051   
    128. A(C  20,C  21,H  25)          123.6922         0.347689   
    129. A(C  23,C  21,H  25)          123.1210         0.362520   
    130. A(C  20,C  21,C  23)          113.0998         0.433948   
    131. A(C  18,S  22,C  23)           91.1311         0.453365   
    132. A(C  21,C  23,H  26)          128.0052         0.362699   
    133. A(S  22,C  23,H  26)          119.5989         0.360883   
    134. A(C  21,C  23,S  22)          112.3728         0.451305   
    135. A(Ir  0,O  31,C  32)          127.1008         0.353304   
    136. A(O  30,C  32,O  31)          124.5346         0.491175   
    137. A(O  30,C  32,C  33)          121.1091         0.437914   
    138. A(O  31,C  32,C  33)          114.3395         0.419338   
    139. A(C  32,C  33,H  34)          110.6838         0.330198   
    140. A(C  32,C  33,H  35)          109.0652         0.329160   
    141. A(H  34,C  33,H  35)          107.8412         0.291122   
    142. A(C  32,C  33,H  36)          111.8523         0.329893   
    143. A(H  34,C  33,H  36)          110.0486         0.291739   
    144. A(H  35,C  33,H  36)          107.2003         0.290866   
    145. D(C   2,C   1,Ir  0,C   4)    119.1430         0.001703   
    146. D(C   2,C   1,Ir  0,C   5)     38.9493         0.001703   
    147. D(H  27,C   1,Ir  0,O  31)     98.8580         0.001703   
    148. D(C   4,C   1,Ir  0,C   2)   -119.1430         0.001703   
    149. D(C   2,C   1,Ir  0,O  31)    -20.9006         0.001703   
    150. D(H  27,C   1,Ir  0,C   3)   -159.1355         0.001703   
    151. D(C   4,C   1,Ir  0,O  31)   -140.0436         0.001703   
    152. D(H  27,C   1,Ir  0,C   2)    119.7586         0.001703   
    153. D(C   4,C   1,Ir  0,C   3)    -38.0371         0.001703   
    154. D(H  27,C   1,Ir  0,N   6)      3.2923         0.001703   
    155. D(C   2,C   1,Ir  0,C   3)     81.1059         0.001703   
    156. D(C   4,C   1,Ir  0,N   6)    124.3906         0.001703   
    157. D(H  27,C   1,Ir  0,C   4)   -121.0984         0.001703   
    158. D(H  27,C   1,Ir  0,C   5)    158.7079         0.001703   
    159. D(C   4,C   1,Ir  0,C   5)    -80.1937         0.001703   
    160. D(C   2,C   1,Ir  0,N   6)   -116.4664         0.001703   
    161. D(Ir  0,C   2,C   1,H  27)   -117.2929         0.021142   
    162. D(C   1,C   2,Ir  0,C   5)   -115.6194         0.001770   
    163. D(C   1,C   2,Ir  0,C   4)    -36.2751         0.001770   
    164. D(H  28,C   2,C   1,H  27)      4.9186         0.021142   
    165. D(H  28,C   2,C   1,Ir  0)    122.2115         0.021142   
    166. D(C   5,C   2,C   1,H  27)    178.7365         0.021142   
    167. D(C   1,C   2,Ir  0,C   3)    -79.4512         0.001770   
    168. D(H  28,C   2,Ir  0,C   4)   -158.8102         0.001770   
    169. D(H  28,C   2,Ir  0,C   5)    121.8456         0.001770   
    170. D(C   5,C   2,Ir  0,C   3)     36.1682         0.001770   
    171. D(C   5,C   2,Ir  0,C   1)    115.6194         0.001770   
    172. D(H  28,C   2,C   1,C   4)   -177.1567         0.021142   
    173. D(C   5,C   2,Ir  0,C   4)     79.3442         0.001770   
    174. D(C   5,C   2,C   1,Ir  0)    -63.9707         0.021142   
    175. D(H  28,C   2,Ir  0,N   6)    -46.6146         0.001770   
    176. D(H  28,C   2,Ir  0,O  31)     44.4533         0.001770   
    177. D(Ir  0,C   2,C   1,C   4)     60.6318         0.021142   
    178. D(C   5,C   2,C   1,C   4)     -3.3388         0.021142   
    179. D(C   1,C   2,Ir  0,N   6)     75.9204         0.001770   
    180. D(C   5,C   2,Ir  0,O  31)    -77.3923         0.001770   
    181. D(H  28,C   2,Ir  0,C   1)   -122.5350         0.001770   
    182. D(C   1,C   2,Ir  0,O  31)    166.9884         0.001770   
    183. D(H  28,C   2,Ir  0,C   3)    158.0138         0.001770   
    184. D(C   5,C   2,Ir  0,N   6)   -168.4602         0.001770   
    185. D(C   4,C   3,Ir  0,C   5)    118.0002         0.001696   
    186. D(C   4,C   3,Ir  0,C   1)     37.0187         0.001696   
    187. D(C   4,C   3,Ir  0,O  31)    174.8170         0.001696   
    188. D(C   4,C   3,Ir  0,C   2)     80.7387         0.001696   
    189. D(C   5,C   3,Ir  0,O  31)     56.8168         0.001696   
    190. D(C   5,C   3,Ir  0,C   2)    -37.2615         0.001696   
    191. D(C   4,C   3,Ir  0,N   6)    -14.4077         0.001696   
    192. D(H  37,C   3,Ir  0,C   4)    120.8234         0.001696   
    193. D(H  37,C   3,Ir  0,C   1)    157.8421         0.001696   
    194. D(C   5,C   3,Ir  0,C   1)    -80.9815         0.001696   
    195. D(C   5,C   3,Ir  0,C   4)   -118.0002         0.001696   
    196. D(C   5,C   3,Ir  0,N   6)   -132.4079         0.001696   
    197. D(H  37,C   3,Ir  0,C   5)   -121.1764         0.001696   
    198. D(H  37,C   3,Ir  0,N   6)    106.4157         0.001696   
    199. D(H  37,C   3,Ir  0,O  31)    -64.3596         0.001696   
    200. D(H  37,C   3,Ir  0,C   2)   -158.4379         0.001696   
    201. D(C   1,C   4,Ir  0,C   3)    117.9491         0.001693   
    202. D(H  38,C   4,C   3,H  37)      0.4258         0.020556   
    203. D(C   1,C   4,Ir  0,C   5)     80.9801         0.001693   
    204. D(C   1,C   4,Ir  0,N   6)    -68.2600         0.001693   
    205. D(C   1,C   4,Ir  0,O  31)    106.6308         0.001693   
    206. D(C   1,C   4,Ir  0,C   2)     37.6097         0.001693   
    207. D(C   3,C   4,Ir  0,C   1)   -117.9491         0.001693   
    208. D(H  38,C   4,C   3,C   5)   -178.9818         0.020556   
    209. D(C   3,C   4,Ir  0,C   5)    -36.9689         0.001693   
    210. D(C   3,C   4,Ir  0,N   6)    173.7909         0.001693   
    211. D(C   3,C   4,Ir  0,O  31)    -11.3182         0.001693   
    212. D(Ir  0,C   4,C   1,C   2)    -59.0997         0.027760   
    213. D(H  38,C   4,Ir  0,C   2)    158.9664         0.001693   
    214. D(H  38,C   4,Ir  0,C   3)   -120.6942         0.001693   
    215. D(H  38,C   4,C   1,C   2)   -178.8178         0.027760   
    216. D(H  38,C   4,Ir  0,N   6)     53.0967         0.001693   
    217. D(H  38,C   4,Ir  0,O  31)   -132.0124         0.001693   
    218. D(Ir  0,C   4,C   1,H  27)    118.8262         0.027760   
    219. D(C   3,C   4,C   1,Ir  0)     60.9786         0.027760   
    220. D(C   3,C   4,C   1,H  27)    179.8047         0.027760   
    221. D(H  38,C   4,C   1,Ir  0)   -119.7182         0.027760   
    222. D(H  38,C   4,Ir  0,C   5)   -157.6632         0.001693   
    223. D(H  38,C   4,C   1,H  27)     -0.8920         0.027760   
    224. D(Ir  0,C   4,C   3,C   5)     61.5212         0.020556   
    225. D(Ir  0,C   4,C   3,H  37)   -119.0712         0.020556   
    226. D(C   3,C   4,C   1,C   2)      1.8789         0.027760   
    227. D(C   1,C   4,C   3,C   5)      0.3248         0.020556   
    228. D(C   1,C   4,C   3,H  37)    179.7324         0.020556   
    229. D(H  38,C   4,C   3,Ir  0)    119.4970         0.020556   
    230. D(H  38,C   4,Ir  0,C   1)    121.3567         0.001693   
    231. D(C   1,C   4,C   3,Ir  0)    -61.1964         0.020556   
    232. D(C   3,C   4,Ir  0,C   2)    -80.3394         0.001693   
    233. D(C   2,C   5,Ir  0,C   1)    -39.2343         0.001694   
    234. D(H  29,C   5,C   3,C   4)   -177.5206         0.027736   
    235. D(C   2,C   5,Ir  0,C   4)    -81.4287         0.001694   
    236. D(C   2,C   5,Ir  0,N   6)     23.1571         0.001694   
    237. D(C   2,C   5,Ir  0,O  31)    108.8025         0.001694   
    238. D(C   3,C   5,Ir  0,C   1)     80.2127         0.001694   
    239. D(C   3,C   5,Ir  0,C   2)    119.4470         0.001694   
    240. D(C   3,C   5,Ir  0,C   4)     38.0183         0.001694   
    241. D(H  29,C   5,C   2,C   1)    178.6719         0.022448   
    242. D(C   3,C   5,Ir  0,O  31)   -131.7505         0.001694   
    243. D(H  29,C   5,Ir  0,C   1)   -158.7005         0.001694   
    244. D(C   3,C   5,C   2,Ir  0)    -60.1791         0.022448   
    245. D(H  29,C   5,Ir  0,C   3)    121.0868         0.001694   
    246. D(H  29,C   5,Ir  0,C   4)    159.1051         0.001694   
    247. D(H  29,C   5,Ir  0,N   6)    -96.3091         0.001694   
    248. D(H  29,C   5,Ir  0,O  31)    -10.6637         0.001694   
    249. D(Ir  0,C   5,C   2,C   1)     63.7187         0.022448   
    250. D(H  29,C   5,Ir  0,C   2)   -119.4662         0.001694   
    251. D(Ir  0,C   5,C   2,H  28)   -122.4036         0.022448   
    252. D(C   3,C   5,C   2,C   1)      3.5396         0.022448   
    253. D(C   3,C   5,C   2,H  28)    177.4173         0.022448   
    254. D(C   3,C   5,Ir  0,N   6)    142.6041         0.001694   
    255. D(H  29,C   5,C   2,Ir  0)    114.9532         0.022448   
    256. D(H  29,C   5,C   2,H  28)     -7.4504         0.022448   
    257. D(Ir  0,C   5,C   3,C   4)    -61.1937         0.027736   
    258. D(Ir  0,C   5,C   3,H  37)    119.3991         0.027736   
    259. D(C   2,C   5,C   3,Ir  0)     58.7809         0.027736   
    260. D(C   2,C   5,C   3,C   4)     -2.4127         0.027736   
    261. D(C   2,C   5,C   3,H  37)    178.1800         0.027736   
    262. D(C   2,C   5,Ir  0,C   3)   -119.4470         0.001694   
    263. D(H  29,C   5,C   3,Ir  0)   -116.3269         0.027736   
    264. D(H  29,C   5,C   3,H  37)      3.0722         0.027736   
    265. D(C  17,N   6,Ir  0,C   1)    -95.0597         0.001765   
    266. D(C   7,N   6,Ir  0,C   2)     44.9908         0.001765   
    267. D(C   7,N   6,Ir  0,C   3)    129.6127         0.001765   
    268. D(C   7,N   6,Ir  0,C   4)    119.2809         0.001765   
    269. D(C   7,N   6,Ir  0,C   5)     29.1290         0.001765   
    270. D(C   7,N   6,Ir  0,C   1)     83.7462         0.001765   
    271. D(C   7,N   6,Ir  0,O  31)    -58.6206         0.001765   
    272. D(C  17,N   6,Ir  0,C   2)   -133.8152         0.001765   
    273. D(C  17,N   6,Ir  0,C   3)    -49.1933         0.001765   
    274. D(C  17,N   6,Ir  0,C   4)    -59.5251         0.001765   
    275. D(C  17,N   6,Ir  0,C   5)   -149.6770         0.001765   
    276. D(C  17,N   6,Ir  0,O  31)    122.5735         0.001765   
    277. D(C   8,C   7,N   6,Ir  0)    158.0529         0.014746   
    278. D(C   8,C   7,N   6,C  17)    -23.2591         0.014746   
    279. D(C  12,C   7,N   6,Ir  0)    -76.2976         0.014746   
    280. D(C  12,C   7,N   6,C  17)    102.3905         0.014746   
    281. D(H  13,C   7,N   6,Ir  0)     39.9621         0.014746   
    282. D(H  13,C   7,N   6,C  17)   -141.3498         0.014746   
    283. D(H   9,C   8,C   7,N   6)   -170.4254         0.011939   
    284. D(H   9,C   8,C   7,C  12)     65.1084         0.011939   
    285. D(H   9,C   8,C   7,H  13)    -54.5726         0.011939   
    286. D(H  10,C   8,C   7,N   6)     71.4976         0.011939   
    287. D(H  10,C   8,C   7,C  12)    -52.9686         0.011939   
    288. D(H  10,C   8,C   7,H  13)   -172.6496         0.011939   
    289. D(H  11,C   8,C   7,N   6)    -51.9712         0.011939   
    290. D(H  11,C   8,C   7,C  12)   -176.4373         0.011939   
    291. D(H  11,C   8,C   7,H  13)     63.8817         0.011939   
    292. D(H  14,C  12,C   7,N   6)    176.5497         0.011630   
    293. D(H  14,C  12,C   7,C   8)    -56.7627         0.011630   
    294. D(H  14,C  12,C   7,H  13)     62.8351         0.011630   
    295. D(H  15,C  12,C   7,N   6)    -64.3362         0.011630   
    296. D(H  15,C  12,C   7,C   8)     62.3513         0.011630   
    297. D(H  15,C  12,C   7,H  13)   -178.0508         0.011630   
    298. D(H  16,C  12,C   7,N   6)     57.5891         0.011630   
    299. D(H  16,C  12,C   7,C   8)   -175.7234         0.011630   
    300. D(H  16,C  12,C   7,H  13)    -56.1255         0.011630   
    301. D(C  18,C  17,N   6,Ir  0)     -8.0857         0.062502   
    302. D(C  18,C  17,N   6,C   7)    173.0920         0.062502   
    303. D(H  19,C  17,N   6,Ir  0)    174.2500         0.062502   
    304. D(H  19,C  17,N   6,C   7)     -4.5723         0.062502   
    305. D(C  20,C  18,C  17,N   6)    -36.2716         0.017521   
    306. D(C  20,C  18,C  17,H  19)    141.4145         0.017521   
    307. D(S  22,C  18,C  17,N   6)    139.0504         0.017521   
    308. D(S  22,C  18,C  17,H  19)    -43.2635         0.017521   
    309. D(C  21,C  20,C  18,C  17)    175.2196         0.028962   
    310. D(C  21,C  20,C  18,S  22)     -0.6686         0.028962   
    311. D(H  24,C  20,C  18,C  17)    -30.9742         0.028962   
    312. D(H  24,C  20,C  18,S  22)    153.1376         0.028962   
    313. D(C  23,C  21,C  20,C  18)      0.4198         0.022266   
    314. D(C  23,C  21,C  20,H  24)   -152.1750         0.022266   
    315. D(H  25,C  21,C  20,C  18)    177.1176         0.022266   
    316. D(H  25,C  21,C  20,H  24)     24.5228         0.022266   
    317. D(C  23,S  22,C  18,C  17)   -175.0557         0.005728   
    318. D(C  23,S  22,C  18,C  20)      0.5784         0.005728   
    319. D(S  22,C  23,C  21,C  20)      0.0055         0.034589   
    320. D(S  22,C  23,C  21,H  25)   -176.7139         0.034589   
    321. D(H  26,C  23,C  21,C  20)    178.2292         0.034589   
    322. D(H  26,C  23,C  21,H  25)      1.5098         0.034589   
    323. D(C  21,C  23,S  22,C  18)     -0.3290         0.005271   
    324. D(H  26,C  23,S  22,C  18)   -178.7194         0.005271   
    325. D(C  32,O  31,Ir  0,C   1)   -174.8700         0.001920   
    326. D(C  32,O  31,Ir  0,C   2)    171.6183         0.001920   
    327. D(C  32,O  31,Ir  0,C   3)    102.5756         0.001920   
    328. D(C  32,O  31,Ir  0,C   4)    110.5527         0.001920   
    329. D(C  32,O  31,Ir  0,C   5)    133.5796         0.001920   
    330. D(C  32,O  31,Ir  0,N   6)    -73.9234         0.001920   
    331. D(O  30,C  32,O  31,Ir  0)      3.2908         0.049225   
    332. D(C  33,C  32,O  31,Ir  0)   -175.2268         0.049225   
    333. D(H  34,C  33,C  32,O  30)     22.2172         0.012531   
    334. D(H  34,C  33,C  32,O  31)   -159.2091         0.012531   
    335. D(H  35,C  33,C  32,O  30)    -96.2708         0.012531   
    336. D(H  35,C  33,C  32,O  31)     82.3028         0.012531   
    337. D(H  36,C  33,C  32,O  30)    145.3246         0.012531   
    338. D(H  36,C  33,C  32,O  31)    -36.1017         0.012531   
    -----------------------------------------------------------------

Number of atoms                         .... 39
Number of degrees of freedom            .... 338

         *************************************************************
         *                GEOMETRY OPTIMIZATION CYCLE   1            *
         *************************************************************
---------------------------------
CARTESIAN COORDINATES (ANGSTROEM)
---------------------------------
  Ir     0.602223   -0.708567    0.421129
  C      0.054223   -2.795933    0.324681
  C      0.137503   -2.342320    1.690907
  C      2.219064   -2.114727    0.730555
  C      1.316919   -2.633008   -0.273185
  C      1.502046   -1.973154    1.932434
  N     -1.053269    0.174979   -0.528751
  C     -2.317885    0.499993    0.148374
  C     -3.130640    1.569132   -0.563732
  H     -3.955246    1.871343    0.080432
  H     -3.577878    1.215507   -1.494193
  H     -2.539529    2.461314   -0.772719
  C     -3.125022   -0.775278    0.358979
  H     -2.017097    0.886659    1.123364
  H     -4.032896   -0.544642    0.914261
  H     -3.420316   -1.219410   -0.592531
  H     -2.574405   -1.518400    0.934048
  C     -0.858357    0.381839   -1.771336
  C      0.493982    0.145486   -2.225159
  H     -1.634754    0.746243   -2.437745
  C      1.582229    0.456943   -1.415392
  C      2.796290    0.034095   -2.032337
  S      0.942801   -0.613269   -3.682830
  C      2.603141   -0.551644   -3.243334
  H      1.512089    1.348928   -0.661296
  H      3.775482    0.209542   -1.610895
  H      3.349445   -0.932512   -3.924134
  H     -0.835070   -3.163764   -0.166760
  H     -0.649520   -2.375103    2.429852
  H      1.889622   -1.573002    2.858352
  O      1.293634    2.486695    0.245824
  O      0.539990    0.917525    1.641035
  C      0.901176    2.124667    1.350727
  C      0.839170    3.084981    2.506269
  H      0.791541    4.110656    2.150774
  H      1.745593    2.980512    3.105818
  H     -0.005100    2.877378    3.160558
  H      3.264317   -1.886049    0.585230
  H      1.573874   -2.864445   -1.296535

----------------------------
CARTESIAN COORDINATES (A.U.)
----------------------------
  NO LB      ZA    FRAG     MASS         X           Y           Z
   0 Ir   17.0000*   0   192.220    1.138037   -1.338998    0.795818
   1 C     6.0000    0    12.011    0.102466   -5.283548    0.613559
   2 C     6.0000    0    12.011    0.259844   -4.426343    3.195350
   3 C     6.0000    0    12.011    4.193423   -3.996254    1.380548
   4 C     6.0000    0    12.011    2.488617   -4.975664   -0.516244
   5 C     6.0000    0    12.011    2.838456   -3.728721    3.651771
   6 N     7.0000    0    14.007   -1.990390    0.330662   -0.999195
   7 C     6.0000    0    12.011   -4.380167    0.944851    0.280385
   8 C     6.0000    0    12.011   -5.916052    2.965229   -1.065299
   9 H     1.0000    0     1.008   -7.474332    3.536326    0.151994
  10 H     1.0000    0     1.008   -6.761209    2.296976   -2.823616
  11 H     1.0000    0     1.008   -4.799014    4.651209   -1.460228
  12 C     6.0000    0    12.011   -5.905436   -1.465062    0.678372
  13 H     1.0000    0     1.008   -3.811761    1.675543    2.122851
  14 H     1.0000    0     1.008   -7.621070   -1.029225    1.727703
  15 H     1.0000    0     1.008   -6.463461   -2.304352   -1.119722
  16 H     1.0000    0     1.008   -4.864921   -2.869361    1.765096
  17 C     6.0000    0    12.011   -1.622060    0.721570   -3.347340
  18 C     6.0000    0    12.011    0.933491    0.274928   -4.204940
  19 H     1.0000    0     1.008   -3.089238    1.410195   -4.606671
  20 C     6.0000    0    12.011    2.989979    0.863498   -2.674703
  21 C     6.0000    0    12.011    5.284222    0.064431   -3.840560
  22 S    16.0000    0    32.060    1.781635   -1.158910   -6.959540
  23 C     6.0000    0    12.011    4.919224   -1.042456   -6.129013
  24 H     1.0000    0     1.008    2.857434    2.549105   -1.249668
  25 H     1.0000    0     1.008    7.134626    0.395978   -3.044150
  26 H     1.0000    0     1.008    6.329533   -1.762192   -7.415538
  27 H     1.0000    0     1.008   -1.578054   -5.978647   -0.315131
  28 H     1.0000    0     1.008   -1.227414   -4.488293    4.591754
  29 H     1.0000    0     1.008    3.570868   -2.972543    5.401503
  30 O     8.0000    0    15.999    2.444613    4.699172    0.464540
  31 O     8.0000    0    15.999    1.020434    1.733870    3.101106
  32 C     6.0000    0    12.011    1.702976    4.015039    2.552505
  33 C     6.0000    0    12.011    1.585801    5.829769    4.736162
  34 H     1.0000    0     1.008    1.495796    7.768015    4.064373
  35 H     1.0000    0     1.008    3.298693    5.632351    5.869146
  36 H     1.0000    0     1.008   -0.009638    5.437457    5.972589
  37 H     1.0000    0     1.008    6.168666   -3.564117    1.105924
  38 H     1.0000    0     1.008    2.974191   -5.413017   -2.450095
* core charge reduced due to ECP

--------------------------------
INTERNAL COORDINATES (ANGSTROEM)
--------------------------------
 Ir     0   0   0     0.000000000000     0.00000000     0.00000000
 C      1   0   0     2.160259484153     0.00000000     0.00000000
 C      2   1   0     1.441938082729    68.84262896     0.00000000
 C      1   2   3     2.164957573610    64.42001666    81.10605941
 C      2   1   3     1.406503030798    71.29634247   240.85684807
 C      4   1   2     1.406617385232    71.09931662   279.01827150
 N      1   2   3     2.103649606403   100.72467097   243.53306533
 C      7   1   2     1.470839616936   123.93734069    83.72753255
 C      8   7   1     1.520101762270   113.54436408   158.06468109
 H      9   8   7     1.089149130761   108.83827059   189.57460017
 H      9   8   7     1.091248462347   112.99439636    71.49756926
 H      9   8   7     1.090445944905   112.04906819   308.02872831
 C      8   7   1     1.523854821571   109.51776229   283.71429345
 H      8   7   1     1.091138824178   104.63456455    39.97411826
 H     13   8   7     1.088925163954   109.56180463   176.54973217
 H     13   8   7     1.090787870401   111.32009906   295.66381298
 H     13   8   7     1.089085960216   112.09955376    57.58903820
 C      7   1   2     1.276310655643   113.29846311   264.95018105
 C     18   7   1     1.446819801364   115.51427150   351.80740292
 H     18   7   1     1.086113903299   122.64841322   174.14106433
 C     19  18   7     1.391842289930   120.99615630   323.59473670
 C     21  19  18     1.425826608543   110.37517703   175.25079217
 S     19  18   7     1.703560169246   125.86783571   138.99441528
 C     22  21  19     1.358779364076   113.09848677     0.43672555
 H     21  19  18     1.170226901062   119.90218424   329.06420098
 H     22  21  19     1.080297447003   123.69160490   177.12802892
 H     24  22  21     1.079512924290   128.01111598   178.22205607
 H      2   1   3     1.080565428382   123.91738455   119.75878973
 H      3   2   1     1.080030568673   126.62657853   122.21184094
 H      6   4   1     1.080569487809   125.91413996   243.67430225
 O     25  21  19     1.485714296478   174.13919975    16.49632128
 O      1   2   3     2.033647528901   142.33689478   339.09824439
 C     31  25  21     1.227166393561   113.64984392    76.15115116
 C     33  31  25     1.503756099040   121.11693731   169.54762517
 H     34  33  31     1.086567043148   110.68490661    22.21764072
 H     34  33  31     1.091753264922   109.06567736   263.72996340
 H     34  33  31     1.088085697115   111.85134170   145.32550628
 H      4   1   2     1.079778092846   124.48014278   157.84217111
 H      5   2   1     1.080180340563   126.25666693   240.28093255

---------------------------
INTERNAL COORDINATES (A.U.)
---------------------------
 Ir     0   0   0     0.000000000000     0.00000000     0.00000000
 C      1   0   0     4.082298803255     0.00000000     0.00000000
 C      2   1   0     2.724868078429    68.84262896     0.00000000
 C      1   2   3     4.091176905681    64.42001666    81.10605941
 C      2   1   3     2.657905534739    71.29634247   240.85684807
 C      4   1   2     2.658121633302    71.09931662   279.01827150
 N      1   2   3     3.975321637832   100.72467097   243.53306533
 C      7   1   2     2.779484062931   123.93734069    83.72753255
 C      8   7   1     2.872576026382   113.54436408   158.06468109
 H      9   8   7     2.058193576137   108.83827059   189.57460017
 H      9   8   7     2.062160737898   112.99439636    71.49756926
 H      9   8   7     2.060644199715   112.04906819   308.02872831
 C      8   7   1     2.879668280625   109.51776229   283.71429345
 H      8   7   1     2.061953551785   104.63456455    39.97411826
 H     13   8   7     2.057770340209   109.56180463   176.54973217
 H     13   8   7     2.061290345260   111.32009906   295.66381298
 H     13   8   7     2.058074201106   112.09955376    57.58903820
 C      7   1   2     2.411877600971   113.29846311   264.95018105
 C     18   7   1     2.734093189713   115.51427150   351.80740292
 H     18   7   1     2.052457827480   122.64841322   174.14106433
 C     19  18   7     2.630200749578   120.99615630   323.59473670
 C     21  19  18     2.694421804604   110.37517703   175.25079217
 S     19  18   7     3.219262172531   125.86783571   138.99441528
 C     22  21  19     2.567720874526   113.09848677     0.43672555
 H     21  19  18     2.211408357555   119.90218424   329.06420098
 H     22  21  19     2.041466318010   123.69160490   177.12802892
 H     24  22  21     2.039983784936   128.01111598   178.22205607
 H      2   1   3     2.041972729425   123.91738455   119.75878973
 H      3   2   1     2.040961991054   126.62657853   122.21184094
 H      6   4   1     2.041980400631   125.91413996   243.67430225
 O     25  21  19     2.807593133595   174.13919975    16.49632128
 O      1   2   3     3.843036882548   142.33689478   339.09824439
 C     31  25  21     2.319008404582   113.64984392    76.15115116
 C     33  31  25     2.841687199400   121.11693731   169.54762517
 H     34  33  31     2.053314137695   110.68490661    22.21764072
 H     34  33  31     2.063114676517   109.06567736   263.72996340
 H     34  33  31     2.056183977784   111.85134170   145.32550628
 H      4   1   2     2.040484880886   124.48014278   157.84217111
 H      5   2   1     2.041245018909   126.25666693   240.28093255

---------------------
BASIS SET INFORMATION
---------------------
There are 6 groups of distinct atoms

 Group   1 Type Ir  : 7s6p5d1f contracted to 6s3p2d1f pattern {211111/411/41/1}
 Group   2 Type C   : 8s4p1d contracted to 4s2p1d pattern {5111/31/1}
 Group   3 Type N   : 8s4p1d contracted to 4s2p1d pattern {5111/31/1}
 Group   4 Type H   : 4s contracted to 2s pattern {31}
 Group   5 Type S   : 10s7p1d contracted to 4s3p1d pattern {5311/511/1}
 Group   6 Type O   : 8s4p1d contracted to 4s2p1d pattern {5111/31/1}

Atom   0Ir   basis set group =>   1
Atom   1C    basis set group =>   2
Atom   2C    basis set group =>   2
Atom   3C    basis set group =>   2
Atom   4C    basis set group =>   2
Atom   5C    basis set group =>   2
Atom   6N    basis set group =>   3
Atom   7C    basis set group =>   2
Atom   8C    basis set group =>   2
Atom   9H    basis set group =>   4
Atom  10H    basis set group =>   4
Atom  11H    basis set group =>   4
Atom  12C    basis set group =>   2
Atom  13H    basis set group =>   4
Atom  14H    basis set group =>   4
Atom  15H    basis set group =>   4
Atom  16H    basis set group =>   4
Atom  17C    basis set group =>   2
Atom  18C    basis set group =>   2
Atom  19H    basis set group =>   4
Atom  20C    basis set group =>   2
Atom  21C    basis set group =>   2
Atom  22S    basis set group =>   5
Atom  23C    basis set group =>   2
Atom  24H    basis set group =>   4
Atom  25H    basis set group =>   4
Atom  26H    basis set group =>   4
Atom  27H    basis set group =>   4
Atom  28H    basis set group =>   4
Atom  29H    basis set group =>   4
Atom  30O    basis set group =>   6
Atom  31O    basis set group =>   6
Atom  32C    basis set group =>   2
Atom  33C    basis set group =>   2
Atom  34H    basis set group =>   4
Atom  35H    basis set group =>   4
Atom  36H    basis set group =>   4
Atom  37H    basis set group =>   4
Atom  38H    basis set group =>   4
---------------------------------
AUXILIARY/J BASIS SET INFORMATION
---------------------------------
There are 6 groups of distinct atoms

 Group   1 Type Ir  : 11s5p5d3f3g contracted to 8s5p5d2f3g pattern {41111111/11111/11111/21/111}
 Group   2 Type C   : 12s5p4d2f1g contracted to 6s4p3d1f1g pattern {711111/2111/211/2/1}
 Group   3 Type N   : 12s5p4d2f1g contracted to 6s4p3d1f1g pattern {711111/2111/211/2/1}
 Group   4 Type H   : 5s2p1d contracted to 3s1p1d pattern {311/2/1}
 Group   5 Type S   : 14s5p5d2f1g contracted to 8s4p3d1f1g pattern {71111111/2111/311/2/1}
 Group   6 Type O   : 12s5p4d2f1g contracted to 6s4p3d1f1g pattern {711111/2111/211/2/1}

Atom   0Ir   basis set group =>   1
Atom   1C    basis set group =>   2
Atom   2C    basis set group =>   2
Atom   3C    basis set group =>   2
Atom   4C    basis set group =>   2
Atom   5C    basis set group =>   2
Atom   6N    basis set group =>   3
Atom   7C    basis set group =>   2
Atom   8C    basis set group =>   2
Atom   9H    basis set group =>   4
Atom  10H    basis set group =>   4
Atom  11H    basis set group =>   4
Atom  12C    basis set group =>   2
Atom  13H    basis set group =>   4
Atom  14H    basis set group =>   4
Atom  15H    basis set group =>   4
Atom  16H    basis set group =>   4
Atom  17C    basis set group =>   2
Atom  18C    basis set group =>   2
Atom  19H    basis set group =>   4
Atom  20C    basis set group =>   2
Atom  21C    basis set group =>   2
Atom  22S    basis set group =>   5
Atom  23C    basis set group =>   2
Atom  24H    basis set group =>   4
Atom  25H    basis set group =>   4
Atom  26H    basis set group =>   4
Atom  27H    basis set group =>   4
Atom  28H    basis set group =>   4
Atom  29H    basis set group =>   4
Atom  30O    basis set group =>   6
Atom  31O    basis set group =>   6
Atom  32C    basis set group =>   2
Atom  33C    basis set group =>   2
Atom  34H    basis set group =>   4
Atom  35H    basis set group =>   4
Atom  36H    basis set group =>   4
Atom  37H    basis set group =>   4
Atom  38H    basis set group =>   4
-------------------------
ECP PARAMETER INFORMATION
-------------------------

 Group 1, Type Ir ECP Def2-ECP (replacing 60 core electrons, lmax=3)

Atom   0Ir   ECP group =>   1

------------------------------------------------------------------------------
                           ORCA GTO INTEGRAL CALCULATION
                           -- RI-GTO INTEGRALS CHOSEN --
------------------------------------------------------------------------------
------------------------------------------------------------------------------
                   ___                                                        
                  /   \      - P O W E R E D   B Y -                         
                 /     \                                                     
                 |  |  |   _    _      __       _____    __    __             
                 |  |  |  | |  | |    /  \     |  _  \  |  |  /  |          
                  \  \/   | |  | |   /    \    | | | |  |  | /  /          
                 / \  \   | |__| |  /  /\  \   | |_| |  |  |/  /          
                |  |  |   |  __  | /  /__\  \  |    /   |      \           
                |  |  |   | |  | | |   __   |  |    \   |  |\   \          
                \     /   | |  | | |  |  |  |  | |\  \  |  | \   \       
                 \___/    |_|  |_| |__|  |__|  |_| \__\ |__|  \__/        
                                                                              
                      - O R C A' S   B I G   F R I E N D -                    
                                      &                                       
                       - I N T E G R A L  F E E D E R -                       
                                                                              
 v1 FN, 2020, v2 2021                                                         
------------------------------------------------------------------------------


Reading SHARK input file reaction4-IEIP_ts_guess_scan_5-2_orca.SHARKINP.tmp ... ok
----------------------
SHARK INTEGRAL PACKAGE
----------------------

Number of atoms                             ...     39
Number of basis functions                   ...    358
Number of shells                            ...    184
Maximum angular momentum                    ...      3
Integral batch strategy                     ... SHARK/LIBINT Hybrid
RI-J (if used) integral strategy            ... SPLIT-RIJ (Revised 2003 algorithm where possible)
Printlevel                                  ...      1
Contraction scheme used                     ... SEGMENTED contraction
Coulomb Range Separation                    ... NOT USED
Exchange Range Separation                   ... NOT USED
Finite Nucleus Model                        ... NOT USED
Auxiliary Coulomb fitting basis             ... AVAILABLE
   # of basis functions in Aux-J            ...   1231
   # of shells in Aux-J                     ...    405
   Maximum angular momentum in Aux-J        ...      4
Auxiliary J/K fitting basis                 ... NOT available
Auxiliary Correlation fitting basis         ... NOT available
Auxiliary 'external' fitting basis          ... NOT available
Integral threshold                          ...     2.500000e-11
Primitive cut-off                           ...     2.500000e-12
Primitive pair pre-selection threshold      ...     2.500000e-12

Calculating pre-screening integrals         ... done (  0.1 sec) Dimension = 184
Organizing shell pair data                  ... done (  0.1 sec)
Shell pair information
Total number of shell pairs                 ...     17020
Shell pairs after pre-screening             ...     13013
Total number of primitive shell pairs       ...     60705
Primitive shell pairs kept                  ...     29316
          la=0 lb=0:   4990 shell pairs
          la=1 lb=0:   4259 shell pairs
          la=1 lb=1:    857 shell pairs
          la=2 lb=0:   1759 shell pairs
          la=2 lb=1:    790 shell pairs
          la=2 lb=2:    181 shell pairs
          la=3 lb=0:    113 shell pairs
          la=3 lb=1:     42 shell pairs
          la=3 lb=2:     21 shell pairs
          la=3 lb=3:      1 shell pairs

Calculating one electron integrals          ... done (  0.1 sec)
Calculating ECP integrals                   ... done (  0.8 sec)
Calculating RI/J V-Matrix + Cholesky decomp.... done (  0.1 sec)
Calculating Nuclear repulsion               ... done (  0.0 sec) ENN=   2043.883419859105 Eh

SHARK setup successfully completed in   1.4 seconds

Maximum memory used throughout the entire GTOINT-calculation: 91.6 MB
-------------------------------------------------------------------------------
                                 ORCA SCF
-------------------------------------------------------------------------------

------------
SCF SETTINGS
------------
Hamiltonian:
 Density Functional     Method          .... DFT(GTOs)
 Exchange Functional    Exchange        .... PBE
   PBE kappa parameter   XKappa         ....  1.024500
   PBE mue parameter    XMuePBE         ....  0.123457
 Correlation Functional Correlation     .... PBE
   PBE beta parameter  CBetaPBE         ....  0.030000
 LDA part of GGA corr.  LDAOpt          .... PW91-LDA
 Gradients option       PostSCFGGA      .... off
 Hybrid DFT is turned on
   Fraction HF Exchange ScalHFX         ....  0.420000
   Scaling of DF-GGA-X  ScalDFX         ....  0.580000
   Scaling of DF-GGA-C  ScalDFC         ....  1.000000
   Scaling of DF-LDA-C  ScalLDAC        ....  1.000000
   Perturbative correction              ....  0.000000
   Density functional embedding theory  .... OFF
 RI-approximation to the Coulomb term is turned on
   Number of AuxJ basis functions       .... 1231
   RIJ-ON(X) (HFX calculated with O(N)) .... on
   Number of AuxJ basis functions       .... 1231
   RIJ-COSX (HFX calculated with COS-X)).... on


General Settings:
 Integral files         IntName         .... reaction4-IEIP_ts_guess_scan_5-2_orca
 Hartree-Fock type      HFTyp           .... RHF
 Total Charge           Charge          ....    1
 Multiplicity           Mult            ....    1
 Number of Electrons    NEL             ....  164
 Basis Dimension        Dim             ....  358
 Nuclear Repulsion      ENuc            ....   2043.8834198591 Eh

Convergence Acceleration:
 DIIS                   CNVDIIS         .... on
   Start iteration      DIISMaxIt       ....    12
   Startup error        DIISStart       ....  0.200000
   # of expansion vecs  DIISMaxEq       ....     5
   Bias factor          DIISBfac        ....   1.050
   Max. coefficient     DIISMaxC        ....  10.000
 Trust-Rad. Augm. Hess. CNVTRAH         .... auto
   Auto Start mean grad. ratio tolernc. ....  1.125000
   Auto Start start iteration           ....    20
   Auto Start num. interpolation iter.  ....    10
   Max. Number of Micro iterations      ....    16
   Max. Number of Macro iterations      .... Maxiter - #DIIS iter
   Number of Davidson start vectors     ....     2
   Converg. threshold I  (grad. norm)   ....   1.000e-05
   Converg. threshold II (energy diff.) ....   1.000e-08
   Grad. Scal. Fac. for Micro threshold ....   0.100
   Minimum threshold for Micro iter.    ....   0.010
   NR start threshold (gradient norm)   ....   0.001
   Initial trust radius                 ....   0.400
   Minimum AH scaling param. (alpha)    ....   1.000
   Maximum AH scaling param. (alpha)    .... 1000.000
   Orbital update algorithm             .... Taylor
   White noise on init. David. guess    .... on
   Maximum white noise                  ....   0.010
   Quad. conv. algorithm                .... NR
   COSX micro iterations for RIJONX calc.... off
 SOSCF                  CNVSOSCF        .... off
 Level Shifting         CNVShift        .... on
   Level shift para.    LevelShift      ....    0.2500
   Turn off err/grad.   ShiftErr        ....    0.0010
 Zerner damping         CNVZerner       .... off
 Static damping         CNVDamp         .... on
   Fraction old density DampFac         ....    0.7000
   Max. Damping (<1)    DampMax         ....    0.9800
   Min. Damping (>=0)   DampMin         ....    0.0000
   Turn off err/grad.   DampErr         ....    0.1000
 Fernandez-Rico         CNVRico         .... off

SCF Procedure:
 Maximum # iterations   MaxIter         ....   250
 SCF integral mode      SCFMode         .... Direct
   Integral package                     .... SHARK and LIBINT hybrid scheme
 Reset frequency        DirectResetFreq ....    20
 Integral Threshold     Thresh          ....  2.500e-11 Eh
 Primitive CutOff       TCut            ....  2.500e-12 Eh

Convergence Tolerance:
 Convergence Check Mode ConvCheckMode   .... Total+1el-Energy
 Convergence forced     ConvForced      .... 0
 Energy Change          TolE            ....  1.000e-08 Eh
 1-El. energy change                    ....  1.000e-05 Eh
 DIIS Error             TolErr          ....  5.000e-07


Diagonalization of the overlap matrix:
Smallest eigenvalue                        ... 1.154e-03
Time for diagonalization                   ...    0.036 sec
Threshold for overlap eigenvalues          ... 1.000e-08
Number of eigenvalues below threshold      ... 0
Time for construction of square roots      ...    0.012 sec
Total time needed                          ...    0.049 sec

--------------------
INITIAL GUESS: HCORE
--------------------
                      -----------------
                      INTIAL GUESS DONE 
                      -----------------
-------------------
DFT GRID GENERATION
-------------------

General Integration Accuracy     IntAcc      ... 4.159
Radial Grid Type                 RadialGrid  ... OptM3 with GC (2021)
Angular Grid (max. ang.)         AngularGrid ... 3 (Lebedev-194)
Angular grid pruning method      GridPruning ... 4 (adaptive)
Weight generation scheme         WeightScheme... Becke
Basis function cutoff            BFCut       ... 1.0000e-11
Integration weight cutoff        WCut        ... 1.0000e-14
Angular grids for H and He will be reduced by one unit
Partially contracted basis set               ... off
Rotationally invariant grid construction     ... off

Total number of grid points                  ...    93280
Total number of batches                      ...     1480
Average number of points per batch           ...       63
Average number of grid points per atom       ...     2392
Time for grid setup =    1.712 sec

--------------------
COSX GRID GENERATION
--------------------

GRIDX 1
-------
General Integration Accuracy     IntAcc      ... 3.816
Radial Grid Type                 RadialGrid  ... OptM3 with GC (2021)
Angular Grid (max. ang.)         AngularGrid ... 1 (Lebedev-50)
Angular grid pruning method      GridPruning ... 4 (adaptive)
Weight generation scheme         WeightScheme... Becke
Basis function cutoff            BFCut       ... 1.0000e-11
Integration weight cutoff        WCut        ... 1.0000e-14
Angular grids for H and He will be reduced by one unit
Partially contracted basis set               ... on
Rotationally invariant grid construction     ... off

Total number of grid points                  ...    23165
Total number of batches                      ...      380
Average number of points per batch           ...       60
Average number of grid points per atom       ...      594
UseSFitting                                  ... on

GRIDX 2
-------
General Integration Accuracy     IntAcc      ... 4.020
Radial Grid Type                 RadialGrid  ... OptM3 with GC (2021)
Angular Grid (max. ang.)         AngularGrid ... 2 (Lebedev-110)
Angular grid pruning method      GridPruning ... 4 (adaptive)
Weight generation scheme         WeightScheme... Becke
Basis function cutoff            BFCut       ... 1.0000e-11
Integration weight cutoff        WCut        ... 1.0000e-14
Angular grids for H and He will be reduced by one unit
Partially contracted basis set               ... on
Rotationally invariant grid construction     ... off

Total number of grid points                  ...    50286
Total number of batches                      ...      806
Average number of points per batch           ...       62
Average number of grid points per atom       ...     1289
UseSFitting                                  ... on

GRIDX 3
-------
General Integration Accuracy     IntAcc      ... 4.338
Radial Grid Type                 RadialGrid  ... OptM3 with GC (2021)
Angular Grid (max. ang.)         AngularGrid ... 3 (Lebedev-194)
Angular grid pruning method      GridPruning ... 4 (adaptive)
Weight generation scheme         WeightScheme... Becke
Basis function cutoff            BFCut       ... 1.0000e-11
Integration weight cutoff        WCut        ... 1.0000e-14
Angular grids for H and He will be reduced by one unit
Partially contracted basis set               ... on
Rotationally invariant grid construction     ... off

Total number of grid points                  ...   108727
Total number of batches                      ...     1719
Average number of points per batch           ...       63
Average number of grid points per atom       ...     2788
UseSFitting                                  ... on

Time for X-Grid setup             =    4.580 sec

--------------
SCF ITERATIONS
--------------
ITER       Energy         Delta-E        Max-DP      RMS-DP      [F,P]     Damp
               ***  Starting incremental Fock matrix formation  ***
  0   -859.5436211888   0.00000000000019.77420279  0.14560011  2.7886587 0.7000
  1  -1096.3483370607-236.80471587189411.52183150  0.13018606  1.4771063 0.7000
  2  -1164.9508949296 -68.602557868903 5.56042340  0.06827692  1.0619510 0.7000
  3  -1190.5994945403 -25.648599610706 3.86607157  0.04641111  0.7727854 0.7000
  4  -1208.9652548086 -18.365760268284 2.72116390  0.03719024  0.4606508 0.7000
  5  -1224.6363328266 -15.671078017952 2.42321945  0.03101326  0.3690165 0.7000
  6  -1234.5212910890  -9.884958262446 1.78070048  0.02949730  0.3381675 0.7000
  7  -1241.7441513682  -7.222860279140 1.97755608  0.02562958  0.3408446 0.7000
  8  -1246.5091217465  -4.764970378366 1.56049288  0.02519876  0.4034859 0.7000
  9  -1250.3296420110  -3.820520264511 1.70254917  0.02411861  0.3673893 0.7000
 10  -1252.6801920100  -2.350549998994 1.47247760  0.02425860  0.4296287 0.7000
 11  -1254.6065468654  -1.926354855408 1.58283970  0.02385871  0.3785055 0.7000
                               ***Turning on DIIS***
 12  -1255.8353086176  -1.228761752199 1.43961245  0.02404409  0.4415322 0.7000
 13  -1256.7420783403  -0.906769722632 1.41807420  0.02048625  0.3830732 0.7000
 14  -1267.4822932207 -10.740214880452 0.98971967  0.01448851  0.2585141 0.7000
 15  -1273.9517357594  -6.469442538682 0.69335520  0.01028855  0.1694499 0.7000
 16  -1278.0744518105  -4.122716051089 0.48275269  0.00727942  0.1160437 0.7000
 17  -1280.8458414711  -2.771389660617 0.33181867  0.00515377  0.1530643 0.7000
 18  -1282.8795965293  -2.033755058168 0.22852525  0.00366991  0.1536852 0.7000
 19  -1284.3826422917  -1.503045762405 0.15448521  0.00271013  0.1449875 0.7000
               *** Restarting incremental Fock matrix formation ***
                                   *** Resetting DIIS ***
 20  -1285.5281629834  -1.145520691723 0.12570737  0.00242612  0.1263363 0.7000
 21  -1286.4344638822  -0.906300898804 0.29267634  0.00547857  0.0459719 0.0000
 22  -1288.4049004938  -1.970436611553 0.03714782  0.00085306  0.0528479 0.0000
 23  -1288.4387530392  -0.033852545409 0.03785389  0.00060379  0.0199293 0.0000
 24  -1288.4437002857  -0.004947246544 0.02005218  0.00023907  0.0148331 0.0000
 25  -1288.4459184834  -0.002218197648 0.00619603  0.00010979  0.0029795 0.0000
 26  -1288.4463237931  -0.000405309718 0.00306678  0.00005994  0.0018476 0.0000
 27  -1288.4464705461  -0.000146753047 0.00251599  0.00004624  0.0011769 0.0000
 28  -1288.4465396048  -0.000069058698 0.00316559  0.00005559  0.0006768 0.0000
               *** Restarting incremental Fock matrix formation ***
                                   *** Resetting DIIS ***
 29  -1288.4476412633  -0.001101658418 0.00426251  0.00008341  0.0006691 0.0000
 30  -1288.4476593740  -0.000018110750 0.00084563  0.00001440  0.0006383 0.0000
 31  -1288.4476596520  -0.000000278036 0.00052211  0.00000790  0.0006545 0.0000
 32  -1288.4476619821  -0.000002330100 0.00037327  0.00000294  0.0001249 0.0000
 33  -1288.4476621029  -0.000000120752 0.00026175  0.00000193  0.0001322 0.0000
 34  -1288.4476621985  -0.000000095600 0.00012616  0.00000100  0.0000369 0.0000
 35  -1288.4476622071  -0.000000008603 0.00007200  0.00000066  0.0000211 0.0000
 36  -1288.4476622173  -0.000000010171 0.00003530  0.00000032  0.0000141 0.0000
 37  -1288.4476622127   0.000000004540 0.00001105  0.00000012  0.0000053 0.0000
 38  -1288.4476622006   0.000000012157 0.00000812  0.00000008  0.0000047 0.0000
 39  -1288.4476621951   0.000000005464 0.00000443  0.00000004  0.0000023 0.0000
 40  -1288.4476622060  -0.000000010861 0.00000407  0.00000003  0.0000023 0.0000
                 **** Energy Check signals convergence ****

               *****************************************************
               *                     SUCCESS                       *
               *           SCF CONVERGED AFTER  41 CYCLES          *
               *****************************************************

Old exchange energy                            =    -59.662073985 Eh
New exchange energy                            =    -59.662015559 Eh
Exchange energy change after final integration =      0.000058426 Eh
Total energy after final integration           =  -1288.447603786 Eh
Final COS-X integration done in                =    58.345 sec

----------------
TOTAL SCF ENERGY
----------------

Total Energy       :        -1288.44760379 Eh          -35060.44174 eV

Components:
Nuclear Repulsion  :         2043.88341986 Eh           55616.89536 eV
Electronic Energy  :        -3332.33102365 Eh          -90677.33710 eV
One Electron Energy:        -5843.16637934 Eh         -159000.64062 eV
Two Electron Energy:         2510.83535570 Eh           68323.30352 eV
Max COSX asymmetry :            0.00002009 Eh               0.00055 eV

Virial components:
Potential Energy   :        -2501.58387376 Eh          -68071.55790 eV
Kinetic Energy     :         1213.13626998 Eh           33011.11616 eV
Virial Ratio       :            2.06207986


DFT components:
N(Alpha)           :       82.000584276069 electrons
N(Beta)            :       82.000584276069 electrons
N(Total)           :      164.001168552139 electrons
E(X)               :      -79.596569169611 Eh       
E(C)               :       -7.456003252391 Eh       
E(XC)              :      -87.052572422002 Eh       
DFET-embed. en.    :        0.000000000000 Eh       

---------------
SCF CONVERGENCE
---------------

  Last Energy change         ...   -5.9015e-09  Tolerance :   1.0000e-08
  Last MAX-Density change    ...    0.0000e+00  Tolerance :   1.0000e-07
  Last RMS-Density change    ...    0.0000e+00  Tolerance :   5.0000e-09
  Last DIIS Error            ...    5.8328e-07  Tolerance :   5.0000e-07

             **** THE GBW FILE WAS UPDATED (reaction4-IEIP_ts_guess_scan_5-2_orca.gbw) ****
             **** DENSITY reaction4-IEIP_ts_guess_scan_5-2_orca.scfp WAS UPDATED ****
             **** ENERGY FILE WAS UPDATED (reaction4-IEIP_ts_guess_scan_5-2_orca.en.tmp) ****
             **** THE GBW FILE WAS UPDATED (reaction4-IEIP_ts_guess_scan_5-2_orca.gbw) ****
             **** DENSITY reaction4-IEIP_ts_guess_scan_5-2_orca.scfp WAS UPDATED ****
----------------
ORBITAL ENERGIES
----------------

  NO   OCC          E(Eh)            E(eV) 
   0   2.0000     -89.766382     -2442.6674 
   1   2.0000     -19.620509      -533.9012 
   2   2.0000     -19.584616      -532.9245 
   3   2.0000     -14.842581      -403.8872 
   4   2.0000     -10.677173      -290.5407 
   5   2.0000     -10.663528      -290.1693 
   6   2.0000     -10.637486      -289.4607 
   7   2.0000     -10.636772      -289.4413 
   8   2.0000     -10.633154      -289.3428 
   9   2.0000     -10.631111      -289.2872 
  10   2.0000     -10.630426      -289.2686 
  11   2.0000     -10.629856      -289.2531 
  12   2.0000     -10.616513      -288.8900 
  13   2.0000     -10.612682      -288.7857 
  14   2.0000     -10.588224      -288.1202 
  15   2.0000     -10.585567      -288.0479 
  16   2.0000     -10.557369      -287.2806 
  17   2.0000     -10.552412      -287.1457 
  18   2.0000     -10.530860      -286.5593 
  19   2.0000      -8.405674      -228.7300 
  20   2.0000      -6.295724      -171.3154 
  21   2.0000      -6.292061      -171.2157 
  22   2.0000      -6.290452      -171.1719 
  23   2.0000      -4.029305      -109.6430 
  24   2.0000      -2.348175       -63.8971 
  25   2.0000      -2.314368       -62.9772 
  26   2.0000      -2.313072       -62.9419 
  27   2.0000      -1.301598       -35.4183 
  28   2.0000      -1.216430       -33.1007 
  29   2.0000      -1.204931       -32.7878 
  30   2.0000      -1.172448       -31.9039 
  31   2.0000      -1.130573       -30.7645 
  32   2.0000      -1.029169       -28.0051 
  33   2.0000      -0.987227       -26.8638 
  34   2.0000      -0.977580       -26.6013 
  35   2.0000      -0.969325       -26.3767 
  36   2.0000      -0.963281       -26.2122 
  37   2.0000      -0.924169       -25.1479 
  38   2.0000      -0.903840       -24.5947 
  39   2.0000      -0.876096       -23.8398 
  40   2.0000      -0.800074       -21.7711 
  41   2.0000      -0.788620       -21.4594 
  42   2.0000      -0.787389       -21.4259 
  43   2.0000      -0.783699       -21.3255 
  44   2.0000      -0.772413       -21.0184 
  45   2.0000      -0.756316       -20.5804 
  46   2.0000      -0.744337       -20.2544 
  47   2.0000      -0.724901       -19.7256 
  48   2.0000      -0.694601       -18.9011 
  49   2.0000      -0.672547       -18.3009 
  50   2.0000      -0.666271       -18.1302 
  51   2.0000      -0.651923       -17.7397 
  52   2.0000      -0.647021       -17.6063 
  53   2.0000      -0.640264       -17.4225 
  54   2.0000      -0.635257       -17.2862 
  55   2.0000      -0.627363       -17.0714 
  56   2.0000      -0.623455       -16.9651 
  57   2.0000      -0.613901       -16.7051 
  58   2.0000      -0.608214       -16.5503 
  59   2.0000      -0.607454       -16.5297 
  60   2.0000      -0.599544       -16.3144 
  61   2.0000      -0.590647       -16.0723 
  62   2.0000      -0.581084       -15.8121 
  63   2.0000      -0.575117       -15.6497 
  64   2.0000      -0.565137       -15.3782 
  65   2.0000      -0.553951       -15.0738 
  66   2.0000      -0.552897       -15.0451 
  67   2.0000      -0.548739       -14.9319 
  68   2.0000      -0.540060       -14.6958 
  69   2.0000      -0.536393       -14.5960 
  70   2.0000      -0.528336       -14.3767 
  71   2.0000      -0.521146       -14.1811 
  72   2.0000      -0.516492       -14.0545 
  73   2.0000      -0.504576       -13.7302 
  74   2.0000      -0.487864       -13.2754 
  75   2.0000      -0.482121       -13.1192 
  76   2.0000      -0.469653       -12.7799 
  77   2.0000      -0.448568       -12.2062 
  78   2.0000      -0.441240       -12.0068 
  79   2.0000      -0.425365       -11.5748 
  80   2.0000      -0.416666       -11.3381 
  81   2.0000      -0.403230       -10.9724 
  82   0.0000      -0.201722        -5.4891 
  83   0.0000      -0.160624        -4.3708 
  84   0.0000      -0.141989        -3.8637 
  85   0.0000      -0.102530        -2.7900 
  86   0.0000      -0.078028        -2.1232 
  87   0.0000      -0.068834        -1.8731 
  88   0.0000      -0.061911        -1.6847 
  89   0.0000      -0.050555        -1.3757 
  90   0.0000      -0.045433        -1.2363 
  91   0.0000      -0.034428        -0.9368 
  92   0.0000      -0.004769        -0.1298 
  93   0.0000      -0.002562        -0.0697 
  94   0.0000       0.011790         0.3208 
  95   0.0000       0.022114         0.6017 
  96   0.0000       0.023677         0.6443 
  97   0.0000       0.034410         0.9364 
  98   0.0000       0.044801         1.2191 
  99   0.0000       0.057692         1.5699 
 100   0.0000       0.068059         1.8520 
 101   0.0000       0.069781         1.8988 
 102   0.0000       0.071085         1.9343 
 103   0.0000       0.079439         2.1616 
 104   0.0000       0.083598         2.2748 
 105   0.0000       0.089808         2.4438 
 106   0.0000       0.093311         2.5391 
 107   0.0000       0.100127         2.7246 
 108   0.0000       0.107549         2.9266 
 109   0.0000       0.113073         3.0769 
 110   0.0000       0.114859         3.1255 
 111   0.0000       0.121123         3.2959 
 112   0.0000       0.121995         3.3197 
 113   0.0000       0.125886         3.4255 
 114   0.0000       0.131033         3.5656 
 115   0.0000       0.138993         3.7822 
 116   0.0000       0.143366         3.9012 
 117   0.0000       0.154089         4.1930 
 118   0.0000       0.156683         4.2635 
 119   0.0000       0.160944         4.3795 
 120   0.0000       0.165589         4.5059 
 121   0.0000       0.180239         4.9046 
 122   0.0000       0.187974         5.1150 
 123   0.0000       0.198796         5.4095 
 124   0.0000       0.222438         6.0528 
 125   0.0000       0.231053         6.2873 
 126   0.0000       0.256326         6.9750 
 127   0.0000       0.264669         7.2020 
 128   0.0000       0.277055         7.5391 
 129   0.0000       0.291943         7.9442 
 130   0.0000       0.303099         8.2477 
 131   0.0000       0.310121         8.4388 
 132   0.0000       0.321342         8.7441 
 133   0.0000       0.334997         9.1157 
 134   0.0000       0.340654         9.2697 
 135   0.0000       0.355459         9.6725 
 136   0.0000       0.361327         9.8322 
 137   0.0000       0.367168         9.9912 
 138   0.0000       0.382651        10.4125 
 139   0.0000       0.397068        10.8048 
 140   0.0000       0.401145        10.9157 
 141   0.0000       0.416607        11.3365 
 142   0.0000       0.424011        11.5379 
 143   0.0000       0.435449        11.8492 
 144   0.0000       0.443991        12.0816 
 145   0.0000       0.448636        12.2080 
 146   0.0000       0.455860        12.4046 
 147   0.0000       0.458528        12.4772 
 148   0.0000       0.469069        12.7640 
 149   0.0000       0.474734        12.9182 
 150   0.0000       0.479307        13.0426 
 151   0.0000       0.488032        13.2800 
 152   0.0000       0.494147        13.4464 
 153   0.0000       0.501314        13.6414 
 154   0.0000       0.507849        13.8193 
 155   0.0000       0.513793        13.9810 
 156   0.0000       0.527856        14.3637 
 157   0.0000       0.530488        14.4353 
 158   0.0000       0.543789        14.7973 
 159   0.0000       0.547277        14.8922 
[...]

----------------------
LOEWDIN ATOMIC CHARGES
----------------------
   0 Ir:   -0.229410
   1 C :   -0.039808
   2 C :   -0.066322
   3 C :   -0.055705
   4 C :   -0.057969
   5 C :   -0.022549
   6 N :   -0.000943
   7 C :   -0.069240
   8 C :   -0.364321
   9 H :    0.157574
  10 H :    0.133405
  11 H :    0.147205
  12 C :   -0.343349
  13 H :    0.157345
  14 H :    0.153151
  15 H :    0.137141
  16 H :    0.134180
  17 C :    0.034335
  18 C :   -0.175789
  19 H :    0.163480
  20 C :   -0.192321
  21 C :   -0.131459
  22 S :    0.476018
  23 C :   -0.263836
  24 H :    0.287910
  25 H :    0.163646
  26 H :    0.168671
  27 H :    0.184826
  28 H :    0.185471
  29 H :    0.193400
  30 O :   -0.275672
  31 O :   -0.210202
  32 C :    0.149695
  33 C :   -0.376848
  34 H :    0.158862
  35 H :    0.165984
  36 H :    0.152282
  37 H :    0.186154
  38 H :    0.185007

-------------------------------
LOEWDIN REDUCED ORBITAL CHARGES
-------------------------------
  0 Irs       :     2.449191  s :     2.449191
      pz      :     2.242409  p :     6.751996
      px      :     2.240553
      py      :     2.269035
      dz2     :     1.841504  d :     7.938398
      dxz     :     1.737181
      dyz     :     1.278419
      dx2y2   :     1.629619
      dxy     :     1.451674
      f0      :     0.011517  f :     0.089825
      f+1     :     0.003328
      f-1     :     0.013414
      f+2     :     0.017209
      f-2     :     0.016467
      f+3     :     0.011030
      f-3     :     0.016861
  1 C s       :     2.875776  s :     2.875776
      pz      :     1.047577  p :     3.059650
      px      :     1.087665
      py      :     0.924408
      dz2     :     0.026434  d :     0.104381
      dxz     :     0.027105
      dyz     :     0.017591
      dx2y2   :     0.018418
      dxy     :     0.014832
  2 C s       :     2.874784  s :     2.874784
      pz      :     1.046526  p :     3.089852
      px      :     1.075373
      py      :     0.967953
      dz2     :     0.025570  d :     0.101686
      dxz     :     0.027529
      dyz     :     0.017461
      dx2y2   :     0.018070
      dxy     :     0.013056
  3 C s       :     2.874318  s :     2.874318
      pz      :     1.036143  p :     3.079542
      px      :     1.077002
      py      :     0.966396
      dz2     :     0.024105  d :     0.101846
      dxz     :     0.032001
      dyz     :     0.016030
      dx2y2   :     0.015293
      dxy     :     0.014418
  4 C s       :     2.873886  s :     2.873886
      pz      :     1.092689  p :     3.082104
      px      :     1.036297
      py      :     0.953118
      dz2     :     0.022358  d :     0.101979
      dxz     :     0.031552
      dyz     :     0.012974
      dx2y2   :     0.017657
      dxy     :     0.017438
  5 C s       :     2.877411  s :     2.877411
      pz      :     1.061926  p :     3.040705
      px      :     1.033751
      py      :     0.945028
      dz2     :     0.025046  d :     0.104433
      dxz     :     0.030058
      dyz     :     0.015851
      dx2y2   :     0.015542
      dxy     :     0.017937
  6 N s       :     3.123508  s :     3.123508
      pz      :     1.266595  p :     3.778553
      px      :     1.291860
      py      :     1.220098
      dz2     :     0.030395  d :     0.098883
      dxz     :     0.027709
      dyz     :     0.019298
      dx2y2   :     0.011457
      dxy     :     0.010023
  7 C s       :     2.862241  s :     2.862241
      pz      :     1.060835  p :     3.072650
      px      :     0.937932
      py      :     1.073884
      dz2     :     0.023339  d :     0.134349
      dxz     :     0.029428
      dyz     :     0.019786
      dx2y2   :     0.028919
      dxy     :     0.032877
  8 C s       :     2.953190  s :     2.953190
      pz      :     1.130348  p :     3.343701
      px      :     1.123550
      py      :     1.089802
      dz2     :     0.011490  d :     0.067430
      dxz     :     0.018080
      dyz     :     0.010684
      dx2y2   :     0.008740
      dxy     :     0.018437
  9 H s       :     0.842426  s :     0.842426
 10 H s       :     0.866595  s :     0.866595
 11 H s       :     0.852795  s :     0.852795
 12 C s       :     2.953072  s :     2.953072
      pz      :     1.139838  p :     3.322370
      px      :     1.111590
      py      :     1.070942
      dz2     :     0.009688  d :     0.067907
      dxz     :     0.013855
      dyz     :     0.015777
      dx2y2   :     0.010752
      dxy     :     0.017836
 13 H s       :     0.842655  s :     0.842655
 14 H s       :     0.846849  s :     0.846849
 15 H s       :     0.862859  s :     0.862859
 16 H s       :     0.865820  s :     0.865820
 17 C s       :     2.878217  s :     2.878217
      pz      :     1.022576  p :     2.947056
      px      :     1.059401
      py      :     0.865079
      dz2     :     0.040866  d :     0.140392
      dxz     :     0.050995
      dyz     :     0.024549
      dx2y2   :     0.011778
      dxy     :     0.012205
 18 C s       :     2.896836  s :     2.896836
      pz      :     1.039472  p :     3.166876
      px      :     1.089556
      py      :     1.037848
      dz2     :     0.030493  d :     0.112076
      dxz     :     0.029819
      dyz     :     0.017140
      dx2y2   :     0.020887
      dxy     :     0.013737
 19 H s       :     0.836520  s :     0.836520
 20 C s       :     2.909249  s :     2.909249
      pz      :     1.093863  p :     3.192628
      px      :     1.046483
      py      :     1.052283
      dz2     :     0.010506  d :     0.090443
      dxz     :     0.033249
      dyz     :     0.009861
      dx2y2   :     0.018061
      dxy     :     0.018766
 21 C s       :     2.897901  s :     2.897901
      pz      :     1.064660  p :     3.139469
      px      :     1.089027
      py      :     0.985781
      dz2     :     0.024332  d :     0.094090
      dxz     :     0.027838
      dyz     :     0.014402
      dx2y2   :     0.016877
      dxy     :     0.010640
 22 S s       :     5.503531  s :     5.503531
      pz      :     3.295156  p :     9.867299
      px      :     3.081927
      py      :     3.490217
      dz2     :     0.037804  d :     0.153152
      dxz     :     0.032813
      dyz     :     0.024317
      dx2y2   :     0.033570
      dxy     :     0.024646
 23 C s       :     2.964331  s :     2.964331
      pz      :     1.114348  p :     3.213878
      px      :     1.020414
      py      :     1.079116
      dz2     :     0.020282  d :     0.085626
      dxz     :     0.027289
      dyz     :     0.012710
      dx2y2   :     0.013998
      dxy     :     0.011347
 24 H s       :     0.712090  s :     0.712090
 25 H s       :     0.836354  s :     0.836354
 26 H s       :     0.831329  s :     0.831329
 27 H s       :     0.815174  s :     0.815174
 28 H s       :     0.814529  s :     0.814529
 29 H s       :     0.806600  s :     0.806600
 30 O s       :     3.508185  s :     3.508185
      pz      :     1.469986  p :     4.713061
      px      :     1.518288
      py      :     1.724788
      dz2     :     0.018028  d :     0.054426
      dxz     :     0.012891
      dyz     :     0.016225
      dx2y2   :     0.003811
      dxy     :     0.003469
 31 O s       :     3.447054  s :     3.447054
      pz      :     1.694899  p :     4.704361
      px      :     1.633730
      py      :     1.375733
      dz2     :     0.009427  d :     0.058787
      dxz     :     0.003332
      dyz     :     0.016133
      dx2y2   :     0.015881
      dxy     :     0.014014
 32 C s       :     2.814347  s :     2.814347
      pz      :     1.010417  p :     2.712977
      px      :     0.754052
      py      :     0.948508
      dz2     :     0.077283  d :     0.322981
      dxz     :     0.043752
      dyz     :     0.108599
      dx2y2   :     0.045310
      dxy     :     0.048037
 33 C s       :     2.960192  s :     2.960192
      pz      :     1.094812  p :     3.353961
      px      :     1.148983
      py      :     1.110166
      dz2     :     0.006364  d :     0.062695
      dxz     :     0.017281
      dyz     :     0.018648
      dx2y2   :     0.018028
      dxy     :     0.002374
 34 H s       :     0.841138  s :     0.841138
 35 H s       :     0.834016  s :     0.834016
 36 H s       :     0.847718  s :     0.847718
 37 H s       :     0.813846  s :     0.813846
 38 H s       :     0.814993  s :     0.814993


                      *****************************
                      * MAYER POPULATION ANALYSIS *
                      *****************************

  NA   - Mulliken gross atomic population
  ZA   - Total nuclear charge
  QA   - Mulliken gross atomic charge
  VA   - Mayer's total valence
  BVA  - Mayer's bonded valence
  FA   - Mayer's free valence

  ATOM       NA         ZA         QA         VA         BVA        FA
  0 Ir    16.3887    17.0000     0.6113     3.7445     3.7445    -0.0000
  1 C      6.2103     6.0000    -0.2103     3.7009     3.7009    -0.0000
  2 C      6.2867     6.0000    -0.2867     3.7422     3.7422    -0.0000
  3 C      6.2375     6.0000    -0.2375     3.7334     3.7334    -0.0000
  4 C      6.2470     6.0000    -0.2470     3.7226     3.7226    -0.0000
  5 C      6.1641     6.0000    -0.1641     3.6936     3.6936     0.0000
  6 N      7.4230     7.0000    -0.4230     3.2168     3.2168    -0.0000
  7 C      6.1213     6.0000    -0.1213     3.6974     3.6974    -0.0000
  8 C      6.6921     6.0000    -0.6921     3.6858     3.6858    -0.0000
  9 H      0.7275     1.0000     0.2725     0.8964     0.8964    -0.0000
 10 H      0.7750     1.0000     0.2250     0.9099     0.9099    -0.0000
 11 H      0.7387     1.0000     0.2613     0.8972     0.8972    -0.0000
 12 C      6.6379     6.0000    -0.6379     3.6728     3.6728    -0.0000
 13 H      0.7169     1.0000     0.2831     0.8750     0.8750    -0.0000
 14 H      0.7355     1.0000     0.2645     0.8967     0.8967    -0.0000
 15 H      0.7693     1.0000     0.2307     0.9096     0.9096     0.0000
 16 H      0.7671     1.0000     0.2329     0.9056     0.9056    -0.0000
 17 C      5.9288     6.0000     0.0712     3.6317     3.6317    -0.0000
 18 C      6.1826     6.0000    -0.1826     3.7113     3.7113    -0.0000
 19 H      0.7074     1.0000     0.2926     0.8856     0.8856    -0.0000
 20 C      6.4688     6.0000    -0.4688     3.4626     3.4626    -0.0000
 21 C      6.1210     6.0000    -0.1210     3.7401     3.7401    -0.0000
 22 S     15.6913    16.0000     0.3087     2.5820     2.5820    -0.0000
 23 C      6.4333     6.0000    -0.4333     3.7440     3.7440     0.0000
 24 H      0.5025     1.0000     0.4975     0.7454     0.7454     0.0000
 25 H      0.7312     1.0000     0.2688     0.9020     0.9020    -0.0000
 26 H      0.7013     1.0000     0.2987     0.8969     0.8969    -0.0000
 27 H      0.7092     1.0000     0.2908     0.9020     0.9020     0.0000
 28 H      0.7082     1.0000     0.2918     0.9053     0.9053     0.0000
 29 H      0.6938     1.0000     0.3062     0.8919     0.8919    -0.0000
 30 O      8.4758     8.0000    -0.4758     2.1300     2.1300     0.0000
 31 O      8.5417     8.0000    -0.5417     2.0710     2.0710    -0.0000
 32 C      5.3885     6.0000     0.6115     3.9273     3.9273     0.0000
 33 C      6.7449     6.0000    -0.7449     3.6701     3.6701    -0.0000
 34 H      0.7317     1.0000     0.2683     0.8958     0.8958    -0.0000
 35 H      0.7353     1.0000     0.2647     0.8961     0.8961    -0.0000
 36 H      0.7488     1.0000     0.2512     0.9017     0.9017    -0.0000
 37 H      0.7082     1.0000     0.2918     0.9028     0.9028     0.0000
 38 H      0.7068     1.0000     0.2932     0.9039     0.9039     0.0000

  Mayer bond orders larger than 0.100000
B(  0-Ir,  1-C ) :   0.4173 B(  0-Ir,  2-C ) :   0.5175 B(  0-Ir,  3-C ) :   0.4624 
B(  0-Ir,  4-C ) :   0.4478 B(  0-Ir,  5-C ) :   0.4004 B(  0-Ir,  6-N ) :   0.4603 
B(  0-Ir, 20-C ) :   0.2743 B(  0-Ir, 31-O ) :   0.5849 B(  1-C ,  2-C ) :   1.1210 
B(  1-C ,  4-C ) :   1.2459 B(  1-C , 27-H ) :   0.9036 B(  2-C ,  5-C ) :   1.1402 
B(  2-C , 28-H ) :   0.9078 B(  3-C ,  4-C ) :   1.1063 B(  3-C ,  5-C ) :   1.2298 
B(  3-C , 37-H ) :   0.9053 B(  4-C , 38-H ) :   0.8996 B(  5-C , 29-H ) :   0.8979 
B(  6-N ,  7-C ) :   0.8915 B(  6-N , 17-C ) :   1.6928 B(  7-C ,  8-C ) :   0.9917 
B(  7-C , 12-C ) :   0.9686 B(  7-C , 13-H ) :   0.8711 B(  8-C ,  9-H ) :   0.9035 
B(  8-C , 10-H ) :   0.9127 B(  8-C , 11-H ) :   0.9080 B( 12-C , 14-H ) :   0.9064 
B( 12-C , 15-H ) :   0.9154 B( 12-C , 16-H ) :   0.9114 B( 17-C , 18-C ) :   1.0535 
B( 17-C , 19-H ) :   0.8741 B( 18-C , 20-C ) :   1.2813 B( 18-C , 22-S ) :   1.2405 
B( 20-C , 21-C ) :   1.2538 B( 20-C , 24-H ) :   0.4860 B( 21-C , 23-C ) :   1.5533 
B( 21-C , 25-H ) :   0.9033 B( 22-S , 23-C ) :   1.1992 B( 23-C , 26-H ) :   0.8917 
B( 24-H , 30-O ) :   0.2363 B( 30-O , 32-C ) :   1.7096 B( 31-O , 32-C ) :   1.2674 
B( 32-C , 33-C ) :   0.9452 B( 33-C , 34-H ) :   0.9057 B( 33-C , 35-H ) :   0.8998 
B( 33-C , 36-H ) :   0.9101 


------------------
HIRSHFELD ANALYSIS
------------------

Total integrated alpha density =     82.000671804
Total integrated beta density  =     82.000671804

  ATOM     CHARGE      SPIN    
   0 Ir   0.200707    0.000000
   1 C    0.007146    0.000000
   2 C   -0.000748    0.000000
   3 C   -0.000216    0.000000
   4 C   -0.005955    0.000000
   5 C    0.019053    0.000000
   6 N   -0.063991    0.000000
   7 C    0.054270    0.000000
   8 C   -0.070920    0.000000
   9 H    0.054192    0.000000
  10 H    0.037665    0.000000
  11 H    0.044113    0.000000
  12 C   -0.070193    0.000000
  13 H    0.047331    0.000000
  14 H    0.051763    0.000000
  15 H    0.036555    0.000000
  16 H    0.030878    0.000000
  17 C    0.101482    0.000000
  18 C    0.001047    0.000000
  19 H    0.079476    0.000000
  20 C   -0.066416    0.000000
  21 C   -0.027717    0.000000
  22 S    0.130353    0.000000
  23 C   -0.027071    0.000000
  24 H    0.061498    0.000000
  25 H    0.071141    0.000000
  26 H    0.078221    0.000000
  27 H    0.083622    0.000000
  28 H    0.085093    0.000000
  29 H    0.094670    0.000000
  30 O   -0.265323    0.000000
  31 O   -0.261767    0.000000
  32 C    0.238635    0.000000
  33 C   -0.068672    0.000000
  34 H    0.053485    0.000000
  35 H    0.058103    0.000000
  36 H    0.047289    0.000000
  37 H    0.084505    0.000000
  38 H    0.075353    0.000000

  TOTAL   0.998656    0.000000

-------
TIMINGS
-------

Total SCF time: 0 days 0 hours 4 min 51 sec 

Total time                  ....     291.037 sec
Sum of individual times     ....     290.468 sec  ( 99.8%)

Fock matrix formation       ....     282.353 sec  ( 97.0%)
  Split-RI-J                ....      20.105 sec  (  7.1% of F)
  Chain of spheres X        ....     247.824 sec  ( 87.8% of F)
  XC integration            ....      14.427 sec  (  5.1% of F)
    Basis function eval.    ....       6.742 sec  ( 46.7% of XC)
    Density eval.           ....       3.861 sec  ( 26.8% of XC)
    XC-Functional eval.     ....       1.069 sec  (  7.4% of XC)
    XC-Potential eval.      ....       2.219 sec  ( 15.4% of XC)
Diagonalization             ....       0.222 sec  (  0.1%)
Density matrix formation    ....       0.036 sec  (  0.0%)
Population analysis         ....       1.447 sec  (  0.5%)
Initial guess               ....       0.029 sec  (  0.0%)
Orbital Transformation      ....       0.000 sec  (  0.0%)
Orbital Orthonormalization  ....       0.022 sec  (  0.0%)
DIIS solution               ....       0.083 sec  (  0.0%)
Grid generation             ....       6.299 sec  (  2.2%)

Maximum memory used throughout the entire SCF-calculation: 173.7 MB


-------------------------------------------------------------------------------
                          DFT DISPERSION CORRECTION                            
                                                                               
                              DFTD3 V3.1  Rev 1                                
                          USING Becke-Johnson damping                          
-------------------------------------------------------------------------------
The PBEh-3c composite method is recognized
Using three-body term ABC
Active option DFTDOPT                   ...         4   

molecular C6(AA) [au] = 19548.087905 


            DFT-D V3
 parameters
 s6 scaling factor         :     1.0000 
 a1 scaling factor         :     0.4860 
 s8 scaling factor         :     0.0000 
 a2 scaling factor         :     4.5000 
 Damping factor alpha9(ATM):    16.0000 
 ad hoc parameters k1-k3   :    16.0000     1.3333    -4.0000 

 Edisp/kcal,au: -19.426054857043  -0.030957385646 
 E6   /kcal   : -19.776344534 
 E8   /kcal   :  -0.000000000 
 E6(ABC)      :   0.350289677 
 % E8         :   0.000000000 
 % E6(ABC)    :  -1.803195139 

-------------------------   ----------------
Dispersion correction           -0.030957386
-------------------------   ----------------

 ** NOTE ** -> element ir will be treated as co
NOTIFICATION: Different basis set in ORCA and otool_gcp:
ORCA: 358  gCP: 357 
If you are NOT using ECPs, check your basis set inputs!
------------------   -----------------
gCP correction             0.078736110
------------------   -----------------

-------------------------   --------------------
FINAL SINGLE POINT ENERGY     -1288.400035694850
-------------------------   --------------------

                                *** OPTIMIZATION RUN DONE ***

                            ***************************************
                            *     ORCA property calculations      *
                            ***************************************

                                    ---------------------
                                    Active property flags
                                    ---------------------
   (+) Dipole Moment


------------------------------------------------------------------------------
                       ORCA ELECTRIC PROPERTIES CALCULATION
------------------------------------------------------------------------------

Dipole Moment Calculation                       ... on
Quadrupole Moment Calculation                   ... off
Polarizability Calculation                      ... off
GBWName                                         ... reaction4-IEIP_ts_guess_scan_5-2_orca.gbw
Electron density                                ... reaction4-IEIP_ts_guess_scan_5-2_orca.scfp
The origin for moment calculation is the CENTER OF MASS  = ( 0.859773, -0.618735 -0.153516)

-------------
DIPOLE MOMENT
-------------
                                X             Y             Z
Electronic contribution:     36.84877     -66.94976      71.06781
Nuclear contribution   :    -37.47922      65.69727     -71.45216
                        -----------------------------------------
Total Dipole Moment    :     -0.63045      -1.25249      -0.38436
                        -----------------------------------------
Magnitude (a.u.)       :      1.45393
Magnitude (Debye)      :      3.69561



--------------------
Rotational spectrum 
--------------------
 
Rotational constants in cm-1:     0.010746     0.009146     0.008273 
Rotational constants in MHz :   322.145049   274.190989   248.031784 

 Dipole components along the rotational axes: 
x,y,z [a.u.] :    -0.391344    -0.396122     1.343080 
x,y,z [Debye]:    -0.994718    -1.006862     3.413838 

 

Timings for individual modules:

Sum of individual times         ...     5894.025 sec (=  98.234 min)
GTO integral calculation        ...       19.122 sec (=   0.319 min)   0.3 %
SCF iterations                  ...     4715.081 sec (=  78.585 min)  80.0 %
SCF Gradient evaluation         ...     1157.208 sec (=  19.287 min)  19.6 %
Geometry relaxation             ...        2.615 sec (=   0.044 min)   0.0 %
                             ****ORCA TERMINATED NORMALLY****
TOTAL RUN TIME: 0 days 1 hours 38 minutes 17 seconds 836 msec
