
                                 *****************
                                 * O   R   C   A *
                                 *****************

                                            #,                                       
                                            ###                                      
                                            ####                                     
                                            #####                                    
                                            ######                                   
                                           ########,                                 
                                     ,,################,,,,,                         
                               ,,#################################,,                 
                          ,,##########################################,,             
                       ,#########################################, ''#####,          
                    ,#############################################,,   '####,        
                  ,##################################################,,,,####,       
                ,###########''''           ''''###############################       
              ,#####''   ,,,,##########,,,,          '''####'''          '####       
            ,##' ,,,,###########################,,,                        '##       
           ' ,,###''''                  '''############,,,                           
         ,,##''                                '''############,,,,        ,,,,,,###''
      ,#''                                            '''#######################'''  
     '                                                          ''''####''''         
             ,#######,   #######,   ,#######,      ##                                
            ,#'     '#,  ##    ##  ,#'     '#,    #''#        ######   ,####,        
            ##       ##  ##   ,#'  ##            #'  '#       #        #'  '#        
            ##       ##  #######   ##           ,######,      #####,   #    #        
            '#,     ,#'  ##    ##  '#,     ,#' ,#      #,         ##   #,  ,#        
             '#######'   ##     ##  '#######'  #'      '#     #####' # '####'        



                  #######################################################
                  #                        -***-                        #
                  #          Department of theory and spectroscopy      #
                  #    Directorship and core code : Frank Neese         #
                  #        Max Planck Institute fuer Kohlenforschung    #
                  #                Kaiser Wilhelm Platz 1               #
                  #                 D-45470 Muelheim/Ruhr               #
                  #                      Germany                        #
                  #                                                     #
                  #                  All rights reserved                #
                  #                        -***-                        #
                  #######################################################


                         Program Version 5.0.3 -  RELEASE  -


 With contributions from (in alphabetic order):
   Daniel Aravena         : Magnetic Suceptibility
   Michael Atanasov       : Ab Initio Ligand Field Theory (pilot matlab implementation)
   Alexander A. Auer      : GIAO ZORA, VPT2 properties, NMR spectrum
   Ute Becker             : Parallelization
   Giovanni Bistoni       : ED, misc. LED, open-shell LED, HFLD
   Martin Brehm           : Molecular dynamics
   Dmytro Bykov           : SCF Hessian
   Vijay G. Chilkuri      : MRCI spin determinant printing, contributions to CSF-ICE
   Dipayan Datta          : RHF DLPNO-CCSD density
   Achintya Kumar Dutta   : EOM-CC, STEOM-CC
   Dmitry Ganyushin       : Spin-Orbit,Spin-Spin,Magnetic field MRCI
   Miquel Garcia          : C-PCM and meta-GGA Hessian, CC/C-PCM, Gaussian charge scheme
   Yang Guo               : DLPNO-NEVPT2, F12-NEVPT2, CIM, IAO-localization
   Andreas Hansen         : Spin unrestricted coupled pair/coupled cluster methods
   Benjamin Helmich-Paris : MC-RPA, TRAH-SCF, COSX integrals
   Lee Huntington         : MR-EOM, pCC
   Robert Izsak           : Overlap fitted RIJCOSX, COSX-SCS-MP3, EOM
   Marcus Kettner         : VPT2
   Christian Kollmar      : KDIIS, OOCD, Brueckner-CCSD(T), CCSD density, CASPT2, CASPT2-K
   Simone Kossmann        : Meta GGA functionals, TD-DFT gradient, OOMP2, MP2 Hessian
   Martin Krupicka        : Initial AUTO-CI
   Lucas Lang             : DCDCAS
   Marvin Lechner         : AUTO-CI (C++ implementation), FIC-MRCC
   Dagmar Lenk            : GEPOL surface, SMD
   Dimitrios Liakos       : Extrapolation schemes; Compound Job, initial MDCI parallelization
   Dimitrios Manganas     : Further ROCIS development; embedding schemes
   Dimitrios Pantazis     : SARC Basis sets
   Anastasios Papadopoulos: AUTO-CI, single reference methods and gradients
   Taras Petrenko         : DFT Hessian,TD-DFT gradient, ASA, ECA, R-Raman, ABS, FL, XAS/XES, NRVS
   Peter Pinski           : DLPNO-MP2, DLPNO-MP2 Gradient
   Christoph Reimann      : Effective Core Potentials
   Marius Retegan         : Local ZFS, SOC
   Christoph Riplinger    : Optimizer, TS searches, QM/MM, DLPNO-CCSD(T), (RO)-DLPNO pert. Triples
   Tobias Risthaus        : Range-separated hybrids, TD-DFT gradient, RPA, STAB
   Michael Roemelt        : Original ROCIS implementation
   Masaaki Saitow         : Open-shell DLPNO-CCSD energy and density
   Barbara Sandhoefer     : DKH picture change effects
   Avijit Sen             : IP-ROCIS
   Kantharuban Sivalingam : CASSCF convergence, NEVPT2, FIC-MRCI
   Bernardo de Souza      : ESD, SOC TD-DFT
   Georgi Stoychev        : AutoAux, RI-MP2 NMR, DLPNO-MP2 response
   Willem Van den Heuvel  : Paramagnetic NMR
   Boris Wezisla          : Elementary symmetry handling
   Frank Wennmohs         : Technical directorship


 We gratefully acknowledge several colleagues who have allowed us to
 interface, adapt or use parts of their codes:
   Stefan Grimme, W. Hujo, H. Kruse, P. Pracht,  : VdW corrections, initial TS optimization,
                  C. Bannwarth, S. Ehlert          DFT functionals, gCP, sTDA/sTD-DF
   Ed Valeev, F. Pavosevic, A. Kumar             : LibInt (2-el integral package), F12 methods
   Garnet Chan, S. Sharma, J. Yang, R. Olivares  : DMRG
   Ulf Ekstrom                                   : XCFun DFT Library
   Mihaly Kallay                                 : mrcc  (arbitrary order and MRCC methods)
   Jiri Pittner, Ondrej Demel                    : Mk-CCSD
   Frank Weinhold                                : gennbo (NPA and NBO analysis)
   Christopher J. Cramer and Donald G. Truhlar   : smd solvation model
   Lars Goerigk                                  : TD-DFT with DH, B97 family of functionals
   V. Asgeirsson, H. Jonsson                     : NEB implementation
   FAccTs GmbH                                   : IRC, NEB, NEB-TS, DLPNO-Multilevel, CI-OPT
                                                   MM, QMMM, 2- and 3-layer-ONIOM, Crystal-QMMM,
                                                   LR-CPCM, SF, NACMEs, symmetry and pop. for TD-DFT,
                                                   nearIR, NL-DFT gradient (VV10), updates on ESD,
                                                   ML-optimized integration grids
   S Lehtola, MJT Oliveira, MAL Marques          : LibXC Library
   Liviu Ungur et al                             : ANISO software


 Your calculation uses the libint2 library for the computation of 2-el integrals
 For citations please refer to: http://libint.valeyev.net

 Your ORCA version has been built with support for libXC version: 5.1.0
 For citations please refer to: https://tddft.org/programs/libxc/

 This ORCA versions uses:
   CBLAS   interface :  Fast vector & matrix operations
   LAPACKE interface :  Fast linear algebra routines
   SCALAPACK package :  Parallel linear algebra routines
   Shared memory     :  Shared parallel matrices
   BLAS/LAPACK       :  OpenBLAS 0.3.15  USE64BITINT DYNAMIC_ARCH NO_AFFINITY SkylakeX SINGLE_THREADED
        Core in use  :  SkylakeX
   Copyright (c) 2011-2014, The OpenBLAS Project


Your calculation utilizes the geometrical counterpoise correction gCP
Please cite in your paper:
H.Kruse, S. Grimme J.Chem.Phys., 136, (2012), 154101 
   

Your calculation utilizes the atom-pairwise dispersion correction
with the Becke-Johnson damping scheme (D3BJ)
Cite in your paper:
S.Grimme, S.Ehrlich, L.Goerigk, J Comput Chem, (2011), 32, 1456–1465 
S.Grimme, J.Antony, S.Ehrlich and H.Krieg, J.Chem.Phys., 132, (2010), 154104 
   

Your calculation employs the composite approach PBEh-3c.
Please cite in your paper:
S. Grimme, J. G. Brandenburg, C. Bannwarth, A. Hansen J.Chem.Phys., 143, (2015), 054107 
   

================================================================================

cite the ECPs for Ir [Def2-ECP] as follows:
Ce-Yb(ecp-28): M. Dolg, H. Stoll, H.Preuss, J. Chem. Phys., 1989, 90, 1730-1734.
Y-Cd(ecp-28), Hf-Hg(ecp-46): D. Andrae,U. Haeussermann, M. Dolg, H. Stoll, H. Preuss, Theor. Chim. Acta, 1990, 77, 123-141.
In-Sb(ecp-28), Tl-Bi(ecp-46): B. Metz, H. Stoll, M. Dolg, J. Chem. Phys., 2000, 113, 2563-2569.
Te-Xe(ecp-28), Po-Rn(ecp-46): K. A. Peterson, D. Figgen, E. Goll, H. Stoll, M. Dolg, J. Chem. Phys., 2003, 119, 11113-11123.
Rb(ecp-28), Cs(ecp-46): T. Leininger, A. Nicklass, W. Kuechle, H. Stoll, M. Dolg, A. Bergner, Chem. Phys. Lett., 1996, 255, 274-280.
Sr(ecp-28), Ba(ecp-46): M. Kaupp, P. V. Schleyer, H. Stoll and H. Preuss, J. Chem. Phys., 1991, 94, 1360-1366.
La(ecp-46): M. Dolg, H. Stoll, A. Savin, H. Preuss, Theor. Chim. Acta, 1989, 75, 173-194.
Lu(ecp-28): X. Cao, M. Dolg, J. Chem. Phys., 2001, 115, 7348-7355.

ECP parameters for Ir [Def2-ECP] have been obtained from:
TURBOMOLE (7.0.2)

----- Orbital basis set information -----
Your calculation utilizes the basis: def2-mSVP

----- AuxJ basis set information -----
Your calculation utilizes the auxiliary basis: def2/J
   F. Weigend, Phys. Chem. Chem. Phys. 8, 1057 (2006).

================================================================================
                                        WARNINGS
                       Please study these warnings very carefully!
================================================================================


WARNING: Geometry Optimization
  ===> : Switching off AutoStart
         For restart on a previous wavefunction, please use MOREAD

WARNING: No Hueckel Guess possible with ECP basis!
  ===> : Switching to HCORE guess!

INFO   : the flag for use of the SHARK integral package has been found!

================================================================================
                                       INPUT FILE
================================================================================
NAME = reaction4-IEIP_ts_guess_scan_6-2_orca.inp
|  1> ! Opt PBEh-3c
|  2> %geom Constraints
|  3> { B 0 20 2.342857142857143 C }
|  4> { B 24 30 1.4714285714285715 C }
|  5>     end
|  6> end
|  7> %output 
|  8> xyzfile=True 
|  9> end 
| 10> %scf 
| 11> maxiter 250 
| 12> end
| 13> %output
| 14> Print[P_Hirshfeld] = 1
| 15> end
| 16> % maxcore
| 17> 4000
| 18> *xyz 1 1
| 19> Ir   0.60710037  -0.71005280   0.43029926 
| 20> C    0.05943742  -2.79942701   0.33933708 
| 21> C    0.12275042  -2.34289330   1.70468562 
| 22> C    2.21816695  -2.11521592   0.77230467 
| 23> C    1.33082641  -2.63880961  -0.24153883 
| 24> C    1.48187771  -1.96865193   1.96276103 
| 25> N   -1.04724570   0.16865400  -0.52705841 
| 26> C   -2.31261935   0.48750012   0.15143939 
| 27> C   -3.11792302   1.57305994  -0.54435176 
| 28> H   -3.94297015   1.86842992   0.10243490 
| 29> H   -3.56417458   1.23786265  -1.48201808 
| 30> H   -2.52124069   2.46532833  -0.73620815 
| 31> C   -3.12587647  -0.78804469   0.33604757 
| 32> H   -2.01368064   0.85510202   1.13426776 
| 33> H   -4.03390923  -0.56429000   0.89388550 
| 34> H   -3.42080364  -1.21266958  -0.62441402 
| 35> H   -2.57898560  -1.54430722   0.89732965 
| 36> C   -0.86009344   0.38063049  -1.77200587 
| 37> C    0.48746872   0.15347014  -2.24360874 
| 38> H   -1.64408865   0.74509307  -2.42924237 
| 39> C    1.57993762   0.43068048  -1.42548843 
| 40> C    2.79025166   0.02295370  -2.06048330 
| 41> S    0.92795455  -0.56078977  -3.72378414 
| 42> C    2.59019582  -0.52215203  -3.28893043 
| 43> H    1.52536953   1.33506445  -0.67794481 
| 44> H    3.77165664   0.18026084  -1.63721990 
| 45> H    3.33190252  -0.88398264  -3.98483836 
| 46> H   -0.82207069  -3.17017543  -0.16377848 
| 47> H   -0.67482940  -2.37329496   2.43214396 
| 48> H    1.85535054  -1.56340937   2.89226296 
| 49> O    1.31105804   2.47813311   0.24661539 
| 50> O    0.53418521   0.92310533   1.64375276 
| 51> C    0.90558040   2.12497475   1.35074989 
| 52> C    0.84185174   3.09376372   2.49896067 
| 53> H    0.80343052   4.11739517   2.13663354 
| 54> H    1.74338755   2.98713709   3.10543088 
| 55> H   -0.00832643   2.89565483   3.14845354 
| 56> H    3.26627789  -1.89022544   0.64345902 
| 57> H    1.60218946  -2.87667250  -1.25960089 
| 58> *
| 59> 
| 60>                          ****END OF INPUT****
================================================================================

                       *****************************
                       * Geometry Optimization Run *
                       *****************************

Geometry optimization settings:
Update method            Update   .... BFGS
Choice of coordinates    CoordSys .... Z-matrix Internals
Initial Hessian          InHess   .... Almoef's Model

Convergence Tolerances:
Energy Change            TolE     ....  5.0000e-06 Eh
Max. Gradient            TolMAXG  ....  3.0000e-04 Eh/bohr
RMS Gradient             TolRMSG  ....  1.0000e-04 Eh/bohr
Max. Displacement        TolMAXD  ....  4.0000e-03 bohr
RMS Displacement         TolRMSD  ....  2.0000e-03 bohr
Strict Convergence                ....  False
------------------------------------------------------------------------------
                        ORCA OPTIMIZATION COORDINATE SETUP
------------------------------------------------------------------------------

The optimization will be done in new redundant internal coordinates
Making redundant internal coordinates   ...  (new redundants) done
Evaluating the initial hessian          ...  (Almloef) done
Evaluating the coordinates              ...  done
Calculating the B-matrix                .... done
Calculating the G-matrix                .... done
Diagonalizing the G-matrix              .... done
Imposing constraints:
 Iter   0:  RMS(Cart)=    0.0241108685 RMS(Int)=    0.0024717392
 Iter   1:  RMS(Cart)=    0.0010005813 RMS(Int)=    0.0001144852
 Iter   2:  RMS(Cart)=    0.0000453118 RMS(Int)=    0.0000051295
 Iter   3:  RMS(Cart)=    0.0000019755 RMS(Int)=    0.0000002215
 Iter   4:  RMS(Cart)=    0.0000000832 RMS(Int)=    0.0000000093
CONVERGED
Small eigenvalue found = 1.250e-02
Small eigenvalue found = 1.603e-02
Small eigenvalue found = 2.255e-02
Small eigenvalue found = 2.334e-02
Small eigenvalue found = 2.871e-02
The first mode is                       ....  227
The number of degrees of freedom        ....  111
Storing new coordinates                 .... done

    -----------------------------------------------------------------
                    Redundant Internal Coordinates


    -----------------------------------------------------------------
         Definition                    Initial Value    Approx d2E/dq
    -----------------------------------------------------------------
      1. B(C   1,Ir  0)                  2.1619         0.085352   
      2. B(C   2,C   1)                  1.4411         0.517966   
      3. B(C   2,Ir  0)                  2.1272         0.096960   
      4. B(C   3,Ir  0)                  2.1650         0.084394   
      5. B(C   4,Ir  0)                  2.1669         0.083805   
      6. B(C   4,C   3)                  1.4455         0.509600   
      7. B(C   4,C   1)                  1.4070         0.586974   
      8. B(C   5,Ir  0)                  2.1675         0.083628   
      9. B(C   5,C   2)                  1.4332         0.533229   
     10. B(C   5,C   3)                  1.4074         0.586097   
     11. B(N   6,Ir  0)                  2.1033         0.094662   
     12. B(C   7,N   6)                  1.4708         0.415908   
     13. B(C   8,C   7)                  1.5202         0.387236   
     14. B(H   9,C   8)                  1.0892         0.361207   
     15. B(H  10,C   8)                  1.0912         0.358517   
     16. B(H  11,C   8)                  1.0904         0.359566   
     17. B(C  12,C   7)                  1.5240         0.381944   
     18. B(H  13,C   7)                  1.0911         0.358679   
     19. B(H  14,C  12)                  1.0889         0.361516   
     20. B(H  15,C  12)                  1.0908         0.359085   
     21. B(H  16,C  12)                  1.0891         0.361340   
     22. B(C  17,N   6)                  1.2750         0.848606   
     23. B(C  18,C  17)                  1.4447         0.509255   
     24. B(H  19,C  17)                  1.0860         0.365403   
     25. B(C  20,C  18)                  1.3927         0.618596   
     26. B(C  20,Ir  0)                  2.3429         0.037505 C 
     27. B(C  21,C  20)                  1.4264         0.546803   
     28. B(S  22,C  18)                  1.7015         0.536441   
     29. B(C  23,C  21)                  1.3590         0.700762   
     30. B(C  23,S  22)                  1.7189         0.503759   
     31. B(H  24,C  20)                  1.1745         0.263896   
     32. B(H  25,C  21)                  1.0804         0.373160   
     33. B(H  26,C  23)                  1.0796         0.374250   
     34. B(H  27,C   1)                  1.0806         0.372790   
     35. B(H  28,C   2)                  1.0800         0.373668   
     36. B(H  29,C   5)                  1.0806         0.372764   
     37. B(O  30,H  24)                  1.4714         0.075374 C 
     38. B(O  31,Ir  0)                  2.0360         0.121421   
     39. B(C  32,O  30)                  1.2281         1.014299   
     40. B(C  32,O  31)                  1.2917         0.803228   
     41. B(C  33,C  32)                  1.5037         0.411526   
     42. B(H  34,C  33)                  1.0866         0.364701   
     43. B(H  35,C  33)                  1.0918         0.357778   
     44. B(H  36,C  33)                  1.0881         0.362665   
     45. B(H  37,C   3)                  1.0797         0.373983   
     46. B(H  38,C   4)                  1.0801         0.373405   
     47. A(C   2,Ir  0,O  31)          104.5054         0.263949   
     48. A(C   1,Ir  0,O  31)          142.3022         0.258972   
     49. A(C   5,Ir  0,N   6)          151.8486         0.248919   
     50. A(C   1,Ir  0,C   3)           64.3985         0.246667   
     51. A(C   1,Ir  0,C   5)           64.5823         0.246341   
     52. A(C   3,Ir  0,O  31)          116.9441         0.258539   
     53. A(C   3,Ir  0,N   6)          158.1578         0.249250   
     54. A(C   2,Ir  0,C   5)           38.9738         0.250949   
     55. A(C   3,Ir  0,C   4)           38.9858         0.246015   
     56. A(C   2,Ir  0,C   4)           65.0743         0.251026   
     57. A(C   5,Ir  0,O  31)           93.3715         0.258189   
     58. A(C   4,Ir  0,N   6)          119.5620         0.248996   
     59. A(C   1,Ir  0,C   2)           39.2548         0.251698   
     60. A(C   4,Ir  0,C   5)           64.3765         0.245691   
     61. A(C   4,Ir  0,O  31)          155.6126         0.258270   
     62. A(C   1,Ir  0,N   6)          100.6796         0.249660   
     63. A(C   2,Ir  0,C   3)           64.9499         0.251283   
     64. A(C   2,Ir  0,N   6)          114.4691         0.254364   
     65. A(C   1,Ir  0,C   4)           37.9367         0.246417   
     66. A(N   6,Ir  0,O  31)           84.7230         0.261757   
     67. A(C   3,Ir  0,C   5)           37.9141         0.245940   
     68. A(Ir  0,C   1,H  27)          123.9064         0.269025   
     69. A(C   2,C   1,C   4)          108.3789         0.416225   
     70. A(Ir  0,C   1,C   4)           71.2239         0.319672   
     71. A(C   4,C   1,H  27)          125.7396         0.351711   
     72. A(Ir  0,C   1,C   2)           69.0738         0.313234   
     73. A(C   2,C   1,H  27)          125.8508         0.344378   
     74. A(C   5,C   2,H  28)          125.9059         0.346199   
     75. A(Ir  0,C   2,C   5)           72.0315         0.321322   
     76. A(C   1,C   2,C   5)          107.1580         0.409190   
     77. A(Ir  0,C   2,C   1)           71.6714         0.319799   
     78. A(Ir  0,C   2,H  28)          126.3947         0.274395   
     79. A(C   1,C   2,H  28)          126.6460         0.344514   
     80. A(Ir  0,C   3,H  37)          124.6315         0.268695   
     81. A(C   4,C   3,C   5)          108.0500         0.414911   
     82. A(C   4,C   3,H  37)          125.9931         0.343623   
     83. A(Ir  0,C   3,C   4)           70.5773         0.311839   
     84. A(Ir  0,C   3,C   5)           71.1388         0.319006   
     85. A(C   5,C   3,H  37)          125.9507         0.351812   
     86. A(Ir  0,C   4,C   1)           70.8394         0.318719   
     87. A(Ir  0,C   4,H  38)          124.9015         0.268348   
     88. A(C   1,C   4,H  38)          126.2293         0.351809   
     89. A(C   3,C   4,H  38)          125.9182         0.343534   
     90. A(Ir  0,C   4,C   3)           70.4369         0.311486   
     91. A(C   1,C   4,C   3)          107.8474         0.415021   
     92. A(Ir  0,C   5,H  29)          122.0002         0.268192   
     93. A(C   3,C   5,H  29)          125.8614         0.351618   
     94. A(C   2,C   5,H  29)          125.4922         0.346058   
     95. A(Ir  0,C   5,C   3)           70.9471         0.318531   
     96. A(C   2,C   5,C   3)          108.4593         0.418272   
     97. A(Ir  0,C   5,C   2)           68.9948         0.313672   
     98. A(Ir  0,N   6,C  17)          112.9842         0.341754   
     99. A(C   7,N   6,C  17)          122.9112         0.421915   
    100. A(Ir  0,N   6,C   7)          124.0934         0.304080   
    101. A(N   6,C   7,C   8)          113.5412         0.370061   
    102. A(N   6,C   7,C  12)          109.4846         0.369187   
    103. A(C   8,C   7,C  12)          111.7422         0.366981   
    104. A(N   6,C   7,H  13)          104.6473         0.327908   
    105. A(C   8,C   7,H  13)          108.4718         0.326027   
    106. A(C  12,C   7,H  13)          108.6076         0.325290   
    107. A(C   7,C   8,H  11)          112.0231         0.326160   
    108. A(H   9,C   8,H  11)          107.2831         0.290912   
    109. A(H  10,C   8,H  11)          108.9023         0.290570   
    110. A(C   7,C   8,H   9)          108.8521         0.326404   
    111. A(C   7,C   8,H  10)          112.9905         0.326003   
    112. A(H   9,C   8,H  10)          106.4872         0.290778   
    113. A(C   7,C  12,H  14)          109.5766         0.325712   
    114. A(C   7,C  12,H  15)          111.3124         0.325351   
    115. A(H  14,C  12,H  15)          107.7946         0.290890   
    116. A(C   7,C  12,H  16)          112.0657         0.325686   
    117. A(H  14,C  12,H  16)          107.3023         0.291176   
    118. A(H  15,C  12,H  16)          108.6184         0.290868   
    119. A(N   6,C  17,C  18)          114.8607         0.440419   
    120. A(N   6,C  17,H  19)          122.9429         0.370939   
    121. A(C  18,C  17,H  19)          122.1516         0.342250   
    122. A(C  17,C  18,C  20)          120.3527         0.418866   
    123. A(C  17,C  18,S  22)          126.3698         0.430820   
    124. A(C  20,C  18,S  22)          113.1020         0.446204   
    125. A(C  18,C  20,C  21)          110.2821         0.424220   
    126. A(C  18,C  20,H  24)          119.3950         0.334854   
    127. A(C  21,C  20,H  24)          122.8955         0.328085   
    128. A(C  20,C  21,H  25)          123.6993         0.347587   
    129. A(C  23,C  21,H  25)          123.1184         0.362522   
    130. A(C  20,C  21,C  23)          113.0963         0.433818   
    131. A(C  18,S  22,C  23)           91.1620         0.453919   
    132. A(C  21,C  23,H  26)          128.0276         0.362703   
    133. A(S  22,C  23,H  26)          119.5924         0.360832   
    134. A(C  21,C  23,S  22)          112.3560         0.451240   
    135. A(Ir  0,O  31,C  32)          126.9782         0.353100   
    136. A(O  30,C  32,O  31)          124.5193         0.491311   
    137. A(O  30,C  32,C  33)          121.0075         0.437668   
    138. A(O  31,C  32,C  33)          114.4546         0.419733   
    139. A(C  32,C  33,H  34)          110.7213         0.330221   
    140. A(C  32,C  33,H  35)          109.0416         0.329177   
    141. A(H  34,C  33,H  35)          107.8464         0.291124   
    142. A(C  32,C  33,H  36)          111.8168         0.329916   
    143. A(H  34,C  33,H  36)          110.0569         0.291746   
    144. A(H  35,C  33,H  36)          107.2084         0.290868   
    145. D(C   2,C   1,Ir  0,C   4)    119.1131         0.001701   
    146. D(C   2,C   1,Ir  0,C   5)     38.8528         0.001701   
    147. D(H  27,C   1,Ir  0,O  31)     99.3120         0.001701   
    148. D(C   4,C   1,Ir  0,C   2)   -119.1131         0.001701   
    149. D(C   2,C   1,Ir  0,O  31)    -20.5884         0.001701   
    150. D(H  27,C   1,Ir  0,C   3)   -159.0531         0.001701   
    151. D(C   4,C   1,Ir  0,O  31)   -139.7015         0.001701   
    152. D(H  27,C   1,Ir  0,C   2)    119.9004         0.001701   
    153. D(C   4,C   1,Ir  0,C   3)    -38.0666         0.001701   
    154. D(H  27,C   1,Ir  0,N   6)      4.0928         0.001701   
    155. D(C   2,C   1,Ir  0,C   3)     81.0465         0.001701   
    156. D(C   4,C   1,Ir  0,N   6)    125.0794         0.001701   
    157. D(H  27,C   1,Ir  0,C   4)   -120.9865         0.001701   
    158. D(H  27,C   1,Ir  0,C   5)    158.7532         0.001701   
    159. D(C   4,C   1,Ir  0,C   5)    -80.2603         0.001701   
    160. D(C   2,C   1,Ir  0,N   6)   -115.8075         0.001701   
    161. D(Ir  0,C   2,C   1,H  27)   -117.4210         0.021286   
    162. D(C   1,C   2,Ir  0,C   5)   -115.7308         0.001758   
    163. D(C   1,C   2,Ir  0,C   4)    -36.3195         0.001758   
    164. D(H  28,C   2,C   1,H  27)      4.7606         0.021286   
    165. D(H  28,C   2,C   1,Ir  0)    122.1816         0.021286   
    166. D(C   5,C   2,C   1,H  27)    178.8360         0.021286   
    167. D(C   1,C   2,Ir  0,C   3)    -79.5225         0.001758   
    168. D(H  28,C   2,Ir  0,C   4)   -158.7950         0.001758   
    169. D(H  28,C   2,Ir  0,C   5)    121.7937         0.001758   
    170. D(C   5,C   2,Ir  0,C   3)     36.2083         0.001758   
    171. D(C   5,C   2,Ir  0,C   1)    115.7308         0.001758   
    172. D(H  28,C   2,C   1,C   4)   -177.1701         0.021286   
    173. D(C   5,C   2,Ir  0,C   4)     79.4113         0.001758   
    174. D(C   5,C   2,C   1,Ir  0)    -63.7430         0.021286   
    175. D(H  28,C   2,Ir  0,N   6)    -46.0745         0.001758   
    176. D(H  28,C   2,Ir  0,O  31)     44.6912         0.001758   
    177. D(Ir  0,C   2,C   1,C   4)     60.6483         0.021286   
    178. D(C   5,C   2,C   1,C   4)     -3.0947         0.021286   
    179. D(C   1,C   2,Ir  0,N   6)     76.4011         0.001758   
    180. D(C   5,C   2,Ir  0,O  31)    -77.1024         0.001758   
    181. D(H  28,C   2,Ir  0,C   1)   -122.4755         0.001758   
    182. D(C   1,C   2,Ir  0,O  31)    167.1668         0.001758   
    183. D(H  28,C   2,Ir  0,C   3)    158.0020         0.001758   
    184. D(C   5,C   2,Ir  0,N   6)   -167.8681         0.001758   
    185. D(C   4,C   3,Ir  0,C   5)    117.8814         0.001696   
    186. D(C   4,C   3,Ir  0,C   1)     37.0510         0.001696   
    187. D(C   4,C   3,Ir  0,O  31)    174.8400         0.001696   
    188. D(C   4,C   3,Ir  0,C   2)     80.6778         0.001696   
    189. D(C   5,C   3,Ir  0,O  31)     56.9586         0.001696   
    190. D(C   5,C   3,Ir  0,C   2)    -37.2036         0.001696   
    191. D(C   4,C   3,Ir  0,N   6)    -12.9262         0.001696   
    192. D(H  37,C   3,Ir  0,C   4)    120.9174         0.001696   
    193. D(H  37,C   3,Ir  0,C   1)    157.9684         0.001696   
    194. D(C   5,C   3,Ir  0,C   1)    -80.8304         0.001696   
    195. D(C   5,C   3,Ir  0,C   4)   -117.8814         0.001696   
    196. D(C   5,C   3,Ir  0,N   6)   -130.8076         0.001696   
    197. D(H  37,C   3,Ir  0,C   5)   -121.2012         0.001696   
    198. D(H  37,C   3,Ir  0,N   6)    107.9912         0.001696   
    199. D(H  37,C   3,Ir  0,O  31)    -64.2426         0.001696   
    200. D(H  37,C   3,Ir  0,C   2)   -158.4048         0.001696   
    201. D(C   1,C   4,Ir  0,C   3)    117.8922         0.001693   
    202. D(H  38,C   4,C   3,H  37)      0.2445         0.020584   
    203. D(C   1,C   4,Ir  0,C   5)     80.8509         0.001693   
    204. D(C   1,C   4,Ir  0,N   6)    -67.5984         0.001693   
    205. D(C   1,C   4,Ir  0,O  31)    106.6957         0.001693   
    206. D(C   1,C   4,Ir  0,C   2)     37.5612         0.001693   
    207. D(C   3,C   4,Ir  0,C   1)   -117.8922         0.001693   
    208. D(H  38,C   4,C   3,C   5)   -178.8905         0.020584   
    209. D(C   3,C   4,Ir  0,C   5)    -37.0413         0.001693   
    210. D(C   3,C   4,Ir  0,N   6)    174.5094         0.001693   
    211. D(C   3,C   4,Ir  0,O  31)    -11.1965         0.001693   
    212. D(Ir  0,C   4,C   1,C   2)    -59.3050         0.027654   
    213. D(H  38,C   4,Ir  0,C   2)    158.9261         0.001693   
    214. D(H  38,C   4,Ir  0,C   3)   -120.7429         0.001693   
    215. D(H  38,C   4,C   1,C   2)   -179.0621         0.027654   
    216. D(H  38,C   4,Ir  0,N   6)     53.7665         0.001693   
    217. D(H  38,C   4,Ir  0,O  31)   -131.9394         0.001693   
    218. D(Ir  0,C   4,C   1,H  27)    118.7670         0.027654   
    219. D(C   3,C   4,C   1,Ir  0)     61.0346         0.027654   
    220. D(C   3,C   4,C   1,H  27)    179.8017         0.027654   
    221. D(H  38,C   4,C   1,Ir  0)   -119.7571         0.027654   
    222. D(H  38,C   4,Ir  0,C   5)   -157.7842         0.001693   
    223. D(H  38,C   4,C   1,H  27)     -0.9901         0.027654   
    224. D(Ir  0,C   4,C   3,C   5)     61.6124         0.020584   
    225. D(Ir  0,C   4,C   3,H  37)   -119.2526         0.020584   
    226. D(C   3,C   4,C   1,C   2)      1.7297         0.027654   
    227. D(C   1,C   4,C   3,C   5)      0.3208         0.020584   
    228. D(C   1,C   4,C   3,H  37)    179.4558         0.020584   
    229. D(H  38,C   4,C   3,Ir  0)    119.4971         0.020584   
    230. D(H  38,C   4,Ir  0,C   1)    121.3649         0.001693   
    231. D(C   1,C   4,C   3,Ir  0)    -61.2916         0.020584   
    232. D(C   3,C   4,Ir  0,C   2)    -80.3310         0.001693   
    233. D(C   2,C   5,Ir  0,C   1)    -39.1326         0.001693   
    234. D(H  29,C   5,C   3,C   4)   -177.4939         0.027566   
    235. D(C   2,C   5,Ir  0,C   4)    -81.3556         0.001693   
    236. D(C   2,C   5,Ir  0,N   6)     23.9185         0.001693   
    237. D(C   2,C   5,Ir  0,O  31)    109.0323         0.001693   
    238. D(C   3,C   5,Ir  0,C   1)     80.3024         0.001693   
    239. D(C   3,C   5,Ir  0,C   2)    119.4350         0.001693   
    240. D(C   3,C   5,Ir  0,C   4)     38.0793         0.001693   
    241. D(H  29,C   5,C   2,C   1)    178.5532         0.022606   
    242. D(C   3,C   5,Ir  0,O  31)   -131.5328         0.001693   
    243. D(H  29,C   5,Ir  0,C   1)   -158.6985         0.001693   
    244. D(C   3,C   5,C   2,Ir  0)    -60.2104         0.022606   
    245. D(H  29,C   5,Ir  0,C   3)    120.9991         0.001693   
    246. D(H  29,C   5,Ir  0,C   4)    159.0785         0.001693   
    247. D(H  29,C   5,Ir  0,N   6)    -95.6474         0.001693   
    248. D(H  29,C   5,Ir  0,O  31)    -10.5336         0.001693   
    249. D(Ir  0,C   5,C   2,C   1)     63.5051         0.022606   
    250. D(H  29,C   5,Ir  0,C   2)   -119.5659         0.001693   
    251. D(Ir  0,C   5,C   2,H  28)   -122.3635         0.022606   
    252. D(C   3,C   5,C   2,C   1)      3.2946         0.022606   
    253. D(C   3,C   5,C   2,H  28)    177.4261         0.022606   
    254. D(C   3,C   5,Ir  0,N   6)    143.3535         0.001693   
    255. D(H  29,C   5,C   2,Ir  0)    115.0482         0.022606   
    256. D(H  29,C   5,C   2,H  28)     -7.3153         0.022606   
    257. D(Ir  0,C   5,C   3,C   4)    -61.2544         0.027566   
    258. D(Ir  0,C   5,C   3,H  37)    119.6101         0.027566   
    259. D(C   2,C   5,C   3,Ir  0)     58.9971         0.027566   
    260. D(C   2,C   5,C   3,C   4)     -2.2573         0.027566   
    261. D(C   2,C   5,C   3,H  37)    178.6072         0.027566   
    262. D(C   2,C   5,Ir  0,C   3)   -119.4350         0.001693   
    263. D(H  29,C   5,C   3,Ir  0)   -116.2395         0.027566   
    264. D(H  29,C   5,C   3,H  37)      3.3706         0.027566   
    265. D(C  17,N   6,Ir  0,C   1)    -95.2828         0.001765   
    266. D(C   7,N   6,Ir  0,C   2)     44.7778         0.001765   
    267. D(C   7,N   6,Ir  0,C   3)    128.1742         0.001765   
    268. D(C   7,N   6,Ir  0,C   4)    118.8631         0.001765   
    269. D(C   7,N   6,Ir  0,C   5)     28.5075         0.001765   
    270. D(C   7,N   6,Ir  0,C   1)     83.5240         0.001765   
    271. D(C   7,N   6,Ir  0,O  31)    -58.7742         0.001765   
    272. D(C  17,N   6,Ir  0,C   2)   -134.0290         0.001765   
    273. D(C  17,N   6,Ir  0,C   3)    -50.6326         0.001765   
    274. D(C  17,N   6,Ir  0,C   4)    -59.9437         0.001765   
    275. D(C  17,N   6,Ir  0,C   5)   -150.2992         0.001765   
    276. D(C  17,N   6,Ir  0,O  31)    122.4191         0.001765   
    277. D(C   8,C   7,N   6,Ir  0)    156.9561         0.014752   
    278. D(C   8,C   7,N   6,C  17)    -24.3524         0.014752   
    279. D(C  12,C   7,N   6,Ir  0)    -77.3996         0.014752   
    280. D(C  12,C   7,N   6,C  17)    101.2918         0.014752   
    281. D(H  13,C   7,N   6,Ir  0)     38.8519         0.014752   
    282. D(H  13,C   7,N   6,C  17)   -142.4566         0.014752   
    283. D(H   9,C   8,C   7,N   6)   -170.3796         0.011929   
    284. D(H   9,C   8,C   7,C  12)     65.1872         0.011929   
    285. D(H   9,C   8,C   7,H  13)    -54.5091         0.011929   
    286. D(H  10,C   8,C   7,N   6)     71.5451         0.011929   
    287. D(H  10,C   8,C   7,C  12)    -52.8881         0.011929   
    288. D(H  10,C   8,C   7,H  13)   -172.5844         0.011929   
    289. D(H  11,C   8,C   7,N   6)    -51.9060         0.011929   
    290. D(H  11,C   8,C   7,C  12)   -176.3391         0.011929   
    291. D(H  11,C   8,C   7,H  13)     63.9646         0.011929   
    292. D(H  14,C  12,C   7,N   6)    176.4427         0.011621   
    293. D(H  14,C  12,C   7,C   8)    -56.8861         0.011621   
    294. D(H  14,C  12,C   7,H  13)     62.7301         0.011621   
    295. D(H  15,C  12,C   7,N   6)    -64.4200         0.011621   
    296. D(H  15,C  12,C   7,C   8)     62.2512         0.011621   
    297. D(H  15,C  12,C   7,H  13)   -178.1325         0.011621   
    298. D(H  16,C  12,C   7,N   6)     57.4458         0.011621   
    299. D(H  16,C  12,C   7,C   8)   -175.8830         0.011621   
    300. D(H  16,C  12,C   7,H  13)    -56.2668         0.011621   
    301. D(C  18,C  17,N   6,Ir  0)     -7.9231         0.062322   
    302. D(C  18,C  17,N   6,C   7)    173.2540         0.062322   
    303. D(H  19,C  17,N   6,Ir  0)    174.4684         0.062322   
    304. D(H  19,C  17,N   6,C   7)     -4.3546         0.062322   
    305. D(C  20,C  18,C  17,N   6)    -34.1786         0.017673   
    306. D(C  20,C  18,C  17,H  19)    143.4509         0.017673   
    307. D(S  22,C  18,C  17,N   6)    140.6617         0.017673   
    308. D(S  22,C  18,C  17,H  19)    -41.7088         0.017673   
    309. D(C  21,C  20,C  18,C  17)    175.0718         0.028765   
    310. D(C  21,C  20,C  18,S  22)     -0.4127         0.028765   
    311. D(H  24,C  20,C  18,C  17)    -34.1474         0.028765   
    312. D(H  24,C  20,C  18,S  22)    150.3680         0.028765   
    313. D(C  23,C  21,C  20,C  18)      0.2279         0.022186   
    314. D(C  23,C  21,C  20,H  24)   -149.3397         0.022186   
    315. D(H  25,C  21,C  20,C  18)    176.9440         0.022186   
    316. D(H  25,C  21,C  20,H  24)     27.3763         0.022186   
    317. D(C  23,S  22,C  18,C  17)   -174.7804         0.005796   
    318. D(C  23,S  22,C  18,C  20)      0.3797         0.005796   
    319. D(S  22,C  23,C  21,C  20)      0.0514         0.034592   
    320. D(S  22,C  23,C  21,H  25)   -176.6865         0.034592   
    321. D(H  26,C  23,C  21,C  20)    178.2407         0.034592   
    322. D(H  26,C  23,C  21,H  25)      1.5028         0.034592   
    323. D(C  21,C  23,S  22,C  18)     -0.2436         0.005264   
    324. D(H  26,C  23,S  22,C  18)   -178.6034         0.005264   
    325. D(C  32,O  31,Ir  0,C   1)   -175.3149         0.001913   
    326. D(C  32,O  31,Ir  0,C   2)    171.3974         0.001913   
    327. D(C  32,O  31,Ir  0,C   3)    102.4425         0.001913   
    328. D(C  32,O  31,Ir  0,C   4)    110.3188         0.001913   
    329. D(C  32,O  31,Ir  0,C   5)    133.5065         0.001913   
    330. D(C  32,O  31,Ir  0,N   6)    -74.6635         0.001913   
    331. D(O  30,C  32,O  31,Ir  0)      3.5779         0.049773   
    332. D(C  33,C  32,O  31,Ir  0)   -174.8594         0.049773   
    333. D(H  34,C  33,C  32,O  30)     22.3536         0.012540   
    334. D(H  34,C  33,C  32,O  31)   -159.1486         0.012540   
    335. D(H  35,C  33,C  32,O  30)    -96.1487         0.012540   
    336. D(H  35,C  33,C  32,O  31)     82.3491         0.012540   
    337. D(H  36,C  33,C  32,O  30)    145.4736         0.012540   
    338. D(H  36,C  33,C  32,O  31)    -36.0286         0.012540   
    -----------------------------------------------------------------

Number of atoms                         .... 39
Number of degrees of freedom            .... 338

         *************************************************************
         *                GEOMETRY OPTIMIZATION CYCLE   1            *
         *************************************************************
---------------------------------
CARTESIAN COORDINATES (ANGSTROEM)
---------------------------------
  Ir     0.607455   -0.705619    0.415518
  C      0.062913   -2.795831    0.325126
  C      0.134109   -2.341088    1.690714
  C      2.223192   -2.108395    0.745314
  C      1.330335   -2.632146   -0.263622
  C      1.494216   -1.964796    1.940662
  N     -1.054200    0.171297   -0.529869
  C     -2.317886    0.489417    0.152118
  C     -3.125807    1.574402   -0.541541
  H     -3.949240    1.869319    0.107512
  H     -3.574457    1.238832   -1.477932
  H     -2.530218    2.467026   -0.735145
  C     -3.129830   -0.786620    0.339115
  H     -2.016444    0.857304    1.134078
  H     -4.036451   -0.563380    0.899457
  H     -3.427162   -1.211525   -0.620484
  H     -2.580903   -1.542484    0.898951
  C     -0.866089    0.381337   -1.773339
  C      0.484223    0.148355   -2.231227
  H     -1.645955    0.746225   -2.435265
  C      1.566761    0.423513   -1.399357
  C      2.783661    0.010688   -2.018581
  S      0.940143   -0.570485   -3.704436
  C      2.597129   -0.536113   -3.248672
  H      1.505518    1.329260   -0.654099
  H      3.760302    0.165527   -1.583353
  H      3.346410   -0.901684   -3.934562
  H     -0.821142   -3.167438   -0.172894
  H     -0.658786   -2.373916    2.423207
  H      1.872884   -1.560186    2.868353
  O      1.304412    2.485647    0.233273
  O      0.539359    0.925753    1.631824
  C      0.906513    2.129042    1.339048
  C      0.847918    3.095125    2.489827
  H      0.805140    4.119490    2.130034
  H      1.753438    2.988994    3.090461
  H      0.002180    2.893809    3.144153
  H      3.270084   -1.881364    0.610116
  H      1.595649   -2.868102   -1.283741

----------------------------
CARTESIAN COORDINATES (A.U.)
----------------------------
  NO LB      ZA    FRAG     MASS         X           Y           Z
   0 Ir   17.0000*   0   192.220    1.147923   -1.333427    0.785215
   1 C     6.0000    0    12.011    0.118888   -5.283354    0.614399
   2 C     6.0000    0    12.011    0.253429   -4.424014    3.194987
   3 C     6.0000    0    12.011    4.201223   -3.984289    1.408439
   4 C     6.0000    0    12.011    2.513968   -4.974034   -0.498173
   5 C     6.0000    0    12.011    2.823659   -3.712926    3.667320
   6 N     7.0000    0    14.007   -1.992150    0.323705   -1.001307
   7 C     6.0000    0    12.011   -4.380171    0.924864    0.287461
   8 C     6.0000    0    12.011   -5.906919    2.975189   -1.023363
   9 H     1.0000    0     1.008   -7.462982    3.532500    0.203168
  10 H     1.0000    0     1.008   -6.754744    2.341053   -2.792887
  11 H     1.0000    0     1.008   -4.781420    4.662003   -1.389224
  12 C     6.0000    0    12.011   -5.914521   -1.486497    0.640834
  13 H     1.0000    0     1.008   -3.810527    1.620069    2.143097
  14 H     1.0000    0     1.008   -7.627787   -1.064634    1.699727
  15 H     1.0000    0     1.008   -6.476398   -2.289451   -1.172545
  16 H     1.0000    0     1.008   -4.877199   -2.914872    1.698770
  17 C     6.0000    0    12.011   -1.636672    0.720622   -3.351124
  18 C     6.0000    0    12.011    0.915049    0.280350   -4.216408
  19 H     1.0000    0     1.008   -3.110404    1.410160   -4.601984
  20 C     6.0000    0    12.011    2.960749    0.800323   -2.644402
  21 C     6.0000    0    12.011    5.260356    0.020198   -3.814564
  22 S    16.0000    0    32.060    1.776613   -1.078061   -7.000370
  23 C     6.0000    0    12.011    4.907863   -1.013106   -6.139101
  24 H     1.0000    0     1.008    2.845016    2.511938   -1.236067
  25 H     1.0000    0     1.008    7.105940    0.312800   -2.992104
  26 H     1.0000    0     1.008    6.323799   -1.703936   -7.435245
  27 H     1.0000    0     1.008   -1.551733   -5.985591   -0.326722
  28 H     1.0000    0     1.008   -1.244925   -4.486051    4.579198
  29 H     1.0000    0     1.008    3.539237   -2.948324    5.420401
  30 O     8.0000    0    15.999    2.464982    4.697192    0.440822
  31 O     8.0000    0    15.999    1.019241    1.749419    3.083700
  32 C     6.0000    0    12.011    1.713061    4.023307    2.530433
  33 C     6.0000    0    12.011    1.602333    5.848939    4.705091
  34 H     1.0000    0     1.008    1.521494    7.784708    4.025181
  35 H     1.0000    0     1.008    3.313518    5.648380    5.840125
  36 H     1.0000    0     1.008    0.004119    5.468506    5.941589
  37 H     1.0000    0     1.008    6.179563   -3.555262    1.152951
  38 H     1.0000    0     1.008    3.015340   -5.419928   -2.425920
* core charge reduced due to ECP

--------------------------------
INTERNAL COORDINATES (ANGSTROEM)
--------------------------------
 Ir     0   0   0     0.000000000000     0.00000000     0.00000000
 C      1   0   0     2.161872663782     0.00000000     0.00000000
 C      2   1   0     1.441044135346    69.07295002     0.00000000
 C      1   2   3     2.164944946060    64.39763303    81.04664895
 C      2   1   3     1.406998484681    71.22402361   240.88676380
 C      4   1   2     1.407405127591    71.13869163   279.16934049
 N      1   2   3     2.103692056362   100.68005183   244.19199455
 C      7   1   2     1.470779584764   123.86146040    83.50653523
 C      8   7   1     1.520223486245   113.54123110   156.96741311
 H      9   8   7     1.089164439082   108.85220244   189.62039045
 H      9   8   7     1.091199251140   112.99025842    71.54505805
 H      9   8   7     1.090404309012   112.02320849   308.09395739
 C      8   7   1     1.523969122283   109.48442431   282.61178966
 H      8   7   1     1.091076126628   104.64731528    38.86342887
 H     13   8   7     1.088931958699   109.57636210   176.44269164
 H     13   8   7     1.090767985722   111.31255280   295.58007407
 H     13   8   7     1.089063915159   112.06579225    57.44572509
 C      7   1   2     1.276657424251   113.44400733   264.72750177
 C     18   7   1     1.445660702471   115.38347045   351.97651561
 H     18   7   1     1.086020846234   122.68651526   174.36428246
 C     19  18   7     1.392714870928   120.54943465   325.69184251
 C     21  19  18     1.426295792421   110.31664136   175.10057023
 S     19  18   7     1.701503511671   126.23229577   140.60730815
 C     22  21  19     1.358765964838   113.09457628     0.24426410
 H     21  19  18     1.174610363245   119.38404648   325.88877943
 H     22  21  19     1.080302354364   123.69903797   176.95430468
 H     24  22  21     1.079508252027   128.03409237   178.23383000
 H      2   1   3     1.080572165865   123.90710075   119.90048881
 H      3   2   1     1.079932158350   126.64562790   122.18193339
 H      6   4   1     1.080591192384   125.86136049   243.76167052
 O     25  21  19     1.485714286007   174.33645294    15.84968340
 O      1   2   3     2.035925218373   142.30476644   339.41068923
 C     31  25  21     1.228106647595   112.69737556    78.67743054
 C     33  31  25     1.503662663568   121.01391938   169.80660478
 H     34  33  31     1.086544285664   110.72240757    22.35390519
 H     34  33  31     1.091761040959   109.04199165   263.85198844
 H     34  33  31     1.088067571993   111.81583422   145.47436841
 H      4   1   2     1.079702949965   124.63064663   157.96851539
 H      5   2   1     1.080123612072   126.22842495   240.24197816

---------------------------
INTERNAL COORDINATES (A.U.)
---------------------------
 Ir     0   0   0     0.000000000000     0.00000000     0.00000000
 C      1   0   0     4.085347270958     0.00000000     0.00000000
 C      2   1   0     2.723178762698    69.07295002     0.00000000
 C      1   2   3     4.091153043070    64.39763303    81.04664895
 C      2   1   3     2.658841806889    71.22402361   240.88676380
 C      4   1   2     2.659610250623    71.13869163   279.16934049
 N      1   2   3     3.975401856629   100.68005183   244.19199455
 C      7   1   2     2.779370618566   123.86146040    83.50653523
 C      8   7   1     2.872806051359   113.54123110   156.96741311
 H      9   8   7     2.058222504671   108.85220244   189.62039045
 H      9   8   7     2.062067742194   112.99025842    71.54505805
 H      9   8   7     2.060565519280   112.02320849   308.09395739
 C      8   7   1     2.879884277667   109.48442431   282.61178966
 H      8   7   1     2.061835070586   104.64731528    38.86342887
 H     13   8   7     2.057783180416   109.57636210   176.44269164
 H     13   8   7     2.061252768664   111.31255280   295.58007407
 H     13   8   7     2.058032541986   112.06579225    57.44572509
 C      7   1   2     2.412532898673   113.44400733   264.72750177
 C     18   7   1     2.731902810242   115.38347045   351.97651561
 H     18   7   1     2.052281975112   122.68651526   174.36428246
 C     19  18   7     2.631849688694   120.54943465   325.69184251
 C     21  19  18     2.695308433639   110.31664136   175.10057023
 S     19  18   7     3.215375652964   126.23229577   140.60730815
 C     22  21  19     2.567695553637   113.09457628     0.24426410
 H     21  19  18     2.219691900598   119.38404648   325.88877943
 H     22  21  19     2.041475591577   123.69903797   176.95430468
 H     24  22  21     2.039974955639   128.03409237   178.23383000
 H      2   1   3     2.041985461423   123.90710075   119.90048881
 H      3   2   1     2.040776022495   126.64562790   122.18193339
 H      6   4   1     2.042021416333   125.86136049   243.76167052
 O     25  21  19     2.807593113807   174.33645294    15.84968340
 O      1   2   3     3.847341091868   142.30476644   339.41068923
 C     31  25  21     2.320785227204   112.69737556    78.67743054
 C     33  31  25     2.841510631945   121.01391938   169.80660478
 H     34  33  31     2.053271132282   110.72240757    22.35390519
 H     34  33  31     2.063129371096   109.04199165   263.85198844
 H     34  33  31     2.056149726267   111.81583422   145.47436841
 H      4   1   2     2.040342881420   124.63064663   157.96851539
 H      5   2   1     2.041137817598   126.22842495   240.24197816

---------------------
BASIS SET INFORMATION
---------------------
There are 6 groups of distinct atoms

 Group   1 Type Ir  : 7s6p5d1f contracted to 6s3p2d1f pattern {211111/411/41/1}
 Group   2 Type C   : 8s4p1d contracted to 4s2p1d pattern {5111/31/1}
 Group   3 Type N   : 8s4p1d contracted to 4s2p1d pattern {5111/31/1}
 Group   4 Type H   : 4s contracted to 2s pattern {31}
 Group   5 Type S   : 10s7p1d contracted to 4s3p1d pattern {5311/511/1}
 Group   6 Type O   : 8s4p1d contracted to 4s2p1d pattern {5111/31/1}

Atom   0Ir   basis set group =>   1
Atom   1C    basis set group =>   2
Atom   2C    basis set group =>   2
Atom   3C    basis set group =>   2
Atom   4C    basis set group =>   2
Atom   5C    basis set group =>   2
Atom   6N    basis set group =>   3
Atom   7C    basis set group =>   2
Atom   8C    basis set group =>   2
Atom   9H    basis set group =>   4
Atom  10H    basis set group =>   4
Atom  11H    basis set group =>   4
Atom  12C    basis set group =>   2
Atom  13H    basis set group =>   4
Atom  14H    basis set group =>   4
Atom  15H    basis set group =>   4
Atom  16H    basis set group =>   4
Atom  17C    basis set group =>   2
Atom  18C    basis set group =>   2
Atom  19H    basis set group =>   4
Atom  20C    basis set group =>   2
Atom  21C    basis set group =>   2
Atom  22S    basis set group =>   5
Atom  23C    basis set group =>   2
Atom  24H    basis set group =>   4
Atom  25H    basis set group =>   4
Atom  26H    basis set group =>   4
Atom  27H    basis set group =>   4
Atom  28H    basis set group =>   4
Atom  29H    basis set group =>   4
Atom  30O    basis set group =>   6
Atom  31O    basis set group =>   6
Atom  32C    basis set group =>   2
Atom  33C    basis set group =>   2
Atom  34H    basis set group =>   4
Atom  35H    basis set group =>   4
Atom  36H    basis set group =>   4
Atom  37H    basis set group =>   4
Atom  38H    basis set group =>   4
---------------------------------
AUXILIARY/J BASIS SET INFORMATION
---------------------------------
There are 6 groups of distinct atoms

 Group   1 Type Ir  : 11s5p5d3f3g contracted to 8s5p5d2f3g pattern {41111111/11111/11111/21/111}
 Group   2 Type C   : 12s5p4d2f1g contracted to 6s4p3d1f1g pattern {711111/2111/211/2/1}
 Group   3 Type N   : 12s5p4d2f1g contracted to 6s4p3d1f1g pattern {711111/2111/211/2/1}
 Group   4 Type H   : 5s2p1d contracted to 3s1p1d pattern {311/2/1}
 Group   5 Type S   : 14s5p5d2f1g contracted to 8s4p3d1f1g pattern {71111111/2111/311/2/1}
 Group   6 Type O   : 12s5p4d2f1g contracted to 6s4p3d1f1g pattern {711111/2111/211/2/1}

Atom   0Ir   basis set group =>   1
Atom   1C    basis set group =>   2
Atom   2C    basis set group =>   2
Atom   3C    basis set group =>   2
Atom   4C    basis set group =>   2
Atom   5C    basis set group =>   2
Atom   6N    basis set group =>   3
Atom   7C    basis set group =>   2
Atom   8C    basis set group =>   2
Atom   9H    basis set group =>   4
Atom  10H    basis set group =>   4
Atom  11H    basis set group =>   4
Atom  12C    basis set group =>   2
Atom  13H    basis set group =>   4
Atom  14H    basis set group =>   4
Atom  15H    basis set group =>   4
Atom  16H    basis set group =>   4
Atom  17C    basis set group =>   2
Atom  18C    basis set group =>   2
Atom  19H    basis set group =>   4
Atom  20C    basis set group =>   2
Atom  21C    basis set group =>   2
Atom  22S    basis set group =>   5
Atom  23C    basis set group =>   2
Atom  24H    basis set group =>   4
Atom  25H    basis set group =>   4
Atom  26H    basis set group =>   4
Atom  27H    basis set group =>   4
Atom  28H    basis set group =>   4
Atom  29H    basis set group =>   4
Atom  30O    basis set group =>   6
Atom  31O    basis set group =>   6
Atom  32C    basis set group =>   2
Atom  33C    basis set group =>   2
Atom  34H    basis set group =>   4
Atom  35H    basis set group =>   4
Atom  36H    basis set group =>   4
Atom  37H    basis set group =>   4
Atom  38H    basis set group =>   4
-------------------------
ECP PARAMETER INFORMATION
-------------------------

 Group 1, Type Ir ECP Def2-ECP (replacing 60 core electrons, lmax=3)

Atom   0Ir   ECP group =>   1

------------------------------------------------------------------------------
                           ORCA GTO INTEGRAL CALCULATION
                           -- RI-GTO INTEGRALS CHOSEN --
------------------------------------------------------------------------------
------------------------------------------------------------------------------
                   ___                                                        
                  /   \      - P O W E R E D   B Y -                         
                 /     \                                                     
                 |  |  |   _    _      __       _____    __    __             
                 |  |  |  | |  | |    /  \     |  _  \  |  |  /  |          
                  \  \/   | |  | |   /    \    | | | |  |  | /  /          
                 / \  \   | |__| |  /  /\  \   | |_| |  |  |/  /          
                |  |  |   |  __  | /  /__\  \  |    /   |      \           
                |  |  |   | |  | | |   __   |  |    \   |  |\   \          
                \     /   | |  | | |  |  |  |  | |\  \  |  | \   \       
                 \___/    |_|  |_| |__|  |__|  |_| \__\ |__|  \__/        
                                                                              
                      - O R C A' S   B I G   F R I E N D -                    
                                      &                                       
                       - I N T E G R A L  F E E D E R -                       
                                                                              
 v1 FN, 2020, v2 2021                                                         
------------------------------------------------------------------------------


Reading SHARK input file reaction4-IEIP_ts_guess_scan_6-2_orca.SHARKINP.tmp ... ok
----------------------
SHARK INTEGRAL PACKAGE
----------------------

Number of atoms                             ...     39
Number of basis functions                   ...    358
Number of shells                            ...    184
Maximum angular momentum                    ...      3
Integral batch strategy                     ... SHARK/LIBINT Hybrid
RI-J (if used) integral strategy            ... SPLIT-RIJ (Revised 2003 algorithm where possible)
Printlevel                                  ...      1
Contraction scheme used                     ... SEGMENTED contraction
Coulomb Range Separation                    ... NOT USED
Exchange Range Separation                   ... NOT USED
Finite Nucleus Model                        ... NOT USED
Auxiliary Coulomb fitting basis             ... AVAILABLE
   # of basis functions in Aux-J            ...   1231
   # of shells in Aux-J                     ...    405
   Maximum angular momentum in Aux-J        ...      4
Auxiliary J/K fitting basis                 ... NOT available
Auxiliary Correlation fitting basis         ... NOT available
Auxiliary 'external' fitting basis          ... NOT available
Integral threshold                          ...     2.500000e-11
Primitive cut-off                           ...     2.500000e-12
Primitive pair pre-selection threshold      ...     2.500000e-12

Calculating pre-screening integrals         ... done (  0.1 sec) Dimension = 184
Organizing shell pair data                  ... done (  0.1 sec)
Shell pair information
Total number of shell pairs                 ...     17020
Shell pairs after pre-screening             ...     13013
Total number of primitive shell pairs       ...     60705
Primitive shell pairs kept                  ...     29308
          la=0 lb=0:   4988 shell pairs
          la=1 lb=0:   4261 shell pairs
          la=1 lb=1:    858 shell pairs
          la=2 lb=0:   1758 shell pairs
          la=2 lb=1:    790 shell pairs
          la=2 lb=2:    181 shell pairs
          la=3 lb=0:    113 shell pairs
          la=3 lb=1:     42 shell pairs
          la=3 lb=2:     21 shell pairs
          la=3 lb=3:      1 shell pairs

Calculating one electron integrals          ... done (  0.1 sec)
Calculating ECP integrals                   ... done (  0.9 sec)
Calculating RI/J V-Matrix + Cholesky decomp.... done (  0.1 sec)
Calculating Nuclear repulsion               ... done (  0.0 sec) ENN=   2044.461577811326 Eh

SHARK setup successfully completed in   1.5 seconds

Maximum memory used throughout the entire GTOINT-calculation: 91.5 MB
-------------------------------------------------------------------------------
                                 ORCA SCF
-------------------------------------------------------------------------------

------------
SCF SETTINGS
------------
Hamiltonian:
 Density Functional     Method          .... DFT(GTOs)
 Exchange Functional    Exchange        .... PBE
   PBE kappa parameter   XKappa         ....  1.024500
   PBE mue parameter    XMuePBE         ....  0.123457
 Correlation Functional Correlation     .... PBE
   PBE beta parameter  CBetaPBE         ....  0.030000
 LDA part of GGA corr.  LDAOpt          .... PW91-LDA
 Gradients option       PostSCFGGA      .... off
 Hybrid DFT is turned on
   Fraction HF Exchange ScalHFX         ....  0.420000
   Scaling of DF-GGA-X  ScalDFX         ....  0.580000
   Scaling of DF-GGA-C  ScalDFC         ....  1.000000
   Scaling of DF-LDA-C  ScalLDAC        ....  1.000000
   Perturbative correction              ....  0.000000
   Density functional embedding theory  .... OFF
 RI-approximation to the Coulomb term is turned on
   Number of AuxJ basis functions       .... 1231
   RIJ-ON(X) (HFX calculated with O(N)) .... on
   Number of AuxJ basis functions       .... 1231
   RIJ-COSX (HFX calculated with COS-X)).... on


General Settings:
 Integral files         IntName         .... reaction4-IEIP_ts_guess_scan_6-2_orca
 Hartree-Fock type      HFTyp           .... RHF
 Total Charge           Charge          ....    1
 Multiplicity           Mult            ....    1
 Number of Electrons    NEL             ....  164
 Basis Dimension        Dim             ....  358
 Nuclear Repulsion      ENuc            ....   2044.4615778113 Eh

Convergence Acceleration:
 DIIS                   CNVDIIS         .... on
   Start iteration      DIISMaxIt       ....    12
   Startup error        DIISStart       ....  0.200000
   # of expansion vecs  DIISMaxEq       ....     5
   Bias factor          DIISBfac        ....   1.050
   Max. coefficient     DIISMaxC        ....  10.000
 Trust-Rad. Augm. Hess. CNVTRAH         .... auto
   Auto Start mean grad. ratio tolernc. ....  1.125000
   Auto Start start iteration           ....    20
   Auto Start num. interpolation iter.  ....    10
   Max. Number of Micro iterations      ....    16
   Max. Number of Macro iterations      .... Maxiter - #DIIS iter
   Number of Davidson start vectors     ....     2
   Converg. threshold I  (grad. norm)   ....   1.000e-05
   Converg. threshold II (energy diff.) ....   1.000e-08
   Grad. Scal. Fac. for Micro threshold ....   0.100
   Minimum threshold for Micro iter.    ....   0.010
   NR start threshold (gradient norm)   ....   0.001
   Initial trust radius                 ....   0.400
   Minimum AH scaling param. (alpha)    ....   1.000
   Maximum AH scaling param. (alpha)    .... 1000.000
   Orbital update algorithm             .... Taylor
   White noise on init. David. guess    .... on
   Maximum white noise                  ....   0.010
   Quad. conv. algorithm                .... NR
   COSX micro iterations for RIJONX calc.... off
 SOSCF                  CNVSOSCF        .... off
 Level Shifting         CNVShift        .... on
   Level shift para.    LevelShift      ....    0.2500
   Turn off err/grad.   ShiftErr        ....    0.0010
 Zerner damping         CNVZerner       .... off
 Static damping         CNVDamp         .... on
   Fraction old density DampFac         ....    0.7000
   Max. Damping (<1)    DampMax         ....    0.9800
   Min. Damping (>=0)   DampMin         ....    0.0000
   Turn off err/grad.   DampErr         ....    0.1000
 Fernandez-Rico         CNVRico         .... off

SCF Procedure:
 Maximum # iterations   MaxIter         ....   250
 SCF integral mode      SCFMode         .... Direct
   Integral package                     .... SHARK and LIBINT hybrid scheme
 Reset frequency        DirectResetFreq ....    20
 Integral Threshold     Thresh          ....  2.500e-11 Eh
 Primitive CutOff       TCut            ....  2.500e-12 Eh

Convergence Tolerance:
 Convergence Check Mode ConvCheckMode   .... Total+1el-Energy
 Convergence forced     ConvForced      .... 0
 Energy Change          TolE            ....  1.000e-08 Eh
 1-El. energy change                    ....  1.000e-05 Eh
 DIIS Error             TolErr          ....  5.000e-07


Diagonalization of the overlap matrix:
Smallest eigenvalue                        ... 1.185e-03
Time for diagonalization                   ...    0.019 sec
Threshold for overlap eigenvalues          ... 1.000e-08
Number of eigenvalues below threshold      ... 0
Time for construction of square roots      ...    0.007 sec
Total time needed                          ...    0.027 sec

--------------------
INITIAL GUESS: HCORE
--------------------
                      -----------------
                      INTIAL GUESS DONE 
                      -----------------
-------------------
DFT GRID GENERATION
-------------------

General Integration Accuracy     IntAcc      ... 4.159
Radial Grid Type                 RadialGrid  ... OptM3 with GC (2021)
Angular Grid (max. ang.)         AngularGrid ... 3 (Lebedev-194)
Angular grid pruning method      GridPruning ... 4 (adaptive)
Weight generation scheme         WeightScheme... Becke
Basis function cutoff            BFCut       ... 1.0000e-11
Integration weight cutoff        WCut        ... 1.0000e-14
Angular grids for H and He will be reduced by one unit
Partially contracted basis set               ... off
Rotationally invariant grid construction     ... off

Total number of grid points                  ...    93256
Total number of batches                      ...     1479
Average number of points per batch           ...       63
Average number of grid points per atom       ...     2391
Time for grid setup =    1.985 sec

--------------------
COSX GRID GENERATION
--------------------

GRIDX 1
-------
General Integration Accuracy     IntAcc      ... 3.816
Radial Grid Type                 RadialGrid  ... OptM3 with GC (2021)
Angular Grid (max. ang.)         AngularGrid ... 1 (Lebedev-50)
Angular grid pruning method      GridPruning ... 4 (adaptive)
Weight generation scheme         WeightScheme... Becke
Basis function cutoff            BFCut       ... 1.0000e-11
Integration weight cutoff        WCut        ... 1.0000e-14
Angular grids for H and He will be reduced by one unit
Partially contracted basis set               ... on
Rotationally invariant grid construction     ... off

Total number of grid points                  ...    23164
Total number of batches                      ...      382
Average number of points per batch           ...       60
Average number of grid points per atom       ...      594
UseSFitting                                  ... on

GRIDX 2
-------
General Integration Accuracy     IntAcc      ... 4.020
Radial Grid Type                 RadialGrid  ... OptM3 with GC (2021)
Angular Grid (max. ang.)         AngularGrid ... 2 (Lebedev-110)
Angular grid pruning method      GridPruning ... 4 (adaptive)
Weight generation scheme         WeightScheme... Becke
Basis function cutoff            BFCut       ... 1.0000e-11
Integration weight cutoff        WCut        ... 1.0000e-14
Angular grids for H and He will be reduced by one unit
Partially contracted basis set               ... on
Rotationally invariant grid construction     ... off

Total number of grid points                  ...    50287
Total number of batches                      ...      806
Average number of points per batch           ...       62
Average number of grid points per atom       ...     1289
UseSFitting                                  ... on

GRIDX 3
-------
General Integration Accuracy     IntAcc      ... 4.338
Radial Grid Type                 RadialGrid  ... OptM3 with GC (2021)
Angular Grid (max. ang.)         AngularGrid ... 3 (Lebedev-194)
Angular grid pruning method      GridPruning ... 4 (adaptive)
Weight generation scheme         WeightScheme... Becke
Basis function cutoff            BFCut       ... 1.0000e-11
Integration weight cutoff        WCut        ... 1.0000e-14
Angular grids for H and He will be reduced by one unit
Partially contracted basis set               ... on
Rotationally invariant grid construction     ... off

Total number of grid points                  ...   108708
Total number of batches                      ...     1718
Average number of points per batch           ...       63
Average number of grid points per atom       ...     2787
UseSFitting                                  ... on

Time for X-Grid setup             =    4.850 sec

--------------
SCF ITERATIONS
--------------
ITER       Energy         Delta-E        Max-DP      RMS-DP      [F,P]     Damp
               ***  Starting incremental Fock matrix formation  ***
  0   -858.8363567115   0.00000000000019.84294502  0.14487049  2.9054209 0.7000
  1  -1095.5868060433-236.75044933179813.43868141  0.15691768  1.4769772 0.7000
  2  -1163.0915301500 -67.504724106719 5.57513930  0.07493480  1.0622661 0.7000
  3  -1188.9587834070 -25.867253256905 3.86997449  0.04880136  0.7726449 0.7000
  4  -1208.6110486828 -19.652265275827 2.72975589  0.03976739  0.4612792 0.7000
  5  -1224.2606035146 -15.649554831798 2.42925337  0.03100044  0.3694175 0.7000
  6  -1234.0502476342  -9.789644119649 1.75110580  0.02997403  0.3398125 0.7000
  7  -1241.4977408419  -7.447493207703 1.97337928  0.02532643  0.3382964 0.7000
  8  -1246.3679919814  -4.870251139420 1.54886322  0.02558001  0.4009180 0.7000
  9  -1250.2103995609  -3.842407579510 1.70470248  0.02402750  0.3662480 0.7000
 10  -1252.6295659654  -2.419166404552 1.46979526  0.02438525  0.4290927 0.7000
 11  -1254.5533966484  -1.923830682954 1.58647150  0.02374284  0.3768797 0.7000
                               ***Turning on DIIS***
 12  -1255.8423005576  -1.288903909212 1.48654777  0.02409380  0.4411998 0.7000
 13  -1256.7276778640  -0.885377306435 1.42610208  0.02047082  0.3812292 0.7000
 14  -1267.4671993760 -10.739521511982 0.98919735  0.01446023  0.2545766 0.7000
 15  -1273.9785261779  -6.511326801883 0.68987637  0.01026081  0.1689468 0.7000
 16  -1278.1108353838  -4.132309205893 0.48139062  0.00725645  0.1126905 0.7000
 17  -1280.8944878164  -2.783652432660 0.33267402  0.00513888  0.1485607 0.7000
 18  -1282.9340281563  -2.039540339842 0.23054783  0.00365613  0.1487313 0.7000
 19  -1284.4305421378  -1.496513981518 0.15664210  0.00269904  0.1420575 0.7000
               *** Restarting incremental Fock matrix formation ***
                                   *** Resetting DIIS ***
 20  -1285.5656765755  -1.135134437692 0.12579217  0.00240466  0.1245562 0.7000
 21  -1286.4565246588  -0.890848083305 0.29131122  0.00544564  0.0468872 0.0000
 22  -1288.4134107793  -1.956886120544 0.03431983  0.00080957  0.0432465 0.0000
 23  -1288.4414301212  -0.028019341916 0.03273207  0.00054426  0.0138800 0.0000
 24  -1288.4448039873  -0.003373866079 0.01823848  0.00021511  0.0139479 0.0000
 25  -1288.4467276275  -0.001923640141 0.00514905  0.00009561  0.0028911 0.0000
 26  -1288.4470443505  -0.000316723021 0.00274072  0.00005222  0.0016961 0.0000
 27  -1288.4471574408  -0.000113090312 0.00231432  0.00003949  0.0010064 0.0000
 28  -1288.4472075176  -0.000050076816 0.00239266  0.00004729  0.0005944 0.0000
               *** Restarting incremental Fock matrix formation ***
                                   *** Resetting DIIS ***
 29  -1288.4483339561  -0.001126438532 0.00406215  0.00008425  0.0006214 0.0000
 30  -1288.4483515469  -0.000017590764 0.00095516  0.00001373  0.0003159 0.0000
 31  -1288.4483514704   0.000000076514 0.00055364  0.00000742  0.0003965 0.0000
 32  -1288.4483535947  -0.000002124290 0.00032811  0.00000253  0.0001049 0.0000
 33  -1288.4483536746  -0.000000079945 0.00021413  0.00000165  0.0001192 0.0000
 34  -1288.4483537452  -0.000000070560 0.00010482  0.00000083  0.0000339 0.0000
 35  -1288.4483537457  -0.000000000535 0.00005715  0.00000054  0.0000187 0.0000
 36  -1288.4483537519  -0.000000006200 0.00003311  0.00000028  0.0000081 0.0000
                 **** Energy Check signals convergence ****

               *****************************************************
               *                     SUCCESS                       *
               *           SCF CONVERGED AFTER  37 CYCLES          *
               *****************************************************

Old exchange energy                            =    -59.661674042 Eh
New exchange energy                            =    -59.661607886 Eh
Exchange energy change after final integration =      0.000066156 Eh
Total energy after final integration           =  -1288.448287592 Eh
Final COS-X integration done in                =    61.903 sec

----------------
TOTAL SCF ENERGY
----------------

Total Energy       :        -1288.44828759 Eh          -35060.46034 eV

Components:
Nuclear Repulsion  :         2044.46157781 Eh           55632.62784 eV
Electronic Energy  :        -3332.90986540 Eh          -90693.08819 eV
One Electron Energy:        -5844.32883323 Eh         -159032.27260 eV
Two Electron Energy:         2511.41896783 Eh           68339.18441 eV
Max COSX asymmetry :            0.00002264 Eh               0.00062 eV

Virial components:
Potential Energy   :        -2501.58361472 Eh          -68071.55085 eV
Kinetic Energy     :         1213.13532713 Eh           33011.09050 eV
Virial Ratio       :            2.06208125


DFT components:
N(Alpha)           :       82.000682197968 electrons
N(Beta)            :       82.000682197968 electrons
N(Total)           :      164.001364395937 electrons
E(X)               :      -79.597065216400 Eh       
E(C)               :       -7.456716495687 Eh       
E(XC)              :      -87.053781712087 Eh       
DFET-embed. en.    :        0.000000000000 Eh       

---------------
SCF CONVERGENCE
---------------

  Last Energy change         ...    4.2121e-09  Tolerance :   1.0000e-08
  Last MAX-Density change    ...    0.0000e+00  Tolerance :   1.0000e-07
  Last RMS-Density change    ...    0.0000e+00  Tolerance :   5.0000e-09
  Last DIIS Error            ...    3.5391e-06  Tolerance :   5.0000e-07

             **** THE GBW FILE WAS UPDATED (reaction4-IEIP_ts_guess_scan_6-2_orca.gbw) ****
             **** DENSITY reaction4-IEIP_ts_guess_scan_6-2_orca.scfp WAS UPDATED ****
             **** ENERGY FILE WAS UPDATED (reaction4-IEIP_ts_guess_scan_6-2_orca.en.tmp) ****
             **** THE GBW FILE WAS UPDATED (reaction4-IEIP_ts_guess_scan_6-2_orca.gbw) ****
             **** DENSITY reaction4-IEIP_ts_guess_scan_6-2_orca.scfp WAS UPDATED ****
----------------
ORBITAL ENERGIES
----------------

  NO   OCC          E(Eh)            E(eV) 
   0   2.0000     -89.767469     -2442.6970 
   1   2.0000     -19.620739      -533.9075 
   2   2.0000     -19.586181      -532.9671 
   3   2.0000     -14.842335      -403.8805 
   4   2.0000     -10.677695      -290.5548 
   5   2.0000     -10.663233      -290.1613 
   6   2.0000     -10.637894      -289.4718 
   7   2.0000     -10.635781      -289.4143 
   8   2.0000     -10.632445      -289.3235 
   9   2.0000     -10.629406      -289.2409 
  10   2.0000     -10.629181      -289.2347 
  11   2.0000     -10.628721      -289.2222 
  12   2.0000     -10.616221      -288.8821 
  13   2.0000     -10.613117      -288.7976 
  14   2.0000     -10.589248      -288.1481 
  15   2.0000     -10.586125      -288.0631 
  16   2.0000     -10.557137      -287.2743 
  17   2.0000     -10.552247      -287.1412 
  18   2.0000     -10.531300      -286.5712 
  19   2.0000      -8.406775      -228.7600 
  20   2.0000      -6.296795      -171.3445 
  21   2.0000      -6.293135      -171.2449 
  22   2.0000      -6.291599      -171.2031 
  23   2.0000      -4.028356      -109.6171 
  24   2.0000      -2.347094       -63.8677 
  25   2.0000      -2.313432       -62.9517 
  26   2.0000      -2.312198       -62.9181 
  27   2.0000      -1.302431       -35.4410 
  28   2.0000      -1.216318       -33.0977 
  29   2.0000      -1.205505       -32.8035 
  30   2.0000      -1.171345       -31.8739 
  31   2.0000      -1.131316       -30.7847 
  32   2.0000      -1.029189       -28.0057 
  33   2.0000      -0.985945       -26.8289 
  34   2.0000      -0.976608       -26.5749 
  35   2.0000      -0.970257       -26.4020 
  36   2.0000      -0.963601       -26.2209 
  37   2.0000      -0.924628       -25.1604 
  38   2.0000      -0.903571       -24.5874 
  39   2.0000      -0.876330       -23.8462 
  40   2.0000      -0.800534       -21.7836 
  41   2.0000      -0.787570       -21.4309 
  42   2.0000      -0.786750       -21.4086 
  43   2.0000      -0.783849       -21.3296 
  44   2.0000      -0.771468       -20.9927 
  45   2.0000      -0.756418       -20.5832 
  46   2.0000      -0.744275       -20.2528 
  47   2.0000      -0.725184       -19.7333 
  48   2.0000      -0.694141       -18.8885 
  49   2.0000      -0.673115       -18.3164 
  50   2.0000      -0.666375       -18.1330 
  51   2.0000      -0.651566       -17.7300 
  52   2.0000      -0.646650       -17.5962 
  53   2.0000      -0.639688       -17.4068 
  54   2.0000      -0.635137       -17.2830 
  55   2.0000      -0.627610       -17.0781 
  56   2.0000      -0.623235       -16.9591 
  57   2.0000      -0.614256       -16.7147 
  58   2.0000      -0.607167       -16.5218 
  59   2.0000      -0.606492       -16.5035 
  60   2.0000      -0.600109       -16.3298 
  61   2.0000      -0.591112       -16.0850 
  62   2.0000      -0.581783       -15.8311 
  63   2.0000      -0.575415       -15.6578 
  64   2.0000      -0.565177       -15.3792 
  65   2.0000      -0.554348       -15.0846 
  66   2.0000      -0.552739       -15.0408 
  67   2.0000      -0.548729       -14.9317 
  68   2.0000      -0.540457       -14.7066 
  69   2.0000      -0.536516       -14.5993 
  70   2.0000      -0.528296       -14.3757 
  71   2.0000      -0.520723       -14.1696 
  72   2.0000      -0.516355       -14.0507 
  73   2.0000      -0.503653       -13.7051 
  74   2.0000      -0.487833       -13.2746 
  75   2.0000      -0.482210       -13.1216 
  76   2.0000      -0.471166       -12.8211 
  77   2.0000      -0.447878       -12.1874 
  78   2.0000      -0.441626       -12.0173 
  79   2.0000      -0.425438       -11.5767 
  80   2.0000      -0.416438       -11.3319 
  81   2.0000      -0.402415       -10.9503 
  82   0.0000      -0.202867        -5.5203 
  83   0.0000      -0.158111        -4.3024 
  84   0.0000      -0.141791        -3.8583 
  85   0.0000      -0.101448        -2.7605 
  86   0.0000      -0.078069        -2.1244 
  87   0.0000      -0.068555        -1.8655 
  88   0.0000      -0.061477        -1.6729 
  89   0.0000      -0.050907        -1.3852 
  90   0.0000      -0.045719        -1.2441 
  91   0.0000      -0.033887        -0.9221 
  92   0.0000      -0.004984        -0.1356 
  93   0.0000      -0.002492        -0.0678 
  94   0.0000       0.012594         0.3427 
  95   0.0000       0.021978         0.5980 
  96   0.0000       0.022671         0.6169 
  97   0.0000       0.034218         0.9311 
  98   0.0000       0.045223         1.2306 
  99   0.0000       0.058961         1.6044 
 100   0.0000       0.068130         1.8539 
 101   0.0000       0.070328         1.9137 
 102   0.0000       0.071518         1.9461 
 103   0.0000       0.080191         2.1821 
 104   0.0000       0.084168         2.2903 
 105   0.0000       0.090573         2.4646 
 106   0.0000       0.093670         2.5489 
 107   0.0000       0.100475         2.7341 
 108   0.0000       0.107478         2.9246 
 109   0.0000       0.112770         3.0686 
 110   0.0000       0.114748         3.1224 
 111   0.0000       0.121521         3.3067 
 112   0.0000       0.122147         3.3238 
 113   0.0000       0.125946         3.4272 
 114   0.0000       0.130824         3.5599 
 115   0.0000       0.138847         3.7782 
 116   0.0000       0.143581         3.9070 
 117   0.0000       0.154088         4.1930 
 118   0.0000       0.158385         4.3099 
 119   0.0000       0.160842         4.3767 
 120   0.0000       0.166089         4.5195 
 121   0.0000       0.181720         4.9448 
 122   0.0000       0.188692         5.1346 
 123   0.0000       0.198932         5.4132 
 124   0.0000       0.223253         6.0750 
 125   0.0000       0.231784         6.3072 
 126   0.0000       0.255299         6.9470 
 127   0.0000       0.262247         7.1361 
 128   0.0000       0.275472         7.4960 
 129   0.0000       0.291694         7.9374 
 130   0.0000       0.303946         8.2708 
 131   0.0000       0.310789         8.4570 
 132   0.0000       0.320873         8.7314 
 133   0.0000       0.335371         9.1259 
 134   0.0000       0.339872         9.2484 
 135   0.0000       0.354473         9.6457 
 136   0.0000       0.359998         9.7960 
 137   0.0000       0.367427         9.9982 
 138   0.0000       0.382524        10.4090 
 139   0.0000       0.397523        10.8172 
 140   0.0000       0.401586        10.9277 
 141   0.0000       0.416985        11.3468 
 142   0.0000       0.424861        11.5611 
 143   0.0000       0.435475        11.8499 
 144   0.0000       0.443668        12.0728 
 145   0.0000       0.449227        12.2241 
 146   0.0000       0.455598        12.3975 
 147   0.0000       0.460037        12.5182 
 148   0.0000       0.468944        12.7606 
 149   0.0000       0.475581        12.9412 
 150   0.0000       0.480325        13.0703 
 151   0.0000       0.488820        13.3015 
 152   0.0000       0.492952        13.4139 
 153   0.0000       0.501022        13.6335 
 154   0.0000       0.507097        13.7988 
 155   0.0000       0.513908        13.9841 
 156   0.0000       0.527029        14.3412 
 157   0.0000       0.530569        14.4375 
 158   0.0000       0.543318        14.7844 
 159   0.0000       0.546258        14.8644 
 160   0.0000       0.555878        15.1262 
 161   0.0000       0.565084        15.3767 
 162   0.0000       0.569736        15.5033 
 163   0.0000       0.585856        15.9420 
 164   0.0000       0.589512        16.0414 
 165   0.0000       0.597003        16.2453 
 166   0.0000       0.611404        16.6371 
[...]

----------------------
LOEWDIN ATOMIC CHARGES
----------------------
   0 Ir:   -0.234686
   1 C :   -0.040382
   2 C :   -0.070236
   3 C :   -0.058933
   4 C :   -0.058226
   5 C :   -0.021678
   6 N :   -0.000165
   7 C :   -0.069491
   8 C :   -0.364101
   9 H :    0.157441
  10 H :    0.133256
  11 H :    0.147055
  12 C :   -0.343357
  13 H :    0.157374
  14 H :    0.152991
  15 H :    0.137118
  16 H :    0.134059
  17 C :    0.033455
  18 C :   -0.173859
  19 H :    0.163297
  20 C :   -0.197018
  21 C :   -0.128393
  22 S :    0.481274
  23 C :   -0.263799
  24 H :    0.293702
  25 H :    0.163721
  26 H :    0.168887
  27 H :    0.184385
  28 H :    0.184945
  29 H :    0.192990
  30 O :   -0.274708
  31 O :   -0.208690
  32 C :    0.150033
  33 C :   -0.376450
  34 H :    0.159013
  35 H :    0.166245
  36 H :    0.152582
  37 H :    0.185509
  38 H :    0.184839

-------------------------------
LOEWDIN REDUCED ORBITAL CHARGES
-------------------------------
  0 Irs       :     2.448315  s :     2.448315
      pz      :     2.244033  p :     6.755285
      px      :     2.242362
      py      :     2.268890
      dz2     :     1.836854  d :     7.941188
      dxz     :     1.729638
      dyz     :     1.288433
      dx2y2   :     1.626807
      dxy     :     1.459456
      f0      :     0.011484  f :     0.089898
      f+1     :     0.003479
      f-1     :     0.013594
      f+2     :     0.017037
      f-2     :     0.016522
      f+3     :     0.011033
      f-3     :     0.016749
  1 C s       :     2.875699  s :     2.875699
      pz      :     1.048024  p :     3.060277
      px      :     1.087152
      py      :     0.925102
      dz2     :     0.026396  d :     0.104406
      dxz     :     0.027064
      dyz     :     0.017603
      dx2y2   :     0.018436
      dxy     :     0.014907
  2 C s       :     2.874784  s :     2.874784
      pz      :     1.046167  p :     3.094214
      px      :     1.076075
      py      :     0.971972
      dz2     :     0.025455  d :     0.101238
      dxz     :     0.027511
      dyz     :     0.017340
      dx2y2   :     0.017950
      dxy     :     0.012982
  3 C s       :     2.873918  s :     2.873918
      pz      :     1.035530  p :     3.083386
      px      :     1.077728
      py      :     0.970128
      dz2     :     0.023974  d :     0.101628
      dxz     :     0.031924
      dyz     :     0.015926
      dx2y2   :     0.015403
      dxy     :     0.014401
  4 C s       :     2.873791  s :     2.873791
      pz      :     1.091894  p :     3.082445
      px      :     1.036625
      py      :     0.953926
      dz2     :     0.022290  d :     0.101990
      dxz     :     0.031409
      dyz     :     0.012999
      dx2y2   :     0.017739
      dxy     :     0.017553
  5 C s       :     2.877520  s :     2.877520
      pz      :     1.060728  p :     3.039622
      px      :     1.034359
      py      :     0.944535
      dz2     :     0.024819  d :     0.104536
      dxz     :     0.030119
      dyz     :     0.015898
      dx2y2   :     0.015567
      dxy     :     0.018133
  6 N s       :     3.123637  s :     3.123637
      pz      :     1.264828  p :     3.777665
      px      :     1.292126
      py      :     1.220711
      dz2     :     0.030509  d :     0.098863
      dxz     :     0.027666
      dyz     :     0.019248
      dx2y2   :     0.011461
      dxy     :     0.009979
  7 C s       :     2.862302  s :     2.862302
      pz      :     1.060645  p :     3.072855
      px      :     0.938148
      py      :     1.074062
      dz2     :     0.023844  d :     0.134334
      dxz     :     0.029404
      dyz     :     0.019089
      dx2y2   :     0.029057
      dxy     :     0.032940
  8 C s       :     2.953218  s :     2.953218
      pz      :     1.131165  p :     3.343448
      px      :     1.123697
      py      :     1.088585
      dz2     :     0.011848  d :     0.067435
      dxz     :     0.018013
      dyz     :     0.010128
      dx2y2   :     0.008906
      dxy     :     0.018540
  9 H s       :     0.842559  s :     0.842559
 10 H s       :     0.866744  s :     0.866744
 11 H s       :     0.852945  s :     0.852945
 12 C s       :     2.953142  s :     2.953142
      pz      :     1.140543  p :     3.322300
      px      :     1.111208
      py      :     1.070549
      dz2     :     0.010150  d :     0.067915
      dxz     :     0.013856
      dyz     :     0.015115
      dx2y2   :     0.010886
      dxy     :     0.017908
 13 H s       :     0.842626  s :     0.842626
 14 H s       :     0.847009  s :     0.847009
 15 H s       :     0.862882  s :     0.862882
 16 H s       :     0.865941  s :     0.865941
 17 C s       :     2.877950  s :     2.877950
      pz      :     1.021464  p :     2.948343
      px      :     1.059741
      py      :     0.867139
      dz2     :     0.040743  d :     0.140251
      dxz     :     0.050822
      dyz     :     0.024651
      dx2y2   :     0.011817
      dxy     :     0.012220
 18 C s       :     2.896576  s :     2.896576
      pz      :     1.041808  p :     3.165030
      px      :     1.089959
      py      :     1.033263
      dz2     :     0.031107  d :     0.112253
      dxz     :     0.030578
      dyz     :     0.017323
      dx2y2   :     0.019963
      dxy     :     0.013282
 19 H s       :     0.836703  s :     0.836703
 20 C s       :     2.905856  s :     2.905856
      pz      :     1.100528  p :     3.199994
      px      :     1.048092
      py      :     1.051374
      dz2     :     0.010843  d :     0.091167
      dxz     :     0.034012
      dyz     :     0.010091
      dx2y2   :     0.018151
      dxy     :     0.018070
 21 C s       :     2.897688  s :     2.897688
      pz      :     1.067674  p :     3.136541
      px      :     1.088598
      py      :     0.980269
      dz2     :     0.025108  d :     0.094164
      dxz     :     0.028637
      dyz     :     0.014296
      dx2y2   :     0.016238
      dxy     :     0.009886
 22 S s       :     5.502685  s :     5.502685
      pz      :     3.289391  p :     9.862424
      px      :     3.081724
      py      :     3.491309
      dz2     :     0.039307  d :     0.153616
      dxz     :     0.033522
      dyz     :     0.023431
      dx2y2   :     0.032820
      dxy     :     0.024535
 23 C s       :     2.964258  s :     2.964258
      pz      :     1.115229  p :     3.213992
      px      :     1.020604
      py      :     1.078159
      dz2     :     0.020833  d :     0.085549
      dxz     :     0.028003
      dyz     :     0.012638
      dx2y2   :     0.013413
      dxy     :     0.010661
 24 H s       :     0.706298  s :     0.706298
 25 H s       :     0.836279  s :     0.836279
 26 H s       :     0.831113  s :     0.831113
 27 H s       :     0.815615  s :     0.815615
 28 H s       :     0.815055  s :     0.815055
 29 H s       :     0.807010  s :     0.807010
 30 O s       :     3.508977  s :     3.508977
      pz      :     1.468548  p :     4.711294
      px      :     1.521917
      py      :     1.720829
      dz2     :     0.017986  d :     0.054438
      dxz     :     0.013033
      dyz     :     0.016053
      dx2y2   :     0.003915
      dxy     :     0.003452
 31 O s       :     3.446966  s :     3.446966
      pz      :     1.694750  p :     4.702823
      px      :     1.631708
      py      :     1.376365
      dz2     :     0.009400  d :     0.058901
      dxz     :     0.003388
      dyz     :     0.016106
      dx2y2   :     0.015809
      dxy     :     0.014198
 32 C s       :     2.814281  s :     2.814281
      pz      :     1.008169  p :     2.712967
      px      :     0.755065
      py      :     0.949733
      dz2     :     0.076847  d :     0.322719
      dxz     :     0.044158
      dyz     :     0.108098
      dx2y2   :     0.045380
      dxy     :     0.048236
 33 C s       :     2.960080  s :     2.960080
      pz      :     1.095301  p :     3.353676
      px      :     1.149143
      py      :     1.109231
      dz2     :     0.006141  d :     0.062694
      dxz     :     0.017306
      dyz     :     0.018813
      dx2y2   :     0.018097
      dxy     :     0.002336
 34 H s       :     0.840987  s :     0.840987
 35 H s       :     0.833755  s :     0.833755
 36 H s       :     0.847418  s :     0.847418
 37 H s       :     0.814491  s :     0.814491
 38 H s       :     0.815161  s :     0.815161


                      *****************************
                      * MAYER POPULATION ANALYSIS *
                      *****************************

  NA   - Mulliken gross atomic population
  ZA   - Total nuclear charge
  QA   - Mulliken gross atomic charge
  VA   - Mayer's total valence
  BVA  - Mayer's bonded valence
  FA   - Mayer's free valence

  ATOM       NA         ZA         QA         VA         BVA        FA
  0 Ir    16.3910    17.0000     0.6090     3.7420     3.7420    -0.0000
  1 C      6.2114     6.0000    -0.2114     3.7029     3.7029    -0.0000
  2 C      6.2833     6.0000    -0.2833     3.7413     3.7413     0.0000
  3 C      6.2399     6.0000    -0.2399     3.7348     3.7348    -0.0000
  4 C      6.2468     6.0000    -0.2468     3.7230     3.7230    -0.0000
  5 C      6.1640     6.0000    -0.1640     3.6952     3.6952    -0.0000
  6 N      7.4235     7.0000    -0.4235     3.2169     3.2169    -0.0000
  7 C      6.1226     6.0000    -0.1226     3.6977     3.6977     0.0000
  8 C      6.6910     6.0000    -0.6910     3.6858     3.6858    -0.0000
  9 H      0.7279     1.0000     0.2721     0.8966     0.8966     0.0000
 10 H      0.7753     1.0000     0.2247     0.9101     0.9101    -0.0000
 11 H      0.7389     1.0000     0.2611     0.8973     0.8973    -0.0000
 12 C      6.6373     6.0000    -0.6373     3.6727     3.6727    -0.0000
 13 H      0.7166     1.0000     0.2834     0.8748     0.8748    -0.0000
 14 H      0.7359     1.0000     0.2641     0.8968     0.8968     0.0000
 15 H      0.7693     1.0000     0.2307     0.9096     0.9096     0.0000
 16 H      0.7672     1.0000     0.2328     0.9057     0.9057    -0.0000
 17 C      5.9280     6.0000     0.0720     3.6334     3.6334     0.0000
 18 C      6.1711     6.0000    -0.1711     3.7106     3.7106    -0.0000
 19 H      0.7080     1.0000     0.2920     0.8857     0.8857    -0.0000
 20 C      6.4872     6.0000    -0.4872     3.4705     3.4705     0.0000
 21 C      6.1161     6.0000    -0.1161     3.7399     3.7399     0.0000
 22 S     15.6858    16.0000     0.3142     2.5882     2.5882     0.0000
 23 C      6.4338     6.0000    -0.4338     3.7453     3.7453     0.0000
 24 H      0.5040     1.0000     0.4960     0.7454     0.7454     0.0000
 25 H      0.7313     1.0000     0.2687     0.9022     0.9022     0.0000
 26 H      0.7010     1.0000     0.2990     0.8968     0.8968     0.0000
 27 H      0.7099     1.0000     0.2901     0.9024     0.9024     0.0000
 28 H      0.7092     1.0000     0.2908     0.9057     0.9057    -0.0000
 29 H      0.6945     1.0000     0.3055     0.8922     0.8922    -0.0000
 30 O      8.4751     8.0000    -0.4751     2.1340     2.1340     0.0000
 31 O      8.5396     8.0000    -0.5396     2.0731     2.0731    -0.0000
 32 C      5.3874     6.0000     0.6126     3.9255     3.9255     0.0000
 33 C      6.7446     6.0000    -0.7446     3.6697     3.6697    -0.0000
 34 H      0.7315     1.0000     0.2685     0.8957     0.8957    -0.0000
 35 H      0.7349     1.0000     0.2651     0.8959     0.8959    -0.0000
 36 H      0.7483     1.0000     0.2517     0.9015     0.9015     0.0000
 37 H      0.7096     1.0000     0.2904     0.9037     0.9037     0.0000
 38 H      0.7073     1.0000     0.2927     0.9040     0.9040    -0.0000

  Mayer bond orders larger than 0.100000
B(  0-Ir,  1-C ) :   0.4168 B(  0-Ir,  2-C ) :   0.5056 B(  0-Ir,  3-C ) :   0.4617 
B(  0-Ir,  4-C ) :   0.4469 B(  0-Ir,  5-C ) :   0.3998 B(  0-Ir,  6-N ) :   0.4604 
B(  0-Ir, 20-C ) :   0.2962 B(  0-Ir, 31-O ) :   0.5798 B(  1-C ,  2-C ) :   1.1236 
B(  1-C ,  4-C ) :   1.2448 B(  1-C , 27-H ) :   0.9039 B(  2-C ,  5-C ) :   1.1440 
B(  2-C , 28-H ) :   0.9083 B(  3-C ,  4-C ) :   1.1077 B(  3-C ,  5-C ) :   1.2274 
B(  3-C , 37-H ) :   0.9063 B(  4-C , 38-H ) :   0.9003 B(  5-C , 29-H ) :   0.8982 
B(  6-N ,  7-C ) :   0.8919 B(  6-N , 17-C ) :   1.6879 B(  7-C ,  8-C ) :   0.9915 
B(  7-C , 12-C ) :   0.9683 B(  7-C , 13-H ) :   0.8713 B(  8-C ,  9-H ) :   0.9037 
B(  8-C , 10-H ) :   0.9128 B(  8-C , 11-H ) :   0.9082 B( 12-C , 14-H ) :   0.9065 
B( 12-C , 15-H ) :   0.9155 B( 12-C , 16-H ) :   0.9116 B( 17-C , 18-C ) :   1.0593 
B( 17-C , 19-H ) :   0.8744 B( 18-C , 20-C ) :   1.2723 B( 18-C , 22-S ) :   1.2465 
B( 20-C , 21-C ) :   1.2533 B( 20-C , 24-H ) :   0.4752 B( 21-C , 23-C ) :   1.5542 
B( 21-C , 25-H ) :   0.9033 B( 22-S , 23-C ) :   1.1995 B( 23-C , 26-H ) :   0.8915 
B( 24-H , 30-O ) :   0.2444 B( 30-O , 32-C ) :   1.7013 B( 31-O , 32-C ) :   1.2742 
B( 32-C , 33-C ) :   0.9450 B( 33-C , 34-H ) :   0.9055 B( 33-C , 35-H ) :   0.8996 
B( 33-C , 36-H ) :   0.9099 


------------------
HIRSHFELD ANALYSIS
------------------

Total integrated alpha density =     82.000682523
Total integrated beta density  =     82.000682523

  ATOM     CHARGE      SPIN    
   0 Ir   0.197419    0.000000
   1 C    0.006691    0.000000
   2 C   -0.002702    0.000000
   3 C   -0.001923    0.000000
   4 C   -0.006056    0.000000
   5 C    0.019087    0.000000
   6 N   -0.063717    0.000000
   7 C    0.054038    0.000000
   8 C   -0.071009    0.000000
   9 H    0.054097    0.000000
  10 H    0.037594    0.000000
  11 H    0.043948    0.000000
  12 C   -0.070279    0.000000
  13 H    0.047129    0.000000
  14 H    0.051645    0.000000
  15 H    0.036549    0.000000
  16 H    0.030852    0.000000
  17 C    0.100728    0.000000
  18 C    0.002141    0.000000
  19 H    0.079383    0.000000
  20 C   -0.069334    0.000000
  21 C   -0.026199    0.000000
  22 S    0.134122    0.000000
  23 C   -0.026927    0.000000
  24 H    0.064040    0.000000
  25 H    0.071225    0.000000
  26 H    0.078441    0.000000
  27 H    0.083256    0.000000
  28 H    0.084486    0.000000
  29 H    0.094321    0.000000
  30 O   -0.264019    0.000000
  31 O   -0.260793    0.000000
  32 C    0.239116    0.000000
  33 C   -0.068259    0.000000
  34 H    0.053663    0.000000
  35 H    0.058372    0.000000
  36 H    0.047588    0.000000
  37 H    0.084040    0.000000
  38 H    0.075884    0.000000

  TOTAL   0.998635    0.000000

-------
TIMINGS
-------

Total SCF time: 0 days 0 hours 4 min 42 sec 

Total time                  ....     282.736 sec
Sum of individual times     ....     282.233 sec  ( 99.8%)

Fock matrix formation       ....     273.834 sec  ( 96.9%)
  Split-RI-J                ....      20.244 sec  (  7.4% of F)
  Chain of spheres X        ....     238.892 sec  ( 87.2% of F)
  XC integration            ....      14.703 sec  (  5.4% of F)
    Basis function eval.    ....       6.856 sec  ( 46.6% of XC)
    Density eval.           ....       3.898 sec  ( 26.5% of XC)
    XC-Functional eval.     ....       1.075 sec  (  7.3% of XC)
    XC-Potential eval.      ....       2.337 sec  ( 15.9% of XC)
Diagonalization             ....       0.222 sec  (  0.1%)
Density matrix formation    ....       0.035 sec  (  0.0%)
Population analysis         ....       1.478 sec  (  0.5%)
Initial guess               ....       0.028 sec  (  0.0%)
Orbital Transformation      ....       0.000 sec  (  0.0%)
Orbital Orthonormalization  ....       0.021 sec  (  0.0%)
DIIS solution               ....       0.081 sec  (  0.0%)
Grid generation             ....       6.556 sec  (  2.3%)

Maximum memory used throughout the entire SCF-calculation: 173.9 MB


-------------------------------------------------------------------------------
                          DFT DISPERSION CORRECTION                            
                                                                               
                              DFTD3 V3.1  Rev 1                                
                          USING Becke-Johnson damping                          
-------------------------------------------------------------------------------
The PBEh-3c composite method is recognized
Using three-body term ABC
Active option DFTDOPT                   ...         4   

molecular C6(AA) [au] = 19546.795040 


            DFT-D V3
 parameters
 s6 scaling factor         :     1.0000 
 a1 scaling factor         :     0.4860 
 s8 scaling factor         :     0.0000 
 a2 scaling factor         :     4.5000 
 Damping factor alpha9(ATM):    16.0000 
 ad hoc parameters k1-k3   :    16.0000     1.3333    -4.0000 

 Edisp/kcal,au: -19.424749129889  -0.030955304837 
 E6   /kcal   : -19.774102501 
 E8   /kcal   :  -0.000000000 
 E6(ABC)      :   0.349353371 
 % E8         :   0.000000000 
 % E6(ABC)    :  -1.798496179 

-------------------------   ----------------
Dispersion correction           -0.030955305
-------------------------   ----------------

 ** NOTE ** -> element ir will be treated as co
NOTIFICATION: Different basis set in ORCA and otool_gcp:
ORCA: 358  gCP: 357 
If you are NOT using ECPs, check your basis set inputs!
------------------   -----------------
gCP correction             0.079127996
------------------   -----------------

-------------------------   --------------------
FINAL SINGLE POINT ENERGY     -1288.400383092782
-------------------------   --------------------

                                *** OPTIMIZATION RUN DONE ***

                            ***************************************
                            *     ORCA property calculations      *
                            ***************************************

                                    ---------------------
                                    Active property flags
                                    ---------------------
   (+) Dipole Moment


------------------------------------------------------------------------------
                       ORCA ELECTRIC PROPERTIES CALCULATION
------------------------------------------------------------------------------

Dipole Moment Calculation                       ... on
Quadrupole Moment Calculation                   ... off
Polarizability Calculation                      ... off
GBWName                                         ... reaction4-IEIP_ts_guess_scan_6-2_orca.gbw
Electron density                                ... reaction4-IEIP_ts_guess_scan_6-2_orca.scfp
The origin for moment calculation is the CENTER OF MASS  = ( 0.863244, -0.610709 -0.159802)

-------------
DIPOLE MOMENT
-------------
                                X             Y             Z
Electronic contribution:     37.35468     -67.17060      70.90081
Nuclear contribution   :    -37.98306      65.96277     -71.30998
                        -----------------------------------------
Total Dipole Moment    :     -0.62838      -1.20782      -0.40917
                        -----------------------------------------
Magnitude (a.u.)       :      1.42166
Magnitude (Debye)      :      3.61357



--------------------
Rotational spectrum 
--------------------
 
Rotational constants in cm-1:     0.010713     0.009152     0.008265 
Rotational constants in MHz :   321.173027   274.358432   247.785192 

 Dipole components along the rotational axes: 
x,y,z [a.u.] :    -0.382236    -0.370416     1.318256 
x,y,z [Debye]:    -0.971565    -0.941522     3.350742 

 

Timings for individual modules:

Sum of individual times         ...     5954.622 sec (=  99.244 min)
GTO integral calculation        ...       20.347 sec (=   0.339 min)   0.3 %
SCF iterations                  ...     4747.822 sec (=  79.130 min)  79.7 %
SCF Gradient evaluation         ...     1174.421 sec (=  19.574 min)  19.7 %
Geometry relaxation             ...       12.032 sec (=   0.201 min)   0.2 %
                             ****ORCA TERMINATED NORMALLY****
TOTAL RUN TIME: 0 days 1 hours 39 minutes 21 seconds 340 msec
