
                                 *****************
                                 * O   R   C   A *
                                 *****************

                                            #,                                       
                                            ###                                      
                                            ####                                     
                                            #####                                    
                                            ######                                   
                                           ########,                                 
                                     ,,################,,,,,                         
                               ,,#################################,,                 
                          ,,##########################################,,             
                       ,#########################################, ''#####,          
                    ,#############################################,,   '####,        
                  ,##################################################,,,,####,       
                ,###########''''           ''''###############################       
              ,#####''   ,,,,##########,,,,          '''####'''          '####       
            ,##' ,,,,###########################,,,                        '##       
           ' ,,###''''                  '''############,,,                           
         ,,##''                                '''############,,,,        ,,,,,,###''
      ,#''                                            '''#######################'''  
     '                                                          ''''####''''         
             ,#######,   #######,   ,#######,      ##                                
            ,#'     '#,  ##    ##  ,#'     '#,    #''#        ######   ,####,        
            ##       ##  ##   ,#'  ##            #'  '#       #        #'  '#        
            ##       ##  #######   ##           ,######,      #####,   #    #        
            '#,     ,#'  ##    ##  '#,     ,#' ,#      #,         ##   #,  ,#        
             '#######'   ##     ##  '#######'  #'      '#     #####' # '####'        



                  #######################################################
                  #                        -***-                        #
                  #          Department of theory and spectroscopy      #
                  #    Directorship and core code : Frank Neese         #
                  #        Max Planck Institute fuer Kohlenforschung    #
                  #                Kaiser Wilhelm Platz 1               #
                  #                 D-45470 Muelheim/Ruhr               #
                  #                      Germany                        #
                  #                                                     #
                  #                  All rights reserved                #
                  #                        -***-                        #
                  #######################################################


                         Program Version 5.0.3 -  RELEASE  -


 With contributions from (in alphabetic order):
   Daniel Aravena         : Magnetic Suceptibility
   Michael Atanasov       : Ab Initio Ligand Field Theory (pilot matlab implementation)
   Alexander A. Auer      : GIAO ZORA, VPT2 properties, NMR spectrum
   Ute Becker             : Parallelization
   Giovanni Bistoni       : ED, misc. LED, open-shell LED, HFLD
   Martin Brehm           : Molecular dynamics
   Dmytro Bykov           : SCF Hessian
   Vijay G. Chilkuri      : MRCI spin determinant printing, contributions to CSF-ICE
   Dipayan Datta          : RHF DLPNO-CCSD density
   Achintya Kumar Dutta   : EOM-CC, STEOM-CC
   Dmitry Ganyushin       : Spin-Orbit,Spin-Spin,Magnetic field MRCI
   Miquel Garcia          : C-PCM and meta-GGA Hessian, CC/C-PCM, Gaussian charge scheme
   Yang Guo               : DLPNO-NEVPT2, F12-NEVPT2, CIM, IAO-localization
   Andreas Hansen         : Spin unrestricted coupled pair/coupled cluster methods
   Benjamin Helmich-Paris : MC-RPA, TRAH-SCF, COSX integrals
   Lee Huntington         : MR-EOM, pCC
   Robert Izsak           : Overlap fitted RIJCOSX, COSX-SCS-MP3, EOM
   Marcus Kettner         : VPT2
   Christian Kollmar      : KDIIS, OOCD, Brueckner-CCSD(T), CCSD density, CASPT2, CASPT2-K
   Simone Kossmann        : Meta GGA functionals, TD-DFT gradient, OOMP2, MP2 Hessian
   Martin Krupicka        : Initial AUTO-CI
   Lucas Lang             : DCDCAS
   Marvin Lechner         : AUTO-CI (C++ implementation), FIC-MRCC
   Dagmar Lenk            : GEPOL surface, SMD
   Dimitrios Liakos       : Extrapolation schemes; Compound Job, initial MDCI parallelization
   Dimitrios Manganas     : Further ROCIS development; embedding schemes
   Dimitrios Pantazis     : SARC Basis sets
   Anastasios Papadopoulos: AUTO-CI, single reference methods and gradients
   Taras Petrenko         : DFT Hessian,TD-DFT gradient, ASA, ECA, R-Raman, ABS, FL, XAS/XES, NRVS
   Peter Pinski           : DLPNO-MP2, DLPNO-MP2 Gradient
   Christoph Reimann      : Effective Core Potentials
   Marius Retegan         : Local ZFS, SOC
   Christoph Riplinger    : Optimizer, TS searches, QM/MM, DLPNO-CCSD(T), (RO)-DLPNO pert. Triples
   Tobias Risthaus        : Range-separated hybrids, TD-DFT gradient, RPA, STAB
   Michael Roemelt        : Original ROCIS implementation
   Masaaki Saitow         : Open-shell DLPNO-CCSD energy and density
   Barbara Sandhoefer     : DKH picture change effects
   Avijit Sen             : IP-ROCIS
   Kantharuban Sivalingam : CASSCF convergence, NEVPT2, FIC-MRCI
   Bernardo de Souza      : ESD, SOC TD-DFT
   Georgi Stoychev        : AutoAux, RI-MP2 NMR, DLPNO-MP2 response
   Willem Van den Heuvel  : Paramagnetic NMR
   Boris Wezisla          : Elementary symmetry handling
   Frank Wennmohs         : Technical directorship


 We gratefully acknowledge several colleagues who have allowed us to
 interface, adapt or use parts of their codes:
   Stefan Grimme, W. Hujo, H. Kruse, P. Pracht,  : VdW corrections, initial TS optimization,
                  C. Bannwarth, S. Ehlert          DFT functionals, gCP, sTDA/sTD-DF
   Ed Valeev, F. Pavosevic, A. Kumar             : LibInt (2-el integral package), F12 methods
   Garnet Chan, S. Sharma, J. Yang, R. Olivares  : DMRG
   Ulf Ekstrom                                   : XCFun DFT Library
   Mihaly Kallay                                 : mrcc  (arbitrary order and MRCC methods)
   Jiri Pittner, Ondrej Demel                    : Mk-CCSD
   Frank Weinhold                                : gennbo (NPA and NBO analysis)
   Christopher J. Cramer and Donald G. Truhlar   : smd solvation model
   Lars Goerigk                                  : TD-DFT with DH, B97 family of functionals
   V. Asgeirsson, H. Jonsson                     : NEB implementation
   FAccTs GmbH                                   : IRC, NEB, NEB-TS, DLPNO-Multilevel, CI-OPT
                                                   MM, QMMM, 2- and 3-layer-ONIOM, Crystal-QMMM,
                                                   LR-CPCM, SF, NACMEs, symmetry and pop. for TD-DFT,
                                                   nearIR, NL-DFT gradient (VV10), updates on ESD,
                                                   ML-optimized integration grids
   S Lehtola, MJT Oliveira, MAL Marques          : LibXC Library
   Liviu Ungur et al                             : ANISO software


 Your calculation uses the libint2 library for the computation of 2-el integrals
 For citations please refer to: http://libint.valeyev.net

 Your ORCA version has been built with support for libXC version: 5.1.0
 For citations please refer to: https://tddft.org/programs/libxc/

 This ORCA versions uses:
   CBLAS   interface :  Fast vector & matrix operations
   LAPACKE interface :  Fast linear algebra routines
   SCALAPACK package :  Parallel linear algebra routines
   Shared memory     :  Shared parallel matrices
   BLAS/LAPACK       :  OpenBLAS 0.3.15  USE64BITINT DYNAMIC_ARCH NO_AFFINITY SkylakeX SINGLE_THREADED
        Core in use  :  SkylakeX
   Copyright (c) 2011-2014, The OpenBLAS Project


Your calculation utilizes the geometrical counterpoise correction gCP
Please cite in your paper:
H.Kruse, S. Grimme J.Chem.Phys., 136, (2012), 154101 
   

Your calculation utilizes the atom-pairwise dispersion correction
with the Becke-Johnson damping scheme (D3BJ)
Cite in your paper:
S.Grimme, S.Ehrlich, L.Goerigk, J Comput Chem, (2011), 32, 1456–1465 
S.Grimme, J.Antony, S.Ehrlich and H.Krieg, J.Chem.Phys., 132, (2010), 154104 
   

Your calculation employs the composite approach PBEh-3c.
Please cite in your paper:
S. Grimme, J. G. Brandenburg, C. Bannwarth, A. Hansen J.Chem.Phys., 143, (2015), 054107 
   

================================================================================

cite the ECPs for Ir [Def2-ECP] as follows:
Ce-Yb(ecp-28): M. Dolg, H. Stoll, H.Preuss, J. Chem. Phys., 1989, 90, 1730-1734.
Y-Cd(ecp-28), Hf-Hg(ecp-46): D. Andrae,U. Haeussermann, M. Dolg, H. Stoll, H. Preuss, Theor. Chim. Acta, 1990, 77, 123-141.
In-Sb(ecp-28), Tl-Bi(ecp-46): B. Metz, H. Stoll, M. Dolg, J. Chem. Phys., 2000, 113, 2563-2569.
Te-Xe(ecp-28), Po-Rn(ecp-46): K. A. Peterson, D. Figgen, E. Goll, H. Stoll, M. Dolg, J. Chem. Phys., 2003, 119, 11113-11123.
Rb(ecp-28), Cs(ecp-46): T. Leininger, A. Nicklass, W. Kuechle, H. Stoll, M. Dolg, A. Bergner, Chem. Phys. Lett., 1996, 255, 274-280.
Sr(ecp-28), Ba(ecp-46): M. Kaupp, P. V. Schleyer, H. Stoll and H. Preuss, J. Chem. Phys., 1991, 94, 1360-1366.
La(ecp-46): M. Dolg, H. Stoll, A. Savin, H. Preuss, Theor. Chim. Acta, 1989, 75, 173-194.
Lu(ecp-28): X. Cao, M. Dolg, J. Chem. Phys., 2001, 115, 7348-7355.

ECP parameters for Ir [Def2-ECP] have been obtained from:
TURBOMOLE (7.0.2)

----- Orbital basis set information -----
Your calculation utilizes the basis: def2-mSVP

----- AuxJ basis set information -----
Your calculation utilizes the auxiliary basis: def2/J
   F. Weigend, Phys. Chem. Chem. Phys. 8, 1057 (2006).

================================================================================
                                        WARNINGS
                       Please study these warnings very carefully!
================================================================================


WARNING: Geometry Optimization
  ===> : Switching off AutoStart
         For restart on a previous wavefunction, please use MOREAD

WARNING: No Hueckel Guess possible with ECP basis!
  ===> : Switching to HCORE guess!

INFO   : the flag for use of the SHARK integral package has been found!

================================================================================
                                       INPUT FILE
================================================================================
NAME = reaction4-IEIP_ts_guess_scan_14-7_orca.inp
|  1> ! Opt PBEh-3c
|  2> %geom Constraints
|  3> { B 0 20 2.0 C }
|  4> { B 24 30 1.4 C }
|  5>     end
|  6> end
|  7> %output 
|  8> xyzfile=True 
|  9> end 
| 10> %scf 
| 11> maxiter 250 
| 12> end
| 13> %output
| 14> Print[P_Hirshfeld] = 1
| 15> end
| 16> % maxcore
| 17> 4000
| 18> *xyz 1 1
| 19> Ir   0.62195679  -0.73185506   0.39481092 
| 20> C    0.16901721  -2.85358425   0.31812691 
| 21> C   -0.07868173  -2.41749418   1.66897518 
| 22> C    2.15440644  -2.05424373   1.18772881 
| 23> C    1.54086288  -2.65621534   0.03894975 
| 24> C    1.14362096  -1.94402255   2.18781938 
| 25> N   -1.07517959   0.11684877  -0.51115184 
| 26> C   -2.33972045   0.31119650   0.21244415 
| 27> C   -3.13257947   1.52441884  -0.25204205 
| 28> H   -3.95915126   1.68925906   0.43725850 
| 29> H   -3.57359183   1.39041305  -1.24073977 
| 30> H   -2.52547160   2.42998055  -0.25783467 
| 31> C   -3.16921163  -0.96544964   0.12500527 
| 32> H   -2.04926188   0.47244008   1.25170715 
| 33> H   -4.06693711  -0.86748885   0.73406425 
| 34> H   -3.48181606  -1.16095429  -0.90152162 
| 35> H   -2.62113167  -1.83491622   0.48420329 
| 36> C   -0.93116662   0.48278671  -1.73223145 
| 37> C    0.38497929   0.29883576  -2.26223017 
| 38> H   -1.73818742   0.92754539  -2.30486630 
| 39> C    1.40067877   0.01745172  -1.33879707 
| 40> C    2.62608699  -0.21685040  -2.04725519 
| 41> S    0.90213039   0.30105760  -3.87401675 
| 42> C    2.50081729  -0.09212317  -3.39594853 
| 43> H    1.60979857   1.13625441  -0.69937286 
| 44> H    3.57341434  -0.40774709  -1.56372845 
| 45> H    3.27379006  -0.18870544  -4.14319064 
| 46> H   -0.55111943  -3.30154301  -0.35082693 
| 47> H   -1.01379473  -2.47695756   2.20433832 
| 48> H    1.27870426  -1.49936790   3.16365156 
| 49> O    1.71249611   2.32953669   0.05278051 
| 50> O    0.59645826   1.03292831   1.47766960 
| 51> C    1.13938806   2.13167935   1.14154592 
| 52> C    1.10024238   3.24313567   2.14971734 
| 53> H    0.99579942   4.20627029   1.65581146 
| 54> H    2.04636074   3.25890545   2.69355216 
| 55> H    0.29881437   3.10207554   2.86952151 
| 56> H    3.20099340  -1.82443064   1.31419122 
| 57> H    2.03555558  -2.90988049  -0.88737874 
| 58> *
| 59> 
| 60>                          ****END OF INPUT****
================================================================================

                       *****************************
                       * Geometry Optimization Run *
                       *****************************

Geometry optimization settings:
Update method            Update   .... BFGS
Choice of coordinates    CoordSys .... Z-matrix Internals
Initial Hessian          InHess   .... Almoef's Model

Convergence Tolerances:
Energy Change            TolE     ....  5.0000e-06 Eh
Max. Gradient            TolMAXG  ....  3.0000e-04 Eh/bohr
RMS Gradient             TolRMSG  ....  1.0000e-04 Eh/bohr
Max. Displacement        TolMAXD  ....  4.0000e-03 bohr
RMS Displacement         TolRMSD  ....  2.0000e-03 bohr
Strict Convergence                ....  False
------------------------------------------------------------------------------
                        ORCA OPTIMIZATION COORDINATE SETUP
------------------------------------------------------------------------------

The optimization will be done in new redundant internal coordinates
Making redundant internal coordinates   ...  (new redundants) done
Evaluating the initial hessian          ...  (Almloef) done
Evaluating the coordinates              ...  done
Calculating the B-matrix                .... done
Calculating the G-matrix                .... done
Diagonalizing the G-matrix              .... done
Imposing constraints:
 Iter   0:  RMS(Cart)=    0.0186592399 RMS(Int)=    0.0065199684
 Iter   1:  RMS(Cart)=    0.0020325352 RMS(Int)=    0.0007415348
 Iter   2:  RMS(Cart)=    0.0002306050 RMS(Int)=    0.0000839182
 Iter   3:  RMS(Cart)=    0.0000260456 RMS(Int)=    0.0000094460
 Iter   4:  RMS(Cart)=    0.0000029290 RMS(Int)=    0.0000010606
 Iter   5:  RMS(Cart)=    0.0000003287 RMS(Int)=    0.0000001190
 Iter   6:  RMS(Cart)=    0.0000000369 RMS(Int)=    0.0000000133
CONVERGED
Small eigenvalue found = 1.428e-02
Small eigenvalue found = 2.174e-02
The first mode is                       ....  280
The number of degrees of freedom        ....  111
Storing new coordinates                 .... done

    -----------------------------------------------------------------
                    Redundant Internal Coordinates


    -----------------------------------------------------------------
         Definition                    Initial Value    Approx d2E/dq
    -----------------------------------------------------------------
      1. B(C   1,Ir  0)                  2.1707         0.082571   
      2. B(C   2,C   1)                  1.4409         0.518156   
      3. B(C   2,Ir  0)                  2.2259         0.067399   
      4. B(C   3,Ir  0)                  2.1737         0.081664   
      5. B(C   4,C   3)                  1.4344         0.530088   
      6. B(C   4,Ir  0)                  2.1619         0.085316   
      7. B(C   4,C   1)                  1.4141         0.572471   
      8. B(C   5,Ir  0)                  2.2259         0.067366   
      9. B(C   5,C   2)                  1.4106         0.581068   
     10. B(C   5,C   3)                  1.4273         0.547016   
     11. B(N   6,Ir  0)                  2.1032         0.095008   
     12. B(C   7,N   6)                  1.4698         0.417348   
     13. B(C   8,C   7)                  1.5219         0.384811   
     14. B(H   9,C   8)                  1.0888         0.361665   
     15. B(H  10,C   8)                  1.0909         0.358966   
     16. B(H  11,C   8)                  1.0903         0.359763   
     17. B(C  12,C   7)                  1.5250         0.380545   
     18. B(H  13,C   7)                  1.0911         0.358688   
     19. B(H  14,C  12)                  1.0893         0.361097   
     20. B(H  15,C  12)                  1.0907         0.359130   
     21. B(H  16,C  12)                  1.0888         0.361751   
     22. B(C  17,N   6)                  1.2780         0.829541   
     23. B(C  18,C  17)                  1.4261         0.537976   
     24. B(H  19,C  17)                  1.0849         0.366913   
     25. B(C  20,Ir  0)                  2.0000         0.132159 C 
     26. B(C  20,C  18)                  1.4025         0.599462   
     27. B(C  21,C  20)                  1.4354         0.530130   
     28. B(S  22,C  18)                  1.6926         0.554030   
     29. B(C  23,C  21)                  1.3601         0.697005   
     30. B(C  23,S  22)                  1.7136         0.511744   
     31. B(H  24,C  20)                  1.3059         0.163161   
     32. B(H  25,C  21)                  1.0806         0.372770   
     33. B(H  26,C  23)                  1.0795         0.374347   
     34. B(H  27,C   1)                  1.0802         0.373344   
     35. B(H  28,C   2)                  1.0792         0.374730   
     36. B(H  29,C   5)                  1.0808         0.372425   
     37. B(O  30,H  24)                  1.4000         0.097990 C 
     38. B(O  31,Ir  0)                  2.0702         0.106869   
     39. B(C  32,O  30)                  1.2463         0.949078   
     40. B(C  32,O  31)                  1.2706         0.866973   
     41. B(C  33,C  32)                  1.5011         0.415430   
     42. B(H  34,C  33)                  1.0874         0.363531   
     43. B(H  35,C  33)                  1.0914         0.358258   
     44. B(H  36,C  33)                  1.0864         0.364871   
     45. B(H  37,C   3)                  1.0790         0.375007   
     46. B(H  38,C   4)                  1.0804         0.373098   
     47. A(C   1,Ir  0,N   6)          102.1252         0.248592   
     48. A(C   1,Ir  0,C   3)           64.2595         0.244328   
     49. A(C   2,Ir  0,N   6)          107.2643         0.241424   
     50. A(C   2,Ir  0,C   5)           36.9473         0.231028   
     51. A(N   6,Ir  0,O  31)           82.6076         0.256976   
     52. A(C  20,Ir  0,O  31)           97.8248         0.271309   
     53. A(C   2,Ir  0,C  20)          152.0223         0.254430   
     54. A(C   2,Ir  0,O  31)          110.0224         0.245537   
     55. A(C   1,Ir  0,C   5)           62.9674         0.237707   
     56. A(C   3,Ir  0,C   4)           38.6393         0.245482   
     57. A(C   2,Ir  0,C   3)           63.4657         0.237352   
     58. A(C   3,Ir  0,C  20)          105.1803         0.261776   
     59. A(C   4,Ir  0,N   6)          129.1409         0.249777   
     60. A(C   1,Ir  0,O  31)          148.1063         0.252898   
     61. A(C   5,Ir  0,O  31)           92.6250         0.245520   
     62. A(C   5,Ir  0,C  20)          142.4566         0.254411   
     63. A(C   4,Ir  0,C  20)           91.3391         0.263496   
     64. A(C   2,Ir  0,C   4)           63.5361         0.238829   
     65. A(C   1,Ir  0,C  20)          114.0508         0.262209   
     66. A(C   3,Ir  0,N   6)          166.2950         0.248193   
     67. A(C   1,Ir  0,C   4)           38.0990         0.245874   
     68. A(C   4,Ir  0,O  31)          148.2158         0.254116   
     69. A(C   1,Ir  0,C   2)           38.2351         0.237724   
     70. A(C   3,Ir  0,O  31)          109.6767         0.252489   
     71. A(C   5,Ir  0,N   6)          139.0411         0.241407   
     72. A(C   3,Ir  0,C   5)           37.8368         0.237336   
     73. A(N   6,Ir  0,C  20)           78.2636         0.266519   
     74. A(C   4,Ir  0,C   5)           63.1705         0.238812   
     75. A(C   2,C   1,H  27)          126.2489         0.344485   
     76. A(Ir  0,C   1,C   2)           72.9562         0.311577   
     77. A(C   2,C   1,C   4)          108.0639         0.414404   
     78. A(C   4,C   1,H  27)          125.6165         0.350315   
     79. A(Ir  0,C   1,H  27)          124.5007         0.267740   
     80. A(Ir  0,C   1,C   4)           70.6116         0.316656   
     81. A(Ir  0,C   2,C   1)           68.8087         0.301581   
     82. A(Ir  0,C   2,C   5)           71.5236         0.307166   
     83. A(C   1,C   2,C   5)          107.2946         0.415504   
     84. A(Ir  0,C   2,H  28)          126.7623         0.259856   
     85. A(C   5,C   2,H  28)          125.9835         0.351418   
     86. A(C   1,C   2,H  28)          126.6782         0.344699   
     87. A(C   4,C   3,C   5)          106.8925         0.412736   
     88. A(Ir  0,C   3,C   4)           70.2357         0.312168   
     89. A(Ir  0,C   3,C   5)           73.0629         0.313762   
     90. A(Ir  0,C   3,H  37)          126.6620         0.267473   
     91. A(C   5,C   3,H  37)          126.0925         0.347899   
     92. A(C   4,C   3,H  37)          126.7231         0.346063   
     93. A(Ir  0,C   4,C   1)           71.2894         0.318348   
     94. A(Ir  0,C   4,H  38)          123.0174         0.269041   
     95. A(Ir  0,C   4,C   3)           71.1250         0.314389   
     96. A(C   3,C   4,H  38)          126.0837         0.345767   
     97. A(C   1,C   4,C   3)          108.4103         0.416086   
     98. A(C   1,C   4,H  38)          125.5040         0.350276   
     99. A(Ir  0,C   5,H  29)          122.1714         0.259598   
    100. A(Ir  0,C   5,C   2)           71.5291         0.307142   
    101. A(C   3,C   5,H  29)          125.2034         0.347494   
    102. A(Ir  0,C   5,C   3)           69.1002         0.304181   
    103. A(C   2,C   5,C   3)          109.2815         0.419534   
    104. A(C   2,C   5,H  29)          125.3708         0.351052   
    105. A(Ir  0,N   6,C  17)          115.6251         0.340666   
    106. A(C   7,N   6,C  17)          121.9048         0.420466   
    107. A(Ir  0,N   6,C   7)          122.4539         0.304426   
    108. A(C   8,C   7,H  13)          108.1547         0.325692   
    109. A(C  12,C   7,H  13)          108.8527         0.325095   
    110. A(N   6,C   7,C   8)          113.7877         0.369882   
    111. A(N   6,C   7,C  12)          109.2109         0.369174   
    112. A(C   8,C   7,C  12)          111.4989         0.366356   
    113. A(N   6,C   7,H  13)          105.0363         0.328097   
    114. A(C   7,C   8,H   9)          108.8417         0.326135   
    115. A(C   7,C   8,H  10)          112.9110         0.325733   
    116. A(H   9,C   8,H  10)          106.5872         0.290893   
    117. A(C   7,C   8,H  11)          111.9406         0.325852   
    118. A(H   9,C   8,H  11)          107.4785         0.290995   
    119. A(H  10,C   8,H  11)          108.8043         0.290653   
    120. A(C   7,C  12,H  14)          109.9347         0.325453   
    121. A(C   7,C  12,H  15)          111.0944         0.325161   
    122. A(H  14,C  12,H  15)          107.8276         0.290842   
    123. A(C   7,C  12,H  16)          112.0745         0.325550   
    124. A(H  14,C  12,H  16)          107.5918         0.291175   
    125. A(H  15,C  12,H  16)          108.1576         0.290925   
    126. A(N   6,C  17,C  18)          114.1366         0.442985   
    127. A(N   6,C  17,H  19)          122.7200         0.369755   
    128. A(C  18,C  17,H  19)          123.1129         0.345654   
    129. A(C  17,C  18,S  22)          129.2560         0.437627   
    130. A(C  20,C  18,S  22)          114.1390         0.446272   
    131. A(C  17,C  18,C  20)          116.5388         0.420621   
    132. A(C  18,C  20,C  21)          108.7911         0.419520   
    133. A(Ir  0,C  20,H  24)           87.6849         0.253850   
    134. A(C  18,C  20,H  24)          105.4743         0.307941   
    135. A(C  21,C  20,H  24)          104.2587         0.301934   
    136. A(Ir  0,C  20,C  18)          111.6305         0.344883   
    137. A(Ir  0,C  20,C  21)          132.7205         0.337863   
    138. A(C  20,C  21,C  23)          113.4756         0.430993   
    139. A(C  20,C  21,H  25)          123.7546         0.345720   
    140. A(C  23,C  21,H  25)          122.6462         0.362125   
    141. A(C  18,S  22,C  23)           91.0416         0.457904   
    142. A(C  21,C  23,S  22)          112.5459         0.452090   
    143. A(C  21,C  23,H  26)          127.7502         0.362386   
    144. A(S  22,C  23,H  26)          119.6857         0.361817   
    145. A(Ir  0,O  31,C  32)          126.1887         0.350052   
    146. A(O  30,C  32,O  31)          124.3165         0.492214   
    147. A(O  30,C  32,C  33)          118.8016         0.433197   
    148. A(O  31,C  32,C  33)          116.8697         0.426220   
    149. A(C  32,C  33,H  34)          110.6864         0.330561   
    150. A(C  32,C  33,H  35)          108.8301         0.329764   
    151. A(H  34,C  33,H  35)          107.2647         0.291038   
    152. A(C  32,C  33,H  36)          111.5975         0.330763   
    153. A(H  34,C  33,H  36)          110.1867         0.291877   
    154. A(H  35,C  33,H  36)          108.1327         0.291207   
    155. D(C   2,C   1,Ir  0,N   6)   -102.5803         0.001688   
    156. D(C   4,C   1,Ir  0,C   2)   -116.8535         0.001688   
    157. D(H  27,C   1,Ir  0,C   3)   -158.2535         0.001688   
    158. D(C   4,C   1,Ir  0,C  20)     58.1485         0.001688   
    159. D(C   2,C   1,Ir  0,C   3)     79.0804         0.001688   
    160. D(C   4,C   1,Ir  0,N   6)    140.5663         0.001688   
    161. D(H  27,C   1,Ir  0,C   2)    122.6660         0.001688   
    162. D(C   2,C   1,Ir  0,O  31)     -7.0620         0.001688   
    163. D(H  27,C   1,Ir  0,N   6)     20.0858         0.001688   
    164. D(C   2,C   1,Ir  0,C  20)    175.0019         0.001688   
    165. D(C   4,C   1,Ir  0,C   3)    -37.7730         0.001688   
    166. D(H  27,C   1,Ir  0,C  20)    -62.3320         0.001688   
    167. D(H  27,C   1,Ir  0,C   4)   -120.4805         0.001688   
    168. D(H  27,C   1,Ir  0,O  31)    115.6041         0.001688   
    169. D(C   2,C   1,Ir  0,C   5)     36.6665         0.001688   
    170. D(H  27,C   1,Ir  0,C   5)    159.3325         0.001688   
    171. D(C   4,C   1,Ir  0,C   5)    -80.1870         0.001688   
    172. D(C   4,C   1,Ir  0,O  31)   -123.9154         0.001688   
    173. D(C   2,C   1,Ir  0,C   4)    116.8535         0.001688   
    174. D(H  28,C   2,Ir  0,C   5)    121.5770         0.001626   
    175. D(H  28,C   2,C   1,C   4)   -176.9519         0.021302   
    176. D(C   5,C   2,C   1,H  27)    177.8174         0.021302   
    177. D(C   1,C   2,Ir  0,N   6)     87.7634         0.001626   
    178. D(C   1,C   2,Ir  0,C   3)    -81.3373         0.001626   
    179. D(Ir  0,C   2,C   1,C   4)     62.2762         0.021302   
    180. D(H  28,C   2,Ir  0,C   1)   -120.6663         0.001626   
    181. D(H  28,C   2,Ir  0,C  20)   -130.4302         0.001626   
    182. D(C   1,C   2,Ir  0,C   5)   -117.7567         0.001626   
    183. D(C   5,C   2,Ir  0,C   3)     36.4194         0.001626   
    184. D(H  28,C   2,Ir  0,C   4)   -158.6124         0.001626   
    185. D(H  28,C   2,Ir  0,C   3)    157.9964         0.001626   
    186. D(Ir  0,C   2,C   1,H  27)   -120.6532         0.021302   
    187. D(C   1,C   2,Ir  0,C   4)    -37.9461         0.001626   
    188. D(C   5,C   2,Ir  0,C   1)    117.7567         0.001626   
    189. D(C   1,C   2,Ir  0,C  20)     -9.7639         0.001626   
    190. D(C   5,C   2,Ir  0,O  31)    -66.2076         0.001626   
    191. D(C   5,C   2,Ir  0,N   6)   -154.4799         0.001626   
    192. D(H  28,C   2,C   1,Ir  0)    120.7719         0.021302   
    193. D(C   5,C   2,C   1,Ir  0)    -61.5294         0.021302   
    194. D(C   1,C   2,Ir  0,O  31)    176.0357         0.001626   
    195. D(C   5,C   2,Ir  0,C  20)    107.9928         0.001626   
    196. D(H  28,C   2,Ir  0,N   6)    -32.9029         0.001626   
    197. D(C   5,C   2,Ir  0,C   4)     79.8106         0.001626   
    198. D(C   5,C   2,C   1,C   4)      0.7468         0.021302   
    199. D(H  28,C   2,Ir  0,O  31)     55.3694         0.001626   
    200. D(H  28,C   2,C   1,H  27)      0.1187         0.021302   
    201. D(C   4,C   3,Ir  0,N   6)     30.3806         0.001684   
    202. D(C   5,C   3,Ir  0,C   1)    -78.3574         0.001684   
    203. D(H  37,C   3,Ir  0,C   5)   -122.7511         0.001684   
    204. D(H  37,C   3,Ir  0,C   2)   -158.3251         0.001684   
    205. D(C   4,C   3,Ir  0,O  31)   -176.7954         0.001684   
    206. D(H  37,C   3,Ir  0,N   6)    152.0229         0.001684   
    207. D(C   5,C   3,Ir  0,C  20)    171.8885         0.001684   
    208. D(H  37,C   3,Ir  0,C   1)    158.8915         0.001684   
    209. D(H  37,C   3,Ir  0,C   4)    121.6423         0.001684   
    210. D(C   4,C   3,Ir  0,C   5)    115.6066         0.001684   
    211. D(C   5,C   3,Ir  0,C   4)   -115.6066         0.001684   
    212. D(C   5,C   3,Ir  0,O  31)     67.5980         0.001684   
    213. D(C   4,C   3,Ir  0,C  20)    -72.5050         0.001684   
    214. D(C   4,C   3,Ir  0,C   1)     37.2492         0.001684   
    215. D(C   4,C   3,Ir  0,C   2)     80.0326         0.001684   
    216. D(C   5,C   3,Ir  0,N   6)    -85.2260         0.001684   
    217. D(C   5,C   3,Ir  0,C   2)    -35.5740         0.001684   
    218. D(H  37,C   3,Ir  0,C  20)     49.1373         0.001684   
    219. D(H  37,C   3,Ir  0,O  31)    -55.1531         0.001684   
    220. D(C   1,C   4,Ir  0,C  20)   -129.1144         0.001700   
    221. D(C   1,C   4,Ir  0,C   2)     38.0814         0.001700   
    222. D(C   3,C   4,Ir  0,C   2)    -79.8350         0.001700   
    223. D(C   1,C   4,Ir  0,C   5)     79.6079         0.001700   
    224. D(C   1,C   4,Ir  0,N   6)    -53.1963         0.001700   
    225. D(C   3,C   4,Ir  0,C   5)    -38.3086         0.001700   
    226. D(C   3,C   4,Ir  0,C   1)   -117.9164         0.001700   
    227. D(C   1,C   4,Ir  0,O  31)    123.6517         0.001700   
    228. D(C   1,C   4,Ir  0,C   3)    117.9164         0.001700   
    229. D(H  38,C   4,C   1,Ir  0)   -117.7147         0.026229   
    230. D(C   3,C   4,Ir  0,C  20)    112.9691         0.001700   
    231. D(C   3,C   4,Ir  0,O  31)      5.7353         0.001700   
    232. D(Ir  0,C   4,C   1,C   2)    -63.7929         0.026229   
    233. D(H  38,C   4,Ir  0,C   1)    120.7416         0.001700   
    234. D(H  38,C   4,Ir  0,C   3)   -121.3420         0.001700   
    235. D(H  38,C   4,Ir  0,C   5)   -159.6505         0.001700   
    236. D(H  38,C   4,Ir  0,N   6)     67.5453         0.001700   
    237. D(H  38,C   4,Ir  0,C  20)     -8.3728         0.001700   
    238. D(H  38,C   4,Ir  0,C   2)    158.8230         0.001700   
    239. D(Ir  0,C   4,C   1,H  27)    119.1131         0.026229   
    240. D(H  38,C   4,Ir  0,O  31)   -115.6067         0.001700   
    241. D(C   3,C   4,C   1,Ir  0)     61.7895         0.026229   
    242. D(C   3,C   4,C   1,C   2)     -2.0035         0.026229   
    243. D(H  38,C   4,C   1,C   2)    178.4924         0.026229   
    244. D(C   3,C   4,Ir  0,N   6)   -171.1128         0.001700   
    245. D(C   3,C   4,C   1,H  27)   -179.0974         0.026229   
    246. D(Ir  0,C   4,C   3,H  37)   -121.5682         0.022331   
    247. D(Ir  0,C   4,C   3,C   5)     64.3651         0.022331   
    248. D(H  38,C   4,C   3,C   5)   -178.0283         0.022331   
    249. D(C   1,C   4,C   3,C   5)      2.4712         0.022331   
    250. D(C   1,C   4,C   3,H  37)    176.5378         0.022331   
    251. D(H  38,C   4,C   3,Ir  0)    117.6065         0.022331   
    252. D(H  38,C   4,C   1,H  27)      1.3984         0.026229   
    253. D(H  38,C   4,C   3,H  37)     -3.9617         0.022331   
    254. D(C   1,C   4,C   3,Ir  0)    -61.8940         0.022331   
    255. D(H  29,C   5,C   2,H  28)     -5.6655         0.027068   
    256. D(C   2,C   5,Ir  0,C   4)    -80.8893         0.001626   
    257. D(C   2,C   5,Ir  0,C   3)   -120.0142         0.001626   
    258. D(C   3,C   5,C   2,C   1)      0.8057         0.027068   
    259. D(C   2,C   5,Ir  0,C  20)   -132.9275         0.001626   
    260. D(C   2,C   5,Ir  0,O  31)    120.6147         0.001626   
    261. D(H  29,C   5,Ir  0,O  31)     -0.1086         0.001626   
    262. D(C   3,C   5,Ir  0,C   2)    120.0142         0.001626   
    263. D(C   3,C   5,Ir  0,C   4)     39.1249         0.001626   
    264. D(C   3,C   5,Ir  0,N   6)    158.8891         0.001626   
    265. D(C   3,C   5,Ir  0,C  20)    -12.9132         0.001626   
    266. D(C   3,C   5,Ir  0,O  31)   -119.3711         0.001626   
    267. D(H  29,C   5,Ir  0,C   1)   -158.6642         0.001626   
    268. D(H  29,C   5,Ir  0,C   2)   -120.7233         0.001626   
    269. D(H  29,C   5,Ir  0,C   3)    119.2625         0.001626   
    270. D(H  29,C   5,Ir  0,C   4)    158.3874         0.001626   
    271. D(H  29,C   5,Ir  0,N   6)    -81.8484         0.001626   
    272. D(C   3,C   5,Ir  0,C   1)     82.0733         0.001626   
    273. D(H  29,C   5,Ir  0,C  20)    106.3493         0.001626   
    274. D(Ir  0,C   5,C   2,C   1)     59.7872         0.027068   
    275. D(Ir  0,C   5,C   2,H  28)   -122.4937         0.027068   
    276. D(C   2,C   5,Ir  0,N   6)     38.8749         0.001626   
    277. D(C   3,C   5,C   2,Ir  0)    -58.9815         0.027068   
    278. D(H  29,C   5,C   2,Ir  0)    116.8282         0.027068   
    279. D(C   3,C   5,C   2,H  28)    178.5248         0.027068   
    280. D(C   2,C   5,Ir  0,C   1)    -37.9410         0.001626   
    281. D(H  29,C   5,C   2,C   1)    176.6154         0.027068   
    282. D(H  29,C   5,C   3,H  37)      8.0472         0.023841   
    283. D(Ir  0,C   5,C   3,H  37)    123.3953         0.023841   
    284. D(C   2,C   5,C   3,Ir  0)     60.4702         0.023841   
    285. D(C   2,C   5,C   3,C   4)     -2.0197         0.023841   
    286. D(C   2,C   5,C   3,H  37)   -176.1345         0.023841   
    287. D(H  29,C   5,C   3,Ir  0)   -115.3481         0.023841   
    288. D(Ir  0,C   5,C   3,C   4)    -62.4899         0.023841   
    289. D(H  29,C   5,C   3,C   4)   -177.8381         0.023841   
    290. D(C   7,N   6,Ir  0,C   1)     79.8635         0.001767   
    291. D(C   7,N   6,Ir  0,C   2)     40.6265         0.001767   
    292. D(C   7,N   6,Ir  0,C   3)     86.1894         0.001767   
    293. D(C   7,N   6,Ir  0,C   4)    110.2161         0.001767   
    294. D(C   7,N   6,Ir  0,C   5)     17.3575         0.001767   
    295. D(C   7,N   6,Ir  0,C  20)   -167.7338         0.001767   
    296. D(C   7,N   6,Ir  0,O  31)    -68.1104         0.001767   
    297. D(C  17,N   6,Ir  0,C   1)   -101.5724         0.001767   
    298. D(C  17,N   6,Ir  0,C   2)   -140.8093         0.001767   
    299. D(C  17,N   6,Ir  0,C   3)    -95.2465         0.001767   
    300. D(C  17,N   6,Ir  0,C   4)    -71.2198         0.001767   
    301. D(C  17,N   6,Ir  0,C   5)   -164.0784         0.001767   
    302. D(C  17,N   6,Ir  0,C  20)     10.8303         0.001767   
    303. D(C  17,N   6,Ir  0,O  31)    110.4537         0.001767   
    304. D(C   8,C   7,N   6,Ir  0)    148.3249         0.014853   
    305. D(C   8,C   7,N   6,C  17)    -30.1500         0.014853   
    306. D(C  12,C   7,N   6,Ir  0)    -86.3847         0.014853   
    307. D(C  12,C   7,N   6,C  17)     95.1404         0.014853   
    308. D(H  13,C   7,N   6,Ir  0)     30.2261         0.014853   
    309. D(H  13,C   7,N   6,C  17)   -148.2488         0.014853   
    310. D(H   9,C   8,C   7,N   6)   -170.6573         0.011787   
    311. D(H   9,C   8,C   7,C  12)     65.2794         0.011787   
    312. D(H   9,C   8,C   7,H  13)    -54.3675         0.011787   
    313. D(H  10,C   8,C   7,N   6)     71.1984         0.011787   
    314. D(H  10,C   8,C   7,C  12)    -52.8650         0.011787   
    315. D(H  10,C   8,C   7,H  13)   -172.5119         0.011787   
    316. D(H  11,C   8,C   7,N   6)    -51.9985         0.011787   
    317. D(H  11,C   8,C   7,C  12)   -176.0619         0.011787   
    318. D(H  11,C   8,C   7,H  13)     64.2912         0.011787   
    319. D(H  14,C  12,C   7,N   6)    174.7648         0.011540   
    320. D(H  14,C  12,C   7,C   8)    -58.6280         0.011540   
    321. D(H  14,C  12,C   7,H  13)     60.6050         0.011540   
    322. D(H  15,C  12,C   7,N   6)    -65.9626         0.011540   
    323. D(H  15,C  12,C   7,C   8)     60.6446         0.011540   
    324. D(H  15,C  12,C   7,H  13)    179.8775         0.011540   
    325. D(H  16,C  12,C   7,N   6)     55.1603         0.011540   
    326. D(H  16,C  12,C   7,C   8)   -178.2325         0.011540   
    327. D(H  16,C  12,C   7,H  13)    -58.9995         0.011540   
    328. D(C  18,C  17,N   6,Ir  0)     -2.2237         0.059203   
    329. D(C  18,C  17,N   6,C   7)    176.3490         0.059203   
    330. D(H  19,C  17,N   6,Ir  0)    179.7306         0.059203   
    331. D(H  19,C  17,N   6,C   7)     -1.6967         0.059203   
    332. D(C  20,C  18,C  17,N   6)    -12.7092         0.019771   
    333. D(C  20,C  18,C  17,H  19)    165.3278         0.019771   
    334. D(S  22,C  18,C  17,N   6)    164.1304         0.019771   
    335. D(S  22,C  18,C  17,H  19)    -17.8326         0.019771   
    336. D(C  18,C  20,Ir  0,C   1)     81.6243         0.001978   
    337. D(H  24,C  20,C  18,C  17)    -72.2066         0.026908   
    338. D(C  18,C  20,Ir  0,C   3)    149.8045         0.001978   
    339. D(C  18,C  20,Ir  0,C   4)    113.2423         0.001978   
    340. D(Ir  0,C  20,C  18,C  17)     21.5024         0.026908   
    341. D(C  18,C  20,Ir  0,N   6)    -16.5516         0.001978   
    342. D(C  18,C  20,Ir  0,O  31)    -97.2752         0.001978   
    343. D(H  24,C  20,Ir  0,C   4)   -141.0207         0.001978   
    344. D(C  21,C  20,Ir  0,C   2)    -58.6897         0.001978   
    345. D(C  21,C  20,Ir  0,C   3)      2.8906         0.001978   
    346. D(C  21,C  20,Ir  0,C   4)    -33.6716         0.001978   
    347. D(C  21,C  20,Ir  0,C   5)     11.0565         0.001978   
    348. D(C  21,C  20,Ir  0,N   6)   -163.4654         0.001978   
    349. D(C  21,C  20,Ir  0,O  31)    115.8109         0.001978   
    350. D(H  24,C  20,Ir  0,C   1)   -172.6387         0.001978   
    351. D(H  24,C  20,Ir  0,C   2)   -166.0389         0.001978   
    352. D(C  21,C  20,Ir  0,C   1)    -65.2896         0.001978   
    353. D(H  24,C  20,Ir  0,C   3)   -104.4586         0.001978   
    354. D(H  24,C  20,Ir  0,C   5)    -96.2927         0.001978   
    355. D(H  24,C  20,Ir  0,N   6)     89.1854         0.001978   
    356. D(C  18,C  20,Ir  0,C   5)    157.9703         0.001978   
    357. D(H  24,C  20,Ir  0,O  31)      8.4618         0.001978   
    358. D(Ir  0,C  20,C  18,S  22)   -155.8162         0.026908   
    359. D(C  21,C  20,C  18,C  17)    176.4380         0.026908   
    360. D(C  18,C  20,Ir  0,C   2)     88.2242         0.001978   
    361. D(C  21,C  20,C  18,S  22)     -0.8807         0.026908   
    362. D(H  24,C  20,C  18,S  22)    110.4747         0.026908   
    363. D(C  23,C  21,C  20,Ir  0)    148.3762         0.020807   
    364. D(C  23,C  21,C  20,C  18)      0.7898         0.020807   
    365. D(C  23,C  21,C  20,H  24)   -111.3740         0.020807   
    366. D(H  25,C  21,C  20,Ir  0)    -35.5773         0.020807   
    367. D(H  25,C  21,C  20,C  18)    176.8364         0.020807   
    368. D(H  25,C  21,C  20,H  24)     64.6726         0.020807   
    369. D(C  23,S  22,C  18,C  17)   -176.3081         0.006098   
    370. D(C  23,S  22,C  18,C  20)      0.5936         0.006098   
    371. D(S  22,C  23,C  21,C  20)     -0.3785         0.034191   
    372. D(S  22,C  23,C  21,H  25)   -176.4748         0.034191   
    373. D(H  26,C  23,C  21,C  20)    178.0468         0.034191   
    374. D(H  26,C  23,C  21,H  25)      1.9505         0.034191   
    375. D(C  21,C  23,S  22,C  18)     -0.1142         0.005391   
    376. D(H  26,C  23,S  22,C  18)   -178.6811         0.005391   
    377. D(C  32,O  31,Ir  0,C   1)    171.8444         0.001820   
    378. D(C  32,O  31,Ir  0,C   2)    167.1994         0.001820   
    379. D(C  32,O  31,Ir  0,C   3)     99.2018         0.001820   
    380. D(C  32,O  31,Ir  0,C   4)     95.4021         0.001820   
    381. D(C  32,O  31,Ir  0,C   5)    133.7930         0.001820   
    382. D(C  32,O  31,Ir  0,N   6)    -87.0626         0.001820   
    383. D(C  32,O  31,Ir  0,C  20)    -10.0579         0.001820   
    384. D(O  30,C  32,O  31,Ir  0)      4.3855         0.059112   
    385. D(C  33,C  32,O  31,Ir  0)   -174.3253         0.059112   
    386. D(H  34,C  33,C  32,O  30)     36.0236         0.012770   
    387. D(H  34,C  33,C  32,O  31)   -145.1916         0.012770   
    388. D(H  35,C  33,C  32,O  30)    -81.6183         0.012770   
    389. D(H  35,C  33,C  32,O  31)     97.1665         0.012770   
    390. D(H  36,C  33,C  32,O  30)    159.1301         0.012770   
    391. D(H  36,C  33,C  32,O  31)    -22.0850         0.012770   
    -----------------------------------------------------------------

Number of atoms                         .... 39
Number of degrees of freedom            .... 391

         *************************************************************
         *                GEOMETRY OPTIMIZATION CYCLE   1            *
         *************************************************************
---------------------------------
CARTESIAN COORDINATES (ANGSTROEM)
---------------------------------
  Ir     0.624090   -0.726805    0.384205
  C      0.173938   -2.848810    0.303195
  C     -0.072018   -2.416232    1.655423
  C      2.160762   -2.048471    1.169538
  C      1.545175   -2.648707    0.021357
  C      1.151452   -1.941844    2.173054
  N     -1.078073    0.120525   -0.514763
  C     -2.341237    0.311907    0.212037
  C     -3.136919    1.524708   -0.248732
  H     -3.962149    1.687271    0.442722
  H     -3.580004    1.391611   -1.236628
  H     -2.531136    2.431158   -0.254499
  C     -3.169078   -0.965804    0.124501
  H     -2.048629    0.471944    1.250886
  H     -4.065549   -0.870098    0.735772
  H     -3.483753   -1.160154   -0.901616
  H     -2.618915   -1.835039    0.481081
  C     -0.936362    0.486858   -1.730954
  C      0.379397    0.297517   -2.247502
  H     -1.740409    0.933404   -2.306392
  C      1.384441    0.010478   -1.312345
  C      2.613716   -0.229344   -2.013644
  S      0.909173    0.297272   -3.855070
  C      2.500802   -0.104375   -3.363285
  H      1.593028    1.128658   -0.670735
  H      3.556643   -0.424357   -1.523122
  H      3.279825   -0.204836   -4.103768
  H     -0.546900   -3.296248   -0.365352
  H     -1.006112   -2.478378    2.192269
  H      1.288021   -1.499147    3.149572
  O      1.709578    2.328804    0.040647
  O      0.598314    1.035237    1.470660
  C      1.140192    2.133398    1.131972
  C      1.104869    3.246268    2.138733
  H      0.999114    4.208756    1.643843
  H      2.052833    3.262441    2.679346
  H      0.305823    3.106505    2.861443
  H      3.207365   -1.817428    1.293627
  H      2.038062   -2.899452   -0.906735

----------------------------
CARTESIAN COORDINATES (A.U.)
----------------------------
  NO LB      ZA    FRAG     MASS         X           Y           Z
   0 Ir   17.0000*   0   192.220    1.179359   -1.373463    0.726042
   1 C     6.0000    0    12.011    0.328695   -5.383471    0.572956
   2 C     6.0000    0    12.011   -0.136094   -4.566016    3.128296
   3 C     6.0000    0    12.011    4.083248   -3.871049    2.210106
   4 C     6.0000    0    12.011    2.919957   -5.005331    0.040358
   5 C     6.0000    0    12.011    2.175928   -3.669553    4.106476
   6 N     7.0000    0    14.007   -2.037263    0.227759   -0.972761
   7 C     6.0000    0    12.011   -4.424296    0.589419    0.400691
   8 C     6.0000    0    12.011   -5.927917    2.881280   -0.470035
   9 H     1.0000    0     1.008   -7.487376    3.188480    0.836623
  10 H     1.0000    0     1.008   -6.765227    2.629764   -2.336889
  11 H     1.0000    0     1.008   -4.783155    4.594224   -0.480933
  12 C     6.0000    0    12.011   -5.988690   -1.825105    0.235272
  13 H     1.0000    0     1.008   -3.871347    0.891846    2.363832
  14 H     1.0000    0     1.008   -7.682775   -1.644247    1.390407
  15 H     1.0000    0     1.008   -6.583339   -2.192374   -1.703806
  16 H     1.0000    0     1.008   -4.949032   -3.467721    0.909111
  17 C     6.0000    0    12.011   -1.769467    0.920029   -3.271029
  18 C     6.0000    0    12.011    0.716956    0.562226   -4.247164
  19 H     1.0000    0     1.008   -3.288896    1.763877   -4.358449
  20 C     6.0000    0    12.011    2.616214    0.019800   -2.479972
  21 C     6.0000    0    12.011    4.939207   -0.433398   -3.805235
  22 S    16.0000    0    32.060    1.718088    0.561762   -7.285026
  23 C     6.0000    0    12.011    4.725832   -0.197241   -6.355687
  24 H     1.0000    0     1.008    3.010386    2.132855   -1.267506
  25 H     1.0000    0     1.008    6.721082   -0.801918   -2.878283
  26 H     1.0000    0     1.008    6.197970   -0.387084   -7.754997
  27 H     1.0000    0     1.008   -1.033491   -6.229007   -0.690416
  28 H     1.0000    0     1.008   -1.901275   -4.683455    4.142788
  29 H     1.0000    0     1.008    2.434007   -2.832978    5.951829
  30 O     8.0000    0    15.999    3.230634    4.400803    0.076812
  31 O     8.0000    0    15.999    1.130650    1.956314    2.779144
  32 C     6.0000    0    12.011    2.154651    4.031537    2.139117
  33 C     6.0000    0    12.011    2.087901    6.134558    4.041619
  34 H     1.0000    0     1.008    1.888052    7.953396    3.106413
  35 H     1.0000    0     1.008    3.879292    6.165120    5.063230
  36 H     1.0000    0     1.008    0.577922    5.870444    5.407344
  37 H     1.0000    0     1.008    6.061042   -3.434441    2.444602
  38 H     1.0000    0     1.008    3.851379   -5.479171   -1.713482
* core charge reduced due to ECP

--------------------------------
INTERNAL COORDINATES (ANGSTROEM)
--------------------------------
 Ir     0   0   0     0.000000000000     0.00000000     0.00000000
 C      1   0   0     2.170891396689     0.00000000     0.00000000
 C      2   1   0     1.440944260751    72.96009744     0.00000000
 C      1   2   3     2.173897997748    64.24240484    79.02030999
 C      2   1   3     1.413808655935    70.61502328   243.17976219
 C      3   2   1     1.409751238435   107.31517655   298.45686571
 N      1   2   3     2.102697935007   102.17311301   257.34138088
 C      7   1   2     1.469838693024   122.38793117    79.82425112
 C      8   7   1     1.521933409141   113.78767851   148.33492450
 H      9   8   7     1.088819760283   108.84171813   189.34278415
 H      9   8   7     1.090858668646   112.91083227    71.19857217
 H      9   8   7     1.090254800898   111.94058958   308.00142521
 C      8   7   1     1.524967718416   109.21086755   273.62535690
 H      8   7   1     1.091069776021   105.03624791    30.23633739
 H     13   8   7     1.089247536117   109.93468165   174.76481346
 H     13   8   7     1.090734181054   111.09468909   294.03743691
 H     13   8   7     1.088754790512   112.07447647    55.16036733
 C      7   1   2     1.282842829585   115.76249576   258.40504852
 C     18   7   1     1.430725917714   114.78408610   357.66635021
 H     18   7   1     1.084897933680   122.40129289   179.62150622
 C     19  18   7     1.401267676718   116.64700557   347.16505825
 C     21  19  18     1.434724955130   109.05512261   176.46112089
 S     19  18   7     1.692721529453   129.31674338   164.06509942
 C     22  21  19     1.360229063431   113.32665386     0.83848680
 H     21  19  18     1.305493726617   105.47346781   287.84195529
 H     22  21  19     1.080587230447   123.82586038   176.90541155
 H     24  22  21     1.079437728170   127.75078914   178.04817579
 H      2   1   3     1.080168075339   124.49235168   122.68458439
 H      3   2   1     1.079159815783   126.68055932   120.76078114
 H      6   3   2     1.080839349408   125.36724084   176.61560725
 O     25  21  19     1.414285712466   174.38073339    70.28690526
 O      1   2   3     2.070674633764   148.08975616   352.93639762
 C     31  25  21     1.246198411963   107.29471154    33.82124878
 C     33  31  25     1.501091985068   118.76472201   179.76938450
 H     34  33  31     1.087418799927   110.68672639    36.02339372
 H     34  33  31     1.091395871595   108.82979618   278.38129562
 H     34  33  31     1.086417442164   111.59751123   159.12989189
 H      4   1   2     1.078958322791   126.65300493   158.90154893
 H      5   2   1     1.080347789901   125.51002465   242.29273990

---------------------------
INTERNAL COORDINATES (A.U.)
---------------------------
 Ir     0   0   0     0.000000000000     0.00000000     0.00000000
 C      1   0   0     4.102390206228     0.00000000     0.00000000
 C      2   1   0     2.722990027065    72.96009744     0.00000000
 C      1   2   3     4.108071858823    64.24240484    79.02030999
 C      2   1   3     2.671711165485    70.61502328   243.17976219
 C      3   2   1     2.664043757599   107.31517655   298.45686571
 N      1   2   3     3.973523239525   102.17311301   257.34138088
 C      7   1   2     2.777592590856   122.38793117    79.82425112
 C      8   7   1     2.876037337342   113.78767851   148.33492450
 H      9   8   7     2.057571156138   108.84171813   189.34278415
 H      9   8   7     2.061424134554   112.91083227    71.19857217
 H      9   8   7     2.060282989890   111.94058958   308.00142521
 C      8   7   1     2.881771350877   109.21086755   273.62535690
 H      8   7   1     2.061823069679   105.03624791    30.23633739
 H     13   8   7     2.058379535310   109.93468165   174.76481346
 H     13   8   7     2.061188887100   111.09468909   294.03743691
 H     13   8   7     2.057448381062   112.07447647    55.16036733
 C      7   1   2     2.424221620780   115.76249576   258.40504852
 C     18   7   1     2.703680157182   114.78408610   357.66635021
 H     18   7   1     2.050159977912   122.40129289   179.62150622
 C     19  18   7     2.648012149313   116.64700557   347.16505825
 C     21  19  18     2.711237242699   109.05512261   176.46112089
 S     19  18   7     3.198780111658   129.31674338   164.06509942
 C     22  21  19     2.570460409284   113.32665386     0.83848680
 H     21  19  18     2.467025612859   105.47346781   287.84195529
 H     22  21  19     2.042013929358   123.82586038   176.90541155
 H     24  22  21     2.039841684864   127.75078914   178.04817579
 H      2   1   3     2.041221840996   124.49235168   122.68458439
 H      3   2   1     2.039316506563   126.68055932   120.76078114
 H      6   3   2     2.042490365147   125.36724084   176.61560725
 O     25  21  19     2.672612671679   174.38073339    70.28690526
 O      1   2   3     3.913007970271   148.08975616   352.93639762
 C     31  25  21     2.354973707138   107.29471154    33.82124878
 C     33  31  25     2.836652753603   118.76472201   179.76938450
 H     34  33  31     2.054923724739   110.68672639    36.02339372
 H     34  33  31     2.062439301007   108.82979618   278.38129562
 H     34  33  31     2.053031432805   111.59751123   159.12989189
 H      4   1   2     2.038935739990   126.65300493   158.90154893
 H      5   2   1     2.041561452300   125.51002465   242.29273990

---------------------
BASIS SET INFORMATION
---------------------
There are 6 groups of distinct atoms

 Group   1 Type Ir  : 7s6p5d1f contracted to 6s3p2d1f pattern {211111/411/41/1}
 Group   2 Type C   : 8s4p1d contracted to 4s2p1d pattern {5111/31/1}
 Group   3 Type N   : 8s4p1d contracted to 4s2p1d pattern {5111/31/1}
 Group   4 Type H   : 4s contracted to 2s pattern {31}
 Group   5 Type S   : 10s7p1d contracted to 4s3p1d pattern {5311/511/1}
 Group   6 Type O   : 8s4p1d contracted to 4s2p1d pattern {5111/31/1}

Atom   0Ir   basis set group =>   1
Atom   1C    basis set group =>   2
Atom   2C    basis set group =>   2
Atom   3C    basis set group =>   2
Atom   4C    basis set group =>   2
Atom   5C    basis set group =>   2
Atom   6N    basis set group =>   3
Atom   7C    basis set group =>   2
Atom   8C    basis set group =>   2
Atom   9H    basis set group =>   4
Atom  10H    basis set group =>   4
Atom  11H    basis set group =>   4
Atom  12C    basis set group =>   2
Atom  13H    basis set group =>   4
Atom  14H    basis set group =>   4
Atom  15H    basis set group =>   4
Atom  16H    basis set group =>   4
Atom  17C    basis set group =>   2
Atom  18C    basis set group =>   2
Atom  19H    basis set group =>   4
Atom  20C    basis set group =>   2
Atom  21C    basis set group =>   2
Atom  22S    basis set group =>   5
Atom  23C    basis set group =>   2
Atom  24H    basis set group =>   4
Atom  25H    basis set group =>   4
Atom  26H    basis set group =>   4
Atom  27H    basis set group =>   4
Atom  28H    basis set group =>   4
Atom  29H    basis set group =>   4
Atom  30O    basis set group =>   6
Atom  31O    basis set group =>   6
Atom  32C    basis set group =>   2
Atom  33C    basis set group =>   2
Atom  34H    basis set group =>   4
Atom  35H    basis set group =>   4
Atom  36H    basis set group =>   4
Atom  37H    basis set group =>   4
Atom  38H    basis set group =>   4
---------------------------------
AUXILIARY/J BASIS SET INFORMATION
---------------------------------
There are 6 groups of distinct atoms

 Group   1 Type Ir  : 11s5p5d3f3g contracted to 8s5p5d2f3g pattern {41111111/11111/11111/21/111}
 Group   2 Type C   : 12s5p4d2f1g contracted to 6s4p3d1f1g pattern {711111/2111/211/2/1}
 Group   3 Type N   : 12s5p4d2f1g contracted to 6s4p3d1f1g pattern {711111/2111/211/2/1}
 Group   4 Type H   : 5s2p1d contracted to 3s1p1d pattern {311/2/1}
 Group   5 Type S   : 14s5p5d2f1g contracted to 8s4p3d1f1g pattern {71111111/2111/311/2/1}
 Group   6 Type O   : 12s5p4d2f1g contracted to 6s4p3d1f1g pattern {711111/2111/211/2/1}

Atom   0Ir   basis set group =>   1
Atom   1C    basis set group =>   2
Atom   2C    basis set group =>   2
Atom   3C    basis set group =>   2
Atom   4C    basis set group =>   2
Atom   5C    basis set group =>   2
Atom   6N    basis set group =>   3
Atom   7C    basis set group =>   2
Atom   8C    basis set group =>   2
Atom   9H    basis set group =>   4
Atom  10H    basis set group =>   4
Atom  11H    basis set group =>   4
Atom  12C    basis set group =>   2
Atom  13H    basis set group =>   4
Atom  14H    basis set group =>   4
Atom  15H    basis set group =>   4
Atom  16H    basis set group =>   4
Atom  17C    basis set group =>   2
Atom  18C    basis set group =>   2
Atom  19H    basis set group =>   4
Atom  20C    basis set group =>   2
Atom  21C    basis set group =>   2
Atom  22S    basis set group =>   5
Atom  23C    basis set group =>   2
Atom  24H    basis set group =>   4
Atom  25H    basis set group =>   4
Atom  26H    basis set group =>   4
Atom  27H    basis set group =>   4
Atom  28H    basis set group =>   4
Atom  29H    basis set group =>   4
Atom  30O    basis set group =>   6
Atom  31O    basis set group =>   6
Atom  32C    basis set group =>   2
Atom  33C    basis set group =>   2
Atom  34H    basis set group =>   4
Atom  35H    basis set group =>   4
Atom  36H    basis set group =>   4
Atom  37H    basis set group =>   4
Atom  38H    basis set group =>   4
-------------------------
ECP PARAMETER INFORMATION
-------------------------

 Group 1, Type Ir ECP Def2-ECP (replacing 60 core electrons, lmax=3)

Atom   0Ir   ECP group =>   1

------------------------------------------------------------------------------
                           ORCA GTO INTEGRAL CALCULATION
                           -- RI-GTO INTEGRALS CHOSEN --
------------------------------------------------------------------------------
------------------------------------------------------------------------------
                   ___                                                        
                  /   \      - P O W E R E D   B Y -                         
                 /     \                                                     
                 |  |  |   _    _      __       _____    __    __             
                 |  |  |  | |  | |    /  \     |  _  \  |  |  /  |          
                  \  \/   | |  | |   /    \    | | | |  |  | /  /          
                 / \  \   | |__| |  /  /\  \   | |_| |  |  |/  /          
                |  |  |   |  __  | /  /__\  \  |    /   |      \           
                |  |  |   | |  | | |   __   |  |    \   |  |\   \          
                \     /   | |  | | |  |  |  |  | |\  \  |  | \   \       
                 \___/    |_|  |_| |__|  |__|  |_| \__\ |__|  \__/        
                                                                              
                      - O R C A' S   B I G   F R I E N D -                    
                                      &                                       
                       - I N T E G R A L  F E E D E R -                       
                                                                              
 v1 FN, 2020, v2 2021                                                         
------------------------------------------------------------------------------


Reading SHARK input file reaction4-IEIP_ts_guess_scan_14-7_orca.SHARKINP.tmp ... ok
----------------------
SHARK INTEGRAL PACKAGE
----------------------

Number of atoms                             ...     39
Number of basis functions                   ...    358
Number of shells                            ...    184
Maximum angular momentum                    ...      3
Integral batch strategy                     ... SHARK/LIBINT Hybrid
RI-J (if used) integral strategy            ... SPLIT-RIJ (Revised 2003 algorithm where possible)
Printlevel                                  ...      1
Contraction scheme used                     ... SEGMENTED contraction
Coulomb Range Separation                    ... NOT USED
Exchange Range Separation                   ... NOT USED
Finite Nucleus Model                        ... NOT USED
Auxiliary Coulomb fitting basis             ... AVAILABLE
   # of basis functions in Aux-J            ...   1231
   # of shells in Aux-J                     ...    405
   Maximum angular momentum in Aux-J        ...      4
Auxiliary J/K fitting basis                 ... NOT available
Auxiliary Correlation fitting basis         ... NOT available
Auxiliary 'external' fitting basis          ... NOT available
Integral threshold                          ...     2.500000e-11
Primitive cut-off                           ...     2.500000e-12
Primitive pair pre-selection threshold      ...     2.500000e-12

Calculating pre-screening integrals         ... done (  0.1 sec) Dimension = 184
Organizing shell pair data                  ... done (  0.1 sec)
Shell pair information
Total number of shell pairs                 ...     17020
Shell pairs after pre-screening             ...     13021
Total number of primitive shell pairs       ...     60705
Primitive shell pairs kept                  ...     29298
          la=0 lb=0:   4982 shell pairs
          la=1 lb=0:   4277 shell pairs
          la=1 lb=1:    860 shell pairs
          la=2 lb=0:   1759 shell pairs
          la=2 lb=1:    791 shell pairs
          la=2 lb=2:    177 shell pairs
          la=3 lb=0:    112 shell pairs
          la=3 lb=1:     41 shell pairs
          la=3 lb=2:     21 shell pairs
          la=3 lb=3:      1 shell pairs

Calculating one electron integrals          ... done (  0.1 sec)
Calculating ECP integrals                   ... done (  0.8 sec)
Calculating RI/J V-Matrix + Cholesky decomp.... done (  0.1 sec)
Calculating Nuclear repulsion               ... done (  0.0 sec) ENN=   2041.582645217099 Eh

SHARK setup successfully completed in   1.4 seconds

Maximum memory used throughout the entire GTOINT-calculation: 91.1 MB
-------------------------------------------------------------------------------
                                 ORCA SCF
-------------------------------------------------------------------------------

------------
SCF SETTINGS
------------
Hamiltonian:
 Density Functional     Method          .... DFT(GTOs)
 Exchange Functional    Exchange        .... PBE
   PBE kappa parameter   XKappa         ....  1.024500
   PBE mue parameter    XMuePBE         ....  0.123457
 Correlation Functional Correlation     .... PBE
   PBE beta parameter  CBetaPBE         ....  0.030000
 LDA part of GGA corr.  LDAOpt          .... PW91-LDA
 Gradients option       PostSCFGGA      .... off
 Hybrid DFT is turned on
   Fraction HF Exchange ScalHFX         ....  0.420000
   Scaling of DF-GGA-X  ScalDFX         ....  0.580000
   Scaling of DF-GGA-C  ScalDFC         ....  1.000000
   Scaling of DF-LDA-C  ScalLDAC        ....  1.000000
   Perturbative correction              ....  0.000000
   Density functional embedding theory  .... OFF
 RI-approximation to the Coulomb term is turned on
   Number of AuxJ basis functions       .... 1231
   RIJ-ON(X) (HFX calculated with O(N)) .... on
   Number of AuxJ basis functions       .... 1231
   RIJ-COSX (HFX calculated with COS-X)).... on


General Settings:
 Integral files         IntName         .... reaction4-IEIP_ts_guess_scan_14-7_orca
 Hartree-Fock type      HFTyp           .... RHF
 Total Charge           Charge          ....    1
 Multiplicity           Mult            ....    1
 Number of Electrons    NEL             ....  164
 Basis Dimension        Dim             ....  358
 Nuclear Repulsion      ENuc            ....   2041.5826452171 Eh

Convergence Acceleration:
 DIIS                   CNVDIIS         .... on
   Start iteration      DIISMaxIt       ....    12
   Startup error        DIISStart       ....  0.200000
   # of expansion vecs  DIISMaxEq       ....     5
   Bias factor          DIISBfac        ....   1.050
   Max. coefficient     DIISMaxC        ....  10.000
 Trust-Rad. Augm. Hess. CNVTRAH         .... auto
   Auto Start mean grad. ratio tolernc. ....  1.125000
   Auto Start start iteration           ....    20
   Auto Start num. interpolation iter.  ....    10
   Max. Number of Micro iterations      ....    16
   Max. Number of Macro iterations      .... Maxiter - #DIIS iter
   Number of Davidson start vectors     ....     2
   Converg. threshold I  (grad. norm)   ....   1.000e-05
   Converg. threshold II (energy diff.) ....   1.000e-08
   Grad. Scal. Fac. for Micro threshold ....   0.100
   Minimum threshold for Micro iter.    ....   0.010
   NR start threshold (gradient norm)   ....   0.001
   Initial trust radius                 ....   0.400
   Minimum AH scaling param. (alpha)    ....   1.000
   Maximum AH scaling param. (alpha)    .... 1000.000
   Orbital update algorithm             .... Taylor
   White noise on init. David. guess    .... on
   Maximum white noise                  ....   0.010
   Quad. conv. algorithm                .... NR
   COSX micro iterations for RIJONX calc.... off
 SOSCF                  CNVSOSCF        .... off
 Level Shifting         CNVShift        .... on
   Level shift para.    LevelShift      ....    0.2500
   Turn off err/grad.   ShiftErr        ....    0.0010
 Zerner damping         CNVZerner       .... off
 Static damping         CNVDamp         .... on
   Fraction old density DampFac         ....    0.7000
   Max. Damping (<1)    DampMax         ....    0.9800
   Min. Damping (>=0)   DampMin         ....    0.0000
   Turn off err/grad.   DampErr         ....    0.1000
 Fernandez-Rico         CNVRico         .... off

SCF Procedure:
 Maximum # iterations   MaxIter         ....   250
 SCF integral mode      SCFMode         .... Direct
   Integral package                     .... SHARK and LIBINT hybrid scheme
 Reset frequency        DirectResetFreq ....    20
 Integral Threshold     Thresh          ....  2.500e-11 Eh
 Primitive CutOff       TCut            ....  2.500e-12 Eh

Convergence Tolerance:
 Convergence Check Mode ConvCheckMode   .... Total+1el-Energy
 Convergence forced     ConvForced      .... 0
 Energy Change          TolE            ....  1.000e-08 Eh
 1-El. energy change                    ....  1.000e-05 Eh
 DIIS Error             TolErr          ....  5.000e-07


Diagonalization of the overlap matrix:
Smallest eigenvalue                        ... 1.098e-03
Time for diagonalization                   ...    0.018 sec
Threshold for overlap eigenvalues          ... 1.000e-08
Number of eigenvalues below threshold      ... 0
Time for construction of square roots      ...    0.007 sec
Total time needed                          ...    0.026 sec

--------------------
INITIAL GUESS: HCORE
--------------------
                      -----------------
                      INTIAL GUESS DONE 
                      -----------------
-------------------
DFT GRID GENERATION
-------------------

General Integration Accuracy     IntAcc      ... 4.159
Radial Grid Type                 RadialGrid  ... OptM3 with GC (2021)
Angular Grid (max. ang.)         AngularGrid ... 3 (Lebedev-194)
Angular grid pruning method      GridPruning ... 4 (adaptive)
Weight generation scheme         WeightScheme... Becke
Basis function cutoff            BFCut       ... 1.0000e-11
Integration weight cutoff        WCut        ... 1.0000e-14
Angular grids for H and He will be reduced by one unit
Partially contracted basis set               ... off
Rotationally invariant grid construction     ... off

Total number of grid points                  ...    93265
Total number of batches                      ...     1476
Average number of points per batch           ...       63
Average number of grid points per atom       ...     2391
Time for grid setup =    2.160 sec

--------------------
COSX GRID GENERATION
--------------------

GRIDX 1
-------
General Integration Accuracy     IntAcc      ... 3.816
Radial Grid Type                 RadialGrid  ... OptM3 with GC (2021)
Angular Grid (max. ang.)         AngularGrid ... 1 (Lebedev-50)
Angular grid pruning method      GridPruning ... 4 (adaptive)
Weight generation scheme         WeightScheme... Becke
Basis function cutoff            BFCut       ... 1.0000e-11
Integration weight cutoff        WCut        ... 1.0000e-14
Angular grids for H and He will be reduced by one unit
Partially contracted basis set               ... on
Rotationally invariant grid construction     ... off

Total number of grid points                  ...    23192
Total number of batches                      ...      378
Average number of points per batch           ...       61
Average number of grid points per atom       ...      595
UseSFitting                                  ... on

GRIDX 2
-------
General Integration Accuracy     IntAcc      ... 4.020
Radial Grid Type                 RadialGrid  ... OptM3 with GC (2021)
Angular Grid (max. ang.)         AngularGrid ... 2 (Lebedev-110)
Angular grid pruning method      GridPruning ... 4 (adaptive)
Weight generation scheme         WeightScheme... Becke
Basis function cutoff            BFCut       ... 1.0000e-11
Integration weight cutoff        WCut        ... 1.0000e-14
Angular grids for H and He will be reduced by one unit
Partially contracted basis set               ... on
Rotationally invariant grid construction     ... off

Total number of grid points                  ...    50305
Total number of batches                      ...      806
Average number of points per batch           ...       62
Average number of grid points per atom       ...     1290
UseSFitting                                  ... on

GRIDX 3
-------
General Integration Accuracy     IntAcc      ... 4.338
Radial Grid Type                 RadialGrid  ... OptM3 with GC (2021)
Angular Grid (max. ang.)         AngularGrid ... 3 (Lebedev-194)
Angular grid pruning method      GridPruning ... 4 (adaptive)
Weight generation scheme         WeightScheme... Becke
Basis function cutoff            BFCut       ... 1.0000e-11
Integration weight cutoff        WCut        ... 1.0000e-14
Angular grids for H and He will be reduced by one unit
Partially contracted basis set               ... on
Rotationally invariant grid construction     ... off

Total number of grid points                  ...   108718
Total number of batches                      ...     1718
Average number of points per batch           ...       63
Average number of grid points per atom       ...     2788
UseSFitting                                  ... on

Time for X-Grid setup             =    4.657 sec

--------------
SCF ITERATIONS
--------------
ITER       Energy         Delta-E        Max-DP      RMS-DP      [F,P]     Damp
               ***  Starting incremental Fock matrix formation  ***
  0   -817.1395274861   0.00000000000020.26878819  0.14759903  3.5772382 0.7000
  1  -1076.7793191898-259.639791703655 7.60239964  0.13464063  1.7039668 0.7000
  2  -1155.2664523702 -78.487133180381 5.43826989  0.06989638  1.0646093 0.7000
  3  -1184.7627786422 -29.496326272040 3.68693651  0.04719659  0.7768410 0.7000
  4  -1206.7560780115 -21.993299369286 2.64042931  0.03811227  0.4901403 0.7000
  5  -1221.9641045307 -15.208026519153 2.03611958  0.03250515  0.3542477 0.7000
  6  -1233.4238439214 -11.459739390769 1.94071086  0.02870953  0.2820750 0.7000
  7  -1241.9669343442  -8.543090422754 1.65244309  0.02620226  0.2975958 0.7000
  8  -1249.3607696363  -7.393835292073 1.70279175  0.02510147  0.2751197 0.7000
  9  -1252.3500238052  -2.989254168981 1.52468438  0.02378235  0.3353848 0.7000
 10  -1256.5309042686  -4.180880463338 1.53926761  0.02325745  0.2955215 0.7000
 11  -1257.6651767099  -1.134272441327 1.44261014  0.02323977  0.3411438 0.7000
                               ***Turning on DIIS***
 12  -1260.1318219156  -2.466645205694 1.43033674  0.02283316  0.3083290 0.7000
 13  -1260.2997429032  -0.167920987572 1.25283059  0.01928911  0.3438606 0.7000
 14  -1267.9804575734  -7.680714670260 0.87769453  0.01379574  0.2660852 0.7000
 15  -1274.4047492780  -6.424291704589 0.61819794  0.00976684  0.1977320 0.7000
 16  -1278.8858491012  -4.481099823134 0.43717843  0.00690329  0.1393777 0.7000
 17  -1281.9056516414  -3.019802540219 1.02765593  0.01624857  0.0934218 0.0000
 18  -1288.4214239939  -6.515772352543 0.04537643  0.00060366  0.0289440 0.0000
 19  -1288.4398963628  -0.018472368862 0.03533475  0.00047103  0.0221685 0.0000
               *** Restarting incremental Fock matrix formation ***
                                   *** Resetting DIIS ***
 20  -1288.4424787134  -0.002582350582 0.04394059  0.00054913  0.0173090 0.0000
 21  -1288.4431222307  -0.000643517378 0.02073854  0.00022760  0.0227472 0.0000
 22  -1288.4458554453  -0.002733214522 0.00391540  0.00007864  0.0040085 0.0000
 23  -1288.4460731521  -0.000217706876 0.00418891  0.00004082  0.0025955 0.0000
 24  -1288.4461248503  -0.000051698146 0.00359310  0.00004059  0.0008585 0.0000
               *** Restarting incremental Fock matrix formation ***
                                   *** Resetting DIIS ***
 25  -1288.4464515532  -0.000326702949 0.00491500  0.00010052  0.0007359 0.0000
 26  -1288.4464711829  -0.000019629628 0.00113265  0.00001408  0.0006263 0.0000
 27  -1288.4464720688  -0.000000885974 0.00071845  0.00000795  0.0006695 0.0000
 28  -1288.4464744767  -0.000002407898 0.00024505  0.00000271  0.0000824 0.0000
 29  -1288.4464745906  -0.000000113836 0.00020988  0.00000186  0.0000706 0.0000
 30  -1288.4464746568  -0.000000066251 0.00011221  0.00000089  0.0000399 0.0000
 31  -1288.4464746694  -0.000000012541 0.00008598  0.00000061  0.0000227 0.0000
 32  -1288.4464746742  -0.000000004795 0.00003165  0.00000027  0.0000132 0.0000
 33  -1288.4464746903  -0.000000016111 0.00000984  0.00000011  0.0000037 0.0000
                 **** Energy Check signals convergence ****

               *****************************************************
               *                     SUCCESS                       *
               *           SCF CONVERGED AFTER  34 CYCLES          *
               *****************************************************

Old exchange energy                            =    -59.651511429 Eh
New exchange energy                            =    -59.651663571 Eh
Exchange energy change after final integration =     -0.000152142 Eh
Total energy after final integration           =  -1288.446626837 Eh
Final COS-X integration done in                =    61.385 sec

----------------
TOTAL SCF ENERGY
----------------

Total Energy       :        -1288.44662684 Eh          -35060.41515 eV

Components:
Nuclear Repulsion  :         2041.58264522 Eh           55554.28810 eV
Electronic Energy  :        -3330.02927205 Eh          -90614.70326 eV
One Electron Energy:        -5838.72323051 Eh         -158879.73639 eV
Two Electron Energy:         2508.69395846 Eh           68265.03314 eV
Max COSX asymmetry :            0.00002320 Eh               0.00063 eV

Virial components:
Potential Energy   :        -2501.55206407 Eh          -68070.69231 eV
Kinetic Energy     :         1213.10543723 Eh           33010.27716 eV
Virial Ratio       :            2.06210605


DFT components:
N(Alpha)           :       82.000312078995 electrons
N(Beta)            :       82.000312078995 electrons
N(Total)           :      164.000624157990 electrons
E(X)               :      -79.595954860920 Eh       
E(C)               :       -7.462434185794 Eh       
E(XC)              :      -87.058389046714 Eh       
DFET-embed. en.    :        0.000000000000 Eh       

---------------
SCF CONVERGENCE
---------------

  Last Energy change         ...   -4.8460e-09  Tolerance :   1.0000e-08
  Last MAX-Density change    ...    0.0000e+00  Tolerance :   1.0000e-07
  Last RMS-Density change    ...    0.0000e+00  Tolerance :   5.0000e-09
  Last DIIS Error            ...    3.8677e-06  Tolerance :   5.0000e-07

             **** THE GBW FILE WAS UPDATED (reaction4-IEIP_ts_guess_scan_14-7_orca.gbw) ****
             **** DENSITY reaction4-IEIP_ts_guess_scan_14-7_orca.scfp WAS UPDATED ****
             **** ENERGY FILE WAS UPDATED (reaction4-IEIP_ts_guess_scan_14-7_orca.en.tmp) ****
             **** THE GBW FILE WAS UPDATED (reaction4-IEIP_ts_guess_scan_14-7_orca.gbw) ****
             **** DENSITY reaction4-IEIP_ts_guess_scan_14-7_orca.scfp WAS UPDATED ****
----------------
ORBITAL ENERGIES
----------------

  NO   OCC          E(Eh)            E(eV) 
   0   2.0000     -89.766103     -2442.6599 
   1   2.0000     -19.635886      -534.3196 
   2   2.0000     -19.624649      -534.0139 
   3   2.0000     -14.834001      -403.6537 
   4   2.0000     -10.697680      -291.0987 
   5   2.0000     -10.653659      -289.9008 
   6   2.0000     -10.626675      -289.1665 
   7   2.0000     -10.622883      -289.0633 
   8   2.0000     -10.621904      -289.0367 
   9   2.0000     -10.620565      -289.0003 
  10   2.0000     -10.612833      -288.7899 
  11   2.0000     -10.611808      -288.7620 
  12   2.0000     -10.611606      -288.7565 
  13   2.0000     -10.609950      -288.7114 
  14   2.0000     -10.591364      -288.2057 
  15   2.0000     -10.590494      -288.1820 
  16   2.0000     -10.553130      -287.1653 
  17   2.0000     -10.550779      -287.1013 
  18   2.0000     -10.545270      -286.9514 
  19   2.0000      -8.405464      -228.7243 
  20   2.0000      -6.295330      -171.3046 
  21   2.0000      -6.291790      -171.2083 
  22   2.0000      -6.290454      -171.1720 
  23   2.0000      -4.019668      -109.3807 
  24   2.0000      -2.336624       -63.5828 
  25   2.0000      -2.307301       -62.7849 
  26   2.0000      -2.303108       -62.6708 
  27   2.0000      -1.326377       -36.0925 
  28   2.0000      -1.227588       -33.4044 
  29   2.0000      -1.210158       -32.9301 
  30   2.0000      -1.157619       -31.5004 
  31   2.0000      -1.129617       -30.7384 
  32   2.0000      -1.026163       -27.9233 
  33   2.0000      -0.973088       -26.4791 
  34   2.0000      -0.970575       -26.4107 
  35   2.0000      -0.964585       -26.2477 
  36   2.0000      -0.959367       -26.1057 
  37   2.0000      -0.940004       -25.5788 
  38   2.0000      -0.900312       -24.4987 
  39   2.0000      -0.873411       -23.7667 
  40   2.0000      -0.800369       -21.7792 
  41   2.0000      -0.784088       -21.3361 
  42   2.0000      -0.774762       -21.0823 
  43   2.0000      -0.773834       -21.0571 
  44   2.0000      -0.761444       -20.7199 
  45   2.0000      -0.758525       -20.6405 
  46   2.0000      -0.744741       -20.2654 
  47   2.0000      -0.722599       -19.6629 
  48   2.0000      -0.696516       -18.9532 
  49   2.0000      -0.685869       -18.6634 
  50   2.0000      -0.664833       -18.0910 
  51   2.0000      -0.661195       -17.9920 
  52   2.0000      -0.648898       -17.6574 
  53   2.0000      -0.638661       -17.3789 
  54   2.0000      -0.630283       -17.1509 
  55   2.0000      -0.625322       -17.0159 
  56   2.0000      -0.621864       -16.9218 
  57   2.0000      -0.612652       -16.6711 
  58   2.0000      -0.601782       -16.3753 
  59   2.0000      -0.595803       -16.2126 
  60   2.0000      -0.594107       -16.1665 
  61   2.0000      -0.591630       -16.0991 
  62   2.0000      -0.580686       -15.8013 
  63   2.0000      -0.570173       -15.5152 
  64   2.0000      -0.568599       -15.4724 
  65   2.0000      -0.562971       -15.3192 
  66   2.0000      -0.555461       -15.1149 
  67   2.0000      -0.546644       -14.8749 
  68   2.0000      -0.542847       -14.7716 
  69   2.0000      -0.535722       -14.5777 
  70   2.0000      -0.533021       -14.5042 
  71   2.0000      -0.518827       -14.1180 
  72   2.0000      -0.513150       -13.9635 
  73   2.0000      -0.501525       -13.6472 
  74   2.0000      -0.496375       -13.5070 
  75   2.0000      -0.492486       -13.4012 
  76   2.0000      -0.476734       -12.9726 
  77   2.0000      -0.453374       -12.3369 
  78   2.0000      -0.443337       -12.0638 
  79   2.0000      -0.419621       -11.4185 
  80   2.0000      -0.413270       -11.2456 
  81   2.0000      -0.390779       -10.6336 
  82   0.0000      -0.206464        -5.6182 
  83   0.0000      -0.144281        -3.9261 
  84   0.0000      -0.122147        -3.3238 
  85   0.0000      -0.087471        -2.3802 
  86   0.0000      -0.076013        -2.0684 
  87   0.0000      -0.065866        -1.7923 
  88   0.0000      -0.062953        -1.7130 
  89   0.0000      -0.051326        -1.3967 
  90   0.0000      -0.044567        -1.2127 
  91   0.0000      -0.028324        -0.7707 
[...]

----------------------
LOEWDIN ATOMIC CHARGES
----------------------
   0 Ir:   -0.262121
   1 C :   -0.067803
   2 C :   -0.099437
   3 C :   -0.105462
   4 C :   -0.040055
   5 C :   -0.022796
   6 N :    0.000595
   7 C :   -0.069646
   8 C :   -0.361554
   9 H :    0.156076
  10 H :    0.132689
  11 H :    0.143077
  12 C :   -0.343742
  13 H :    0.153973
  14 H :    0.150424
  15 H :    0.138131
  16 H :    0.134053
  17 C :    0.026806
  18 C :   -0.188575
  19 H :    0.160680
  20 C :   -0.216678
  21 C :   -0.125319
  22 S :    0.504444
  23 C :   -0.256027
  24 H :    0.369447
  25 H :    0.163674
  26 H :    0.170235
  27 H :    0.180650
  28 H :    0.177040
  29 H :    0.185416
  30 O :   -0.258320
  31 O :   -0.177484
  32 C :    0.163736
  33 C :   -0.371610
  34 H :    0.163848
  35 H :    0.172448
  36 H :    0.156578
  37 H :    0.179821
  38 H :    0.182790

-------------------------------
LOEWDIN REDUCED ORBITAL CHARGES
-------------------------------
  0 Irs       :     2.448505  s :     2.448505
      pz      :     2.257277  p :     6.780355
      px      :     2.256756
      py      :     2.266322
      dz2     :     1.694232  d :     7.941944
      dxz     :     1.641618
      dyz     :     1.471000
      dx2y2   :     1.586637
      dxy     :     1.548458
      f0      :     0.011194  f :     0.091317
      f+1     :     0.006514
      f-1     :     0.017065
      f+2     :     0.013609
      f-2     :     0.015971
      f+3     :     0.010561
      f-3     :     0.016403
  1 C s       :     2.873160  s :     2.873160
      pz      :     1.054490  p :     3.092402
      px      :     1.071325
      py      :     0.966587
      dz2     :     0.025792  d :     0.102241
      dxz     :     0.025042
      dyz     :     0.016010
      dx2y2   :     0.018869
      dxy     :     0.016528
  2 C s       :     2.877414  s :     2.877414
      pz      :     1.035288  p :     3.124614
      px      :     1.092246
      py      :     0.997080
      dz2     :     0.024316  d :     0.097410
      dxz     :     0.028061
      dyz     :     0.015669
      dx2y2   :     0.017006
      dxy     :     0.012358
  3 C s       :     2.870573  s :     2.870573
      pz      :     1.028678  p :     3.136603
      px      :     1.082683
      py      :     1.025242
      dz2     :     0.021951  d :     0.098286
      dxz     :     0.030859
      dyz     :     0.015664
      dx2y2   :     0.016346
      dxy     :     0.013465
  4 C s       :     2.874028  s :     2.874028
      pz      :     1.077315  p :     3.060965
      px      :     1.045645
      py      :     0.938006
      dz2     :     0.023145  d :     0.105062
      dxz     :     0.028458
      dyz     :     0.013645
      dx2y2   :     0.020354
      dxy     :     0.019461
  5 C s       :     2.883270  s :     2.883270
      pz      :     1.048724  p :     3.037154
      px      :     1.045955
      py      :     0.942475
      dz2     :     0.020866  d :     0.102371
      dxz     :     0.031182
      dyz     :     0.015520
      dx2y2   :     0.015687
      dxy     :     0.019115
  6 N s       :     3.123200  s :     3.123200
      pz      :     1.245044  p :     3.777337
      px      :     1.287028
      py      :     1.245264
      dz2     :     0.030180  d :     0.098867
      dxz     :     0.027213
      dyz     :     0.018482
      dx2y2   :     0.012786
      dxy     :     0.010206
  7 C s       :     2.862234  s :     2.862234
      pz      :     1.053628  p :     3.072647
      px      :     0.941276
      py      :     1.077743
      dz2     :     0.028656  d :     0.134765
      dxz     :     0.029620
      dyz     :     0.012670
      dx2y2   :     0.030711
      dxy     :     0.033107
  8 C s       :     2.953407  s :     2.953407
      pz      :     1.139633  p :     3.340628
      px      :     1.123688
      py      :     1.077307
      dz2     :     0.015184  d :     0.067519
      dxz     :     0.017270
      dyz     :     0.004987
      dx2y2   :     0.010927
      dxy     :     0.019151
  9 H s       :     0.843924  s :     0.843924
 10 H s       :     0.867311  s :     0.867311
 11 H s       :     0.856923  s :     0.856923
 12 C s       :     2.953657  s :     2.953657
      pz      :     1.145540  p :     3.322175
      px      :     1.107767
      py      :     1.068867
      dz2     :     0.015318  d :     0.067910
      dxz     :     0.014565
      dyz     :     0.007203
      dx2y2   :     0.012475
      dxy     :     0.018350
 13 H s       :     0.846027  s :     0.846027
 14 H s       :     0.849576  s :     0.849576
 15 H s       :     0.861869  s :     0.861869
 16 H s       :     0.865947  s :     0.865947
 17 C s       :     2.875180  s :     2.875180
      pz      :     1.003404  p :     2.957910
      px      :     1.060190
      py      :     0.894315
      dz2     :     0.038295  d :     0.140105
      dxz     :     0.046476
      dyz     :     0.026996
      dx2y2   :     0.013132
      dxy     :     0.015206
 18 C s       :     2.891382  s :     2.891382
      pz      :     1.049917  p :     3.184469
      px      :     1.082804
      py      :     1.051748
      dz2     :     0.032849  d :     0.112724
      dxz     :     0.034357
      dyz     :     0.017766
      dx2y2   :     0.015548
      dxy     :     0.012204
 19 H s       :     0.839320  s :     0.839320
 20 C s       :     2.890114  s :     2.890114
      pz      :     1.143300  p :     3.214997
      px      :     1.057910
      py      :     1.013788
      dz2     :     0.017499  d :     0.111567
      dxz     :     0.041240
      dyz     :     0.016177
      dx2y2   :     0.019588
      dxy     :     0.017064
 21 C s       :     2.896791  s :     2.896791
      pz      :     1.075590  p :     3.134186
      px      :     1.082608
      py      :     0.975987
      dz2     :     0.028133  d :     0.094342
      dxz     :     0.031397
      dyz     :     0.015083
      dx2y2   :     0.011972
      dxy     :     0.007758
 22 S s       :     5.497554  s :     5.497554
      pz      :     3.263843  p :     9.841337
      px      :     3.074919
      py      :     3.502576
      dz2     :     0.047702  d :     0.156664
      dxz     :     0.037842
      dyz     :     0.017597
      dx2y2   :     0.025475
      dxy     :     0.028049
 23 C s       :     2.963593  s :     2.963593
      pz      :     1.119019  p :     3.206657
      px      :     1.031132
      py      :     1.056506
      dz2     :     0.023316  d :     0.085778
      dxz     :     0.031172
      dyz     :     0.011565
      dx2y2   :     0.011004
      dxy     :     0.008720
 24 H s       :     0.630553  s :     0.630553
 25 H s       :     0.836326  s :     0.836326
 26 H s       :     0.829765  s :     0.829765
 27 H s       :     0.819350  s :     0.819350
 28 H s       :     0.822960  s :     0.822960
 29 H s       :     0.814584  s :     0.814584
 30 O s       :     3.517812  s :     3.517812
      pz      :     1.447863  p :     4.686456
      px      :     1.580053
      py      :     1.658540
      dz2     :     0.016303  d :     0.054052
      dxz     :     0.014810
      dyz     :     0.013993
      dx2y2   :     0.005514
      dxy     :     0.003432
 31 O s       :     3.441898  s :     3.441898
      pz      :     1.689529  p :     4.675393
      px      :     1.591906
      py      :     1.393957
      dz2     :     0.008930  d :     0.060193
      dxz     :     0.004560
      dyz     :     0.015546
      dx2y2   :     0.014642
      dxy     :     0.016515
 32 C s       :     2.813668  s :     2.813668
      pz      :     0.967911  p :     2.704345
      px      :     0.770414
      py      :     0.966021
      dz2     :     0.071895  d :     0.318251
      dxz     :     0.051462
      dyz     :     0.096167
      dx2y2   :     0.049677
      dxy     :     0.049050
 33 C s       :     2.958609  s :     2.958609
      pz      :     1.103787  p :     3.350450
      px      :     1.154494
      py      :     1.092169
      dz2     :     0.004103  d :     0.062552
      dxz     :     0.016587
      dyz     :     0.021229
      dx2y2   :     0.018500
      dxy     :     0.002133
 34 H s       :     0.836152  s :     0.836152
 35 H s       :     0.827552  s :     0.827552
 36 H s       :     0.843422  s :     0.843422
 37 H s       :     0.820179  s :     0.820179
 38 H s       :     0.817210  s :     0.817210


                      *****************************
                      * MAYER POPULATION ANALYSIS *
                      *****************************

  NA   - Mulliken gross atomic population
  ZA   - Total nuclear charge
  QA   - Mulliken gross atomic charge
  VA   - Mayer's total valence
  BVA  - Mayer's bonded valence
  FA   - Mayer's free valence

  ATOM       NA         ZA         QA         VA         BVA        FA
  0 Ir    16.3806    17.0000     0.6194     3.7677     3.7677    -0.0000
  1 C      6.2636     6.0000    -0.2636     3.7368     3.7368     0.0000
  2 C      6.2449     6.0000    -0.2449     3.7271     3.7271     0.0000
  3 C      6.2851     6.0000    -0.2851     3.7475     3.7475    -0.0000
  4 C      6.2148     6.0000    -0.2148     3.7097     3.7097     0.0000
  5 C      6.1487     6.0000    -0.1487     3.6999     3.6999    -0.0000
  6 N      7.4316     7.0000    -0.4316     3.2130     3.2130    -0.0000
  7 C      6.1281     6.0000    -0.1281     3.7103     3.7103    -0.0000
  8 C      6.6784     6.0000    -0.6784     3.6882     3.6882     0.0000
  9 H      0.7312     1.0000     0.2688     0.8976     0.8976    -0.0000
 10 H      0.7760     1.0000     0.2240     0.9111     0.9111     0.0000
 11 H      0.7469     1.0000     0.2531     0.9008     0.9008    -0.0000
 12 C      6.6324     6.0000    -0.6324     3.6710     3.6710     0.0000
 13 H      0.7221     1.0000     0.2779     0.8734     0.8734    -0.0000
 14 H      0.7421     1.0000     0.2579     0.8990     0.8990    -0.0000
 15 H      0.7671     1.0000     0.2329     0.9095     0.9095     0.0000
 16 H      0.7647     1.0000     0.2353     0.9056     0.9056    -0.0000
 17 C      5.9291     6.0000     0.0709     3.6641     3.6641     0.0000
 18 C      6.1159     6.0000    -0.1159     3.6831     3.6831     0.0000
 19 H      0.7146     1.0000     0.2854     0.8867     0.8867    -0.0000
 20 C      6.6025     6.0000    -0.6025     3.5962     3.5962     0.0000
 21 C      6.0861     6.0000    -0.0861     3.7304     3.7304    -0.0000
 22 S     15.6506    16.0000     0.3494     2.6029     2.6029    -0.0000
 23 C      6.4245     6.0000    -0.4245     3.7483     3.7483    -0.0000
 24 H      0.5291     1.0000     0.4709     0.7466     0.7466     0.0000
 25 H      0.7302     1.0000     0.2698     0.8996     0.8996     0.0000
 26 H      0.7009     1.0000     0.2991     0.8970     0.8970     0.0000
 27 H      0.7176     1.0000     0.2824     0.9080     0.9080     0.0000
 28 H      0.7216     1.0000     0.2784     0.9097     0.9097     0.0000
 29 H      0.7061     1.0000     0.2939     0.8972     0.8972     0.0000
 30 O      8.4762     8.0000    -0.4762     2.1513     2.1513    -0.0000
 31 O      8.5034     8.0000    -0.5034     2.1184     2.1184     0.0000
 32 C      5.3689     6.0000     0.6311     3.8951     3.8951    -0.0000
 33 C      6.7434     6.0000    -0.7434     3.6581     3.6581    -0.0000
 34 H      0.7272     1.0000     0.2728     0.8933     0.8933    -0.0000
 35 H      0.7242     1.0000     0.2758     0.8910     0.8910     0.0000
 36 H      0.7381     1.0000     0.2619     0.8973     0.8973     0.0000
 37 H      0.7218     1.0000     0.2782     0.9117     0.9117    -0.0000
 38 H      0.7094     1.0000     0.2906     0.9040     0.9040    -0.0000

  Mayer bond orders larger than 0.100000
B(  0-Ir,  1-C ) :   0.4655 B(  0-Ir,  2-C ) :   0.3523 B(  0-Ir,  3-C ) :   0.4762 
B(  0-Ir,  4-C ) :   0.4111 B(  0-Ir,  5-C ) :   0.3342 B(  0-Ir,  6-N ) :   0.4639 
B(  0-Ir, 20-C ) :   0.5845 B(  0-Ir, 31-O ) :   0.5111 B(  1-C ,  2-C ) :   1.1220 
B(  1-C ,  4-C ) :   1.2142 B(  1-C , 27-H ) :   0.9106 B(  2-C ,  5-C ) :   1.2671 
B(  2-C , 28-H ) :   0.9101 B(  3-C ,  4-C ) :   1.1546 B(  3-C ,  5-C ) :   1.1491 
B(  3-C , 37-H ) :   0.9156 B(  4-C , 38-H ) :   0.8993 B(  5-C , 29-H ) :   0.9029 
B(  6-N ,  7-C ) :   0.8963 B(  6-N , 17-C ) :   1.6424 B(  7-C ,  8-C ) :   0.9899 
B(  7-C , 12-C ) :   0.9666 B(  7-C , 13-H ) :   0.8778 B(  8-C ,  9-H ) :   0.9049 
B(  8-C , 10-H ) :   0.9133 B(  8-C , 11-H ) :   0.9126 B( 12-C , 14-H ) :   0.9079 
B( 12-C , 15-H ) :   0.9151 B( 12-C , 16-H ) :   0.9116 B( 17-C , 18-C ) :   1.1201 
B( 17-C , 19-H ) :   0.8767 B( 18-C , 20-C ) :   1.2001 B( 18-C , 22-S ) :   1.2465 
B( 20-C , 21-C ) :   1.2408 B( 20-C , 24-H ) :   0.3253 B( 21-C , 23-C ) :   1.5434 
B( 21-C , 25-H ) :   0.9009 B( 22-S , 23-C ) :   1.2159 B( 23-C , 26-H ) :   0.8914 
B( 24-H , 30-O ) :   0.3609 B( 30-O , 32-C ) :   1.5570 B( 31-O , 32-C ) :   1.3902 
B( 32-C , 33-C ) :   0.9434 B( 33-C , 34-H ) :   0.9005 B( 33-C , 35-H ) :   0.8930 
B( 33-C , 36-H ) :   0.9076 


------------------
HIRSHFELD ANALYSIS
------------------

Total integrated alpha density =     82.000131974
Total integrated beta density  =     82.000131974

  ATOM     CHARGE      SPIN    
   0 Ir   0.170007    0.000000
   1 C   -0.009158    0.000000
   2 C   -0.018284    0.000000
   3 C   -0.026277    0.000000
   4 C    0.002284    0.000000
   5 C    0.016542    0.000000
   6 N   -0.066244    0.000000
   7 C    0.052475    0.000000
   8 C   -0.071486    0.000000
   9 H    0.053123    0.000000
  10 H    0.037471    0.000000
  11 H    0.040617    0.000000
  12 C   -0.070881    0.000000
  13 H    0.044707    0.000000
  14 H    0.049593    0.000000
  15 H    0.037631    0.000000
  16 H    0.031261    0.000000
  17 C    0.091832    0.000000
  18 C   -0.005136    0.000000
  19 H    0.077572    0.000000
  20 C   -0.091850    0.000000
  21 C   -0.023581    0.000000
  22 S    0.149856    0.000000
  23 C   -0.024044    0.000000
  24 H    0.113459    0.000000
  25 H    0.068749    0.000000
  26 H    0.080259    0.000000
  27 H    0.078863    0.000000
  28 H    0.076844    0.000000
  29 H    0.088617    0.000000
  30 O   -0.231697    0.000000
  31 O   -0.243123    0.000000
  32 C    0.251004    0.000000
  33 C   -0.061786    0.000000
  34 H    0.058041    0.000000
  35 H    0.064297    0.000000
  36 H    0.051860    0.000000
  37 H    0.077664    0.000000
  38 H    0.078651    0.000000

  TOTAL   0.999736    0.000000

-------
TIMINGS
-------

Total SCF time: 0 days 0 hours 4 min 39 sec 

Total time                  ....     279.895 sec
Sum of individual times     ....     279.282 sec  ( 99.8%)

Fock matrix formation       ....     270.901 sec  ( 96.8%)
  Split-RI-J                ....      20.462 sec  (  7.6% of F)
  Chain of spheres X        ....     235.420 sec  ( 86.9% of F)
  XC integration            ....      14.997 sec  (  5.5% of F)
    Basis function eval.    ....       6.833 sec  ( 45.6% of XC)
    Density eval.           ....       4.071 sec  ( 27.1% of XC)
    XC-Functional eval.     ....       1.135 sec  (  7.6% of XC)
    XC-Potential eval.      ....       2.393 sec  ( 16.0% of XC)
Diagonalization             ....       0.264 sec  (  0.1%)
Density matrix formation    ....       0.039 sec  (  0.0%)
Population analysis         ....       1.450 sec  (  0.5%)
Initial guess               ....       0.032 sec  (  0.0%)
Orbital Transformation      ....       0.000 sec  (  0.0%)
Orbital Orthonormalization  ....       0.025 sec  (  0.0%)
DIIS solution               ....       0.110 sec  (  0.0%)
Grid generation             ....       6.485 sec  (  2.3%)

Maximum memory used throughout the entire SCF-calculation: 173.5 MB


-------------------------------------------------------------------------------
                          DFT DISPERSION CORRECTION                            
                                                                               
                              DFTD3 V3.1  Rev 1                                
                          USING Becke-Johnson damping                          
-------------------------------------------------------------------------------
The PBEh-3c composite method is recognized
Using three-body term ABC
Active option DFTDOPT                   ...         4   

molecular C6(AA) [au] = 19538.587684 


            DFT-D V3
 parameters
 s6 scaling factor         :     1.0000 
 a1 scaling factor         :     0.4860 
 s8 scaling factor         :     0.0000 
 a2 scaling factor         :     4.5000 
 Damping factor alpha9(ATM):    16.0000 
 ad hoc parameters k1-k3   :    16.0000     1.3333    -4.0000 

 Edisp/kcal,au: -19.341145906547  -0.030822074634 
 E6   /kcal   : -19.678518097 
 E8   /kcal   :  -0.000000000 
 E6(ABC)      :   0.337372191 
 % E8         :   0.000000000 
 % E6(ABC)    :  -1.744323694 

-------------------------   ----------------
Dispersion correction           -0.030822075
-------------------------   ----------------

 ** NOTE ** -> element ir will be treated as co
NOTIFICATION: Different basis set in ORCA and otool_gcp:
ORCA: 358  gCP: 357 
If you are NOT using ECPs, check your basis set inputs!
------------------   -----------------
gCP correction             0.079956057
------------------   -----------------

-------------------------   --------------------
FINAL SINGLE POINT ENERGY     -1288.397089300003
-------------------------   --------------------

                                *** OPTIMIZATION RUN DONE ***

                            ***************************************
                            *     ORCA property calculations      *
                            ***************************************

                                    ---------------------
                                    Active property flags
                                    ---------------------
   (+) Dipole Moment


------------------------------------------------------------------------------
                       ORCA ELECTRIC PROPERTIES CALCULATION
------------------------------------------------------------------------------

Dipole Moment Calculation                       ... on
Quadrupole Moment Calculation                   ... off
Polarizability Calculation                      ... off
GBWName                                         ... reaction4-IEIP_ts_guess_scan_14-7_orca.gbw
Electron density                                ... reaction4-IEIP_ts_guess_scan_14-7_orca.scfp
The origin for moment calculation is the CENTER OF MASS  = ( 0.874155, -0.542904 -0.212719)

-------------
DIPOLE MOMENT
-------------
                                X             Y             Z
Electronic contribution:     38.36152     -74.87705      67.30483
Nuclear contribution   :    -38.95539      74.54412     -67.62427
                        -----------------------------------------
Total Dipole Moment    :     -0.59387      -0.33293      -0.31944
                        -----------------------------------------
Magnitude (a.u.)       :      0.75204
Magnitude (Debye)      :      1.91154



--------------------
Rotational spectrum 
--------------------
 
Rotational constants in cm-1:     0.010565     0.008981     0.008270 
Rotational constants in MHz :   316.721620   269.233831   247.917754 

 Dipole components along the rotational axes: 
x,y,z [a.u.] :    -0.043797     0.184215     0.727816 
x,y,z [Debye]:    -0.111322     0.468236     1.849961 

 

Timings for individual modules:

Sum of individual times         ...     8026.337 sec (= 133.772 min)
GTO integral calculation        ...       33.089 sec (=   0.551 min)   0.4 %
SCF iterations                  ...     6261.364 sec (= 104.356 min)  78.0 %
SCF Gradient evaluation         ...     1726.642 sec (=  28.777 min)  21.5 %
Geometry relaxation             ...        5.242 sec (=   0.087 min)   0.1 %
                             ****ORCA TERMINATED NORMALLY****
TOTAL RUN TIME: 0 days 2 hours 13 minutes 57 seconds 591 msec
