
                                 *****************
                                 * O   R   C   A *
                                 *****************

                                            #,                                       
                                            ###                                      
                                            ####                                     
                                            #####                                    
                                            ######                                   
                                           ########,                                 
                                     ,,################,,,,,                         
                               ,,#################################,,                 
                          ,,##########################################,,             
                       ,#########################################, ''#####,          
                    ,#############################################,,   '####,        
                  ,##################################################,,,,####,       
                ,###########''''           ''''###############################       
              ,#####''   ,,,,##########,,,,          '''####'''          '####       
            ,##' ,,,,###########################,,,                        '##       
           ' ,,###''''                  '''############,,,                           
         ,,##''                                '''############,,,,        ,,,,,,###''
      ,#''                                            '''#######################'''  
     '                                                          ''''####''''         
             ,#######,   #######,   ,#######,      ##                                
            ,#'     '#,  ##    ##  ,#'     '#,    #''#        ######   ,####,        
            ##       ##  ##   ,#'  ##            #'  '#       #        #'  '#        
            ##       ##  #######   ##           ,######,      #####,   #    #        
            '#,     ,#'  ##    ##  '#,     ,#' ,#      #,         ##   #,  ,#        
             '#######'   ##     ##  '#######'  #'      '#     #####' # '####'        



                  #######################################################
                  #                        -***-                        #
                  #          Department of theory and spectroscopy      #
                  #    Directorship and core code : Frank Neese         #
                  #        Max Planck Institute fuer Kohlenforschung    #
                  #                Kaiser Wilhelm Platz 1               #
                  #                 D-45470 Muelheim/Ruhr               #
                  #                      Germany                        #
                  #                                                     #
                  #                  All rights reserved                #
                  #                        -***-                        #
                  #######################################################


                         Program Version 5.0.3 -  RELEASE  -


 With contributions from (in alphabetic order):
   Daniel Aravena         : Magnetic Suceptibility
   Michael Atanasov       : Ab Initio Ligand Field Theory (pilot matlab implementation)
   Alexander A. Auer      : GIAO ZORA, VPT2 properties, NMR spectrum
   Ute Becker             : Parallelization
   Giovanni Bistoni       : ED, misc. LED, open-shell LED, HFLD
   Martin Brehm           : Molecular dynamics
   Dmytro Bykov           : SCF Hessian
   Vijay G. Chilkuri      : MRCI spin determinant printing, contributions to CSF-ICE
   Dipayan Datta          : RHF DLPNO-CCSD density
   Achintya Kumar Dutta   : EOM-CC, STEOM-CC
   Dmitry Ganyushin       : Spin-Orbit,Spin-Spin,Magnetic field MRCI
   Miquel Garcia          : C-PCM and meta-GGA Hessian, CC/C-PCM, Gaussian charge scheme
   Yang Guo               : DLPNO-NEVPT2, F12-NEVPT2, CIM, IAO-localization
   Andreas Hansen         : Spin unrestricted coupled pair/coupled cluster methods
   Benjamin Helmich-Paris : MC-RPA, TRAH-SCF, COSX integrals
   Lee Huntington         : MR-EOM, pCC
   Robert Izsak           : Overlap fitted RIJCOSX, COSX-SCS-MP3, EOM
   Marcus Kettner         : VPT2
   Christian Kollmar      : KDIIS, OOCD, Brueckner-CCSD(T), CCSD density, CASPT2, CASPT2-K
   Simone Kossmann        : Meta GGA functionals, TD-DFT gradient, OOMP2, MP2 Hessian
   Martin Krupicka        : Initial AUTO-CI
   Lucas Lang             : DCDCAS
   Marvin Lechner         : AUTO-CI (C++ implementation), FIC-MRCC
   Dagmar Lenk            : GEPOL surface, SMD
   Dimitrios Liakos       : Extrapolation schemes; Compound Job, initial MDCI parallelization
   Dimitrios Manganas     : Further ROCIS development; embedding schemes
   Dimitrios Pantazis     : SARC Basis sets
   Anastasios Papadopoulos: AUTO-CI, single reference methods and gradients
   Taras Petrenko         : DFT Hessian,TD-DFT gradient, ASA, ECA, R-Raman, ABS, FL, XAS/XES, NRVS
   Peter Pinski           : DLPNO-MP2, DLPNO-MP2 Gradient
   Christoph Reimann      : Effective Core Potentials
   Marius Retegan         : Local ZFS, SOC
   Christoph Riplinger    : Optimizer, TS searches, QM/MM, DLPNO-CCSD(T), (RO)-DLPNO pert. Triples
   Tobias Risthaus        : Range-separated hybrids, TD-DFT gradient, RPA, STAB
   Michael Roemelt        : Original ROCIS implementation
   Masaaki Saitow         : Open-shell DLPNO-CCSD energy and density
   Barbara Sandhoefer     : DKH picture change effects
   Avijit Sen             : IP-ROCIS
   Kantharuban Sivalingam : CASSCF convergence, NEVPT2, FIC-MRCI
   Bernardo de Souza      : ESD, SOC TD-DFT
   Georgi Stoychev        : AutoAux, RI-MP2 NMR, DLPNO-MP2 response
   Willem Van den Heuvel  : Paramagnetic NMR
   Boris Wezisla          : Elementary symmetry handling
   Frank Wennmohs         : Technical directorship


 We gratefully acknowledge several colleagues who have allowed us to
 interface, adapt or use parts of their codes:
   Stefan Grimme, W. Hujo, H. Kruse, P. Pracht,  : VdW corrections, initial TS optimization,
                  C. Bannwarth, S. Ehlert          DFT functionals, gCP, sTDA/sTD-DF
   Ed Valeev, F. Pavosevic, A. Kumar             : LibInt (2-el integral package), F12 methods
   Garnet Chan, S. Sharma, J. Yang, R. Olivares  : DMRG
   Ulf Ekstrom                                   : XCFun DFT Library
   Mihaly Kallay                                 : mrcc  (arbitrary order and MRCC methods)
   Jiri Pittner, Ondrej Demel                    : Mk-CCSD
   Frank Weinhold                                : gennbo (NPA and NBO analysis)
   Christopher J. Cramer and Donald G. Truhlar   : smd solvation model
   Lars Goerigk                                  : TD-DFT with DH, B97 family of functionals
   V. Asgeirsson, H. Jonsson                     : NEB implementation
   FAccTs GmbH                                   : IRC, NEB, NEB-TS, DLPNO-Multilevel, CI-OPT
                                                   MM, QMMM, 2- and 3-layer-ONIOM, Crystal-QMMM,
                                                   LR-CPCM, SF, NACMEs, symmetry and pop. for TD-DFT,
                                                   nearIR, NL-DFT gradient (VV10), updates on ESD,
                                                   ML-optimized integration grids
   S Lehtola, MJT Oliveira, MAL Marques          : LibXC Library
   Liviu Ungur et al                             : ANISO software


 Your calculation uses the libint2 library for the computation of 2-el integrals
 For citations please refer to: http://libint.valeyev.net

 Your ORCA version has been built with support for libXC version: 5.1.0
 For citations please refer to: https://tddft.org/programs/libxc/

 This ORCA versions uses:
   CBLAS   interface :  Fast vector & matrix operations
   LAPACKE interface :  Fast linear algebra routines
   SCALAPACK package :  Parallel linear algebra routines
   Shared memory     :  Shared parallel matrices
   BLAS/LAPACK       :  OpenBLAS 0.3.15  USE64BITINT DYNAMIC_ARCH NO_AFFINITY SkylakeX SINGLE_THREADED
        Core in use  :  SkylakeX
   Copyright (c) 2011-2014, The OpenBLAS Project


Your calculation utilizes the geometrical counterpoise correction gCP
Please cite in your paper:
H.Kruse, S. Grimme J.Chem.Phys., 136, (2012), 154101 
   

Your calculation utilizes the atom-pairwise dispersion correction
with the Becke-Johnson damping scheme (D3BJ)
Cite in your paper:
S.Grimme, S.Ehrlich, L.Goerigk, J Comput Chem, (2011), 32, 1456–1465 
S.Grimme, J.Antony, S.Ehrlich and H.Krieg, J.Chem.Phys., 132, (2010), 154104 
   

Your calculation employs the composite approach PBEh-3c.
Please cite in your paper:
S. Grimme, J. G. Brandenburg, C. Bannwarth, A. Hansen J.Chem.Phys., 143, (2015), 054107 
   

================================================================================

cite the ECPs for Ir [Def2-ECP] as follows:
Ce-Yb(ecp-28): M. Dolg, H. Stoll, H.Preuss, J. Chem. Phys., 1989, 90, 1730-1734.
Y-Cd(ecp-28), Hf-Hg(ecp-46): D. Andrae,U. Haeussermann, M. Dolg, H. Stoll, H. Preuss, Theor. Chim. Acta, 1990, 77, 123-141.
In-Sb(ecp-28), Tl-Bi(ecp-46): B. Metz, H. Stoll, M. Dolg, J. Chem. Phys., 2000, 113, 2563-2569.
Te-Xe(ecp-28), Po-Rn(ecp-46): K. A. Peterson, D. Figgen, E. Goll, H. Stoll, M. Dolg, J. Chem. Phys., 2003, 119, 11113-11123.
Rb(ecp-28), Cs(ecp-46): T. Leininger, A. Nicklass, W. Kuechle, H. Stoll, M. Dolg, A. Bergner, Chem. Phys. Lett., 1996, 255, 274-280.
Sr(ecp-28), Ba(ecp-46): M. Kaupp, P. V. Schleyer, H. Stoll and H. Preuss, J. Chem. Phys., 1991, 94, 1360-1366.
La(ecp-46): M. Dolg, H. Stoll, A. Savin, H. Preuss, Theor. Chim. Acta, 1989, 75, 173-194.
Lu(ecp-28): X. Cao, M. Dolg, J. Chem. Phys., 2001, 115, 7348-7355.

ECP parameters for Ir [Def2-ECP] have been obtained from:
TURBOMOLE (7.0.2)

----- Orbital basis set information -----
Your calculation utilizes the basis: def2-mSVP

----- AuxJ basis set information -----
Your calculation utilizes the auxiliary basis: def2/J
   F. Weigend, Phys. Chem. Chem. Phys. 8, 1057 (2006).

================================================================================
                                        WARNINGS
                       Please study these warnings very carefully!
================================================================================


WARNING: Geometry Optimization
  ===> : Switching off AutoStart
         For restart on a previous wavefunction, please use MOREAD

WARNING: No Hueckel Guess possible with ECP basis!
  ===> : Switching to HCORE guess!

INFO   : the flag for use of the SHARK integral package has been found!

================================================================================
                                       INPUT FILE
================================================================================
NAME = reaction4-IEIP_ts_guess_scan_3-8_orca.inp
|  1> ! Opt PBEh-3c
|  2> %geom Constraints
|  3> { B 0 20 2.4714285714285715 C }
|  4> { B 24 30 1.3857142857142857 C }
|  5>     end
|  6> end
|  7> %output 
|  8> xyzfile=True 
|  9> end 
| 10> %scf 
| 11> maxiter 250 
| 12> end
| 13> %output
| 14> Print[P_Hirshfeld] = 1
| 15> end
| 16> % maxcore
| 17> 4000
| 18> *xyz 1 1
| 19> Ir   0.58008046  -0.72924035   0.48062113 
| 20> C    0.02414241  -2.80850477   0.35954715 
| 21> C    0.09766090  -2.36346869   1.72972035 
| 22> C    2.18914714  -2.14343827   0.79166462 
| 23> C    1.29262832  -2.64588671  -0.22537157 
| 24> C    1.46401069  -2.00768446   1.98828421 
| 25> N   -1.04277046   0.16041493  -0.51396546 
| 26> C   -2.31869882   0.48423349   0.14448774 
| 27> C   -3.12633491   1.54740794  -0.58271667 
| 28> H   -3.95824316   1.85144702   0.05111022 
| 29> H   -3.56314159   1.18750858  -1.51565929 
| 30> H   -2.53546106   2.43981355  -0.79138839 
| 31> C   -3.12673267  -0.79087617   0.35196455 
| 32> H   -2.03336516   0.87812891   1.12144481 
| 33> H   -4.04518587  -0.55771220   0.88853612 
| 34> H   -3.40389503  -1.24398824  -0.60080067 
| 35> H   -2.58599611  -1.52794833   0.94392107 
| 36> C   -0.83945020   0.36836828  -1.75796164 
| 37> C    0.51001678   0.16169307  -2.23296671 
| 38> H   -1.62464990   0.72034108  -2.42109609 
| 39> C    1.61317061   0.49601876  -1.45667015 
| 40> C    2.81595856   0.10235287  -2.10935831 
| 41> S    0.93451130  -0.56329475  -3.72008247 
| 42> C    2.60209884  -0.47166091  -3.32391952 
| 43> H    1.53553141   1.38028714  -0.64634629 
| 44> H    3.80346546   0.28977188  -1.71326807 
| 45> H    3.33835789  -0.82828755  -4.02837806 
| 46> H   -0.86297692  -3.16667476  -0.14279676 
| 47> H   -0.69634646  -2.39836177   2.46116873 
| 48> H    1.84635612  -1.61984990   2.92154205 
| 49> O    1.33888710   2.43353247   0.25476707 
| 50> O    0.53549812   0.91460097   1.67711602 
| 51> C    0.92499293   2.10403396   1.36615996 
| 52> C    0.87466632   3.09666748   2.49266235 
| 53> H    0.83301460   4.11234477   2.10884342 
| 54> H    1.78389745   3.00275473   3.08977519 
| 55> H    0.03225875   2.91245964   3.15594264 
| 56> H    3.23545931  -1.91424833   0.65418183 
| 57> H    1.55680684  -2.86386535  -1.24997497 
| 58> *
| 59> 
| 60>                          ****END OF INPUT****
================================================================================

                       *****************************
                       * Geometry Optimization Run *
                       *****************************

Geometry optimization settings:
Update method            Update   .... BFGS
Choice of coordinates    CoordSys .... Z-matrix Internals
Initial Hessian          InHess   .... Almoef's Model

Convergence Tolerances:
Energy Change            TolE     ....  5.0000e-06 Eh
Max. Gradient            TolMAXG  ....  3.0000e-04 Eh/bohr
RMS Gradient             TolRMSG  ....  1.0000e-04 Eh/bohr
Max. Displacement        TolMAXD  ....  4.0000e-03 bohr
RMS Displacement         TolRMSD  ....  2.0000e-03 bohr
Strict Convergence                ....  False
------------------------------------------------------------------------------
                        ORCA OPTIMIZATION COORDINATE SETUP
------------------------------------------------------------------------------

The optimization will be done in new redundant internal coordinates
Making redundant internal coordinates   ...  (new redundants) done
Evaluating the initial hessian          ...  (Almloef) done
Evaluating the coordinates              ...  done
Calculating the B-matrix                .... done
Calculating the G-matrix                .... done
Diagonalizing the G-matrix              .... done
Imposing constraints:
 Iter   0:  RMS(Cart)=    0.0240954978 RMS(Int)=    0.0025389998
 Iter   1:  RMS(Cart)=    0.0010272288 RMS(Int)=    0.0001215686
 Iter   2:  RMS(Cart)=    0.0000478932 RMS(Int)=    0.0000055930
 Iter   3:  RMS(Cart)=    0.0000021359 RMS(Int)=    0.0000002464
 Iter   4:  RMS(Cart)=    0.0000000915 RMS(Int)=    0.0000000105
CONVERGED
Small eigenvalue found = 1.256e-02
Small eigenvalue found = 1.596e-02
Small eigenvalue found = 2.231e-02
Small eigenvalue found = 2.330e-02
Small eigenvalue found = 2.893e-02
The first mode is                       ....  227
The number of degrees of freedom        ....  111
Storing new coordinates                 .... done

    -----------------------------------------------------------------
                    Redundant Internal Coordinates


    -----------------------------------------------------------------
         Definition                    Initial Value    Approx d2E/dq
    -----------------------------------------------------------------
      1. B(C   1,Ir  0)                  2.1557         0.087308   
      2. B(C   2,C   1)                  1.4425         0.515183   
      3. B(C   2,Ir  0)                  2.1128         0.102235   
      4. B(C   3,Ir  0)                  2.1647         0.084479   
      5. B(C   4,Ir  0)                  2.1633         0.084919   
      6. B(C   4,C   3)                  1.4459         0.508849   
      7. B(C   4,C   1)                  1.4063         0.588519   
      8. B(C   5,Ir  0)                  2.1654         0.084265   
      9. B(C   5,C   2)                  1.4354         0.528833   
     10. B(C   5,C   3)                  1.4058         0.589659   
     11. B(N   6,Ir  0)                  2.1006         0.095592   
     12. B(C   7,N   6)                  1.4719         0.414239   
     13. B(C   8,C   7)                  1.5203         0.387066   
     14. B(H   9,C   8)                  1.0892         0.361226   
     15. B(H  10,C   8)                  1.0912         0.358521   
     16. B(H  11,C   8)                  1.0904         0.359516   
     17. B(C  12,C   7)                  1.5238         0.382226   
     18. B(H  13,C   7)                  1.0913         0.358337   
     19. B(H  14,C  12)                  1.0890         0.361480   
     20. B(H  15,C  12)                  1.0908         0.359015   
     21. B(H  16,C  12)                  1.0891         0.361326   
     22. B(C  17,N   6)                  1.2759         0.845857   
     23. B(C  18,C  17)                  1.4445         0.509598   
     24. B(H  19,C  17)                  1.0864         0.364952   
     25. B(C  20,C  18)                  1.3896         0.625409   
     26. B(C  20,Ir  0)                  2.4714         0.023386 C 
     27. B(C  21,C  20)                  1.4241         0.551507   
     28. B(S  22,C  18)                  1.7080         0.523761   
     29. B(C  23,C  21)                  1.3605         0.696851   
     30. B(C  23,S  22)                  1.7167         0.507786   
     31. B(H  24,C  20)                  1.2018         0.238716   
     32. B(H  25,C  21)                  1.0804         0.373077   
     33. B(H  26,C  23)                  1.0797         0.374133   
     34. B(H  27,C   1)                  1.0806         0.372803   
     35. B(H  28,C   2)                  1.0802         0.373396   
     36. B(H  29,C   5)                  1.0806         0.372830   
     37. B(O  30,H  24)                  1.3857         0.103270 C 
     38. B(O  31,Ir  0)                  2.0338         0.122432   
     39. B(C  32,O  30)                  1.2309         1.004008   
     40. B(C  32,O  31)                  1.2897         0.809107   
     41. B(C  33,C  32)                  1.5023         0.413613   
     42. B(H  34,C  33)                  1.0866         0.364655   
     43. B(H  35,C  33)                  1.0918         0.357704   
     44. B(H  36,C  33)                  1.0879         0.362890   
     45. B(H  37,C   3)                  1.0799         0.373703   
     46. B(H  38,C   4)                  1.0804         0.373119   
     47. A(C   2,Ir  0,O  31)          105.8029         0.266393   
     48. A(C   1,Ir  0,O  31)          143.8049         0.260167   
     49. A(C   5,Ir  0,N   6)          153.4953         0.249549   
     50. A(C   1,Ir  0,C   3)           64.5098         0.247513   
     51. A(C   1,Ir  0,C   5)           64.8443         0.247422   
     52. A(C   3,Ir  0,O  31)          117.3745         0.258896   
     53. A(C   3,Ir  0,N   6)          156.7534         0.249642   
     54. A(C   2,Ir  0,C   5)           39.1841         0.253184   
     55. A(C   3,Ir  0,C   4)           39.0335         0.246521   
     56. A(C   2,Ir  0,C   4)           65.3456         0.253471   
     57. A(C   5,Ir  0,O  31)           94.3867         0.258798   
     58. A(C   4,Ir  0,N   6)          118.3659         0.249830   
     59. A(C   1,Ir  0,C   2)           39.4883         0.254508   
     60. A(C   4,Ir  0,C   5)           64.5123         0.246430   
     61. A(C   4,Ir  0,O  31)          156.2603         0.259096   
     62. A(C   1,Ir  0,N   6)          100.5227         0.250843   
     63. A(C   2,Ir  0,C   3)           65.1306         0.253278   
     64. A(C   2,Ir  0,N   6)          115.5326         0.256730   
     65. A(C   1,Ir  0,C   4)           38.0056         0.247700   
     66. A(N   6,Ir  0,O  31)           85.3730         0.262465   
     67. A(C   3,Ir  0,C   5)           37.8893         0.246246   
     68. A(Ir  0,C   1,H  27)          123.8857         0.269952   
     69. A(C   2,C   1,C   4)          108.2661         0.416021   
     70. A(Ir  0,C   1,C   4)           71.2886         0.320996   
     71. A(C   4,C   1,H  27)          125.8387         0.351869   
     72. A(Ir  0,C   1,C   2)           68.6507         0.314112   
     73. A(C   2,C   1,H  27)          125.8507         0.344069   
     74. A(C   5,C   2,H  28)          125.8573         0.345675   
     75. A(Ir  0,C   2,C   5)           72.3878         0.323684   
     76. A(C   1,C   2,C   5)          107.2223         0.408201   
     77. A(Ir  0,C   2,C   1)           71.8610         0.322299   
     78. A(Ir  0,C   2,H  28)          126.3854         0.276600   
     79. A(C   1,C   2,H  28)          126.5697         0.344161   
     80. A(Ir  0,C   3,H  37)          124.2825         0.268706   
     81. A(C   4,C   3,C   5)          108.2086         0.415249   
     82. A(C   4,C   3,H  37)          125.7999         0.343495   
     83. A(Ir  0,C   3,C   4)           70.4294         0.311815   
     84. A(Ir  0,C   3,C   5)           71.0823         0.319374   
     85. A(C   5,C   3,H  37)          125.9914         0.352128   
     86. A(Ir  0,C   4,C   1)           70.7058         0.319544   
     87. A(Ir  0,C   4,H  38)          124.6690         0.268853   
     88. A(C   1,C   4,H  38)          126.2800         0.351920   
     89. A(C   3,C   4,H  38)          125.8458         0.343405   
     90. A(Ir  0,C   4,C   3)           70.5371         0.312077   
     91. A(C   1,C   4,C   3)          107.8725         0.415107   
     92. A(Ir  0,C   5,H  29)          122.2699         0.268507   
     93. A(C   3,C   5,H  29)          125.9683         0.351989   
     94. A(C   2,C   5,H  29)          125.5466         0.345587   
     95. A(Ir  0,C   5,C   3)           71.0283         0.319241   
     96. A(C   2,C   5,C   3)          108.2858         0.418106   
     97. A(Ir  0,C   5,C   2)           68.4281         0.313637   
     98. A(Ir  0,N   6,C  17)          113.5492         0.342128   
     99. A(C   7,N   6,C  17)          122.7612         0.421368   
    100. A(Ir  0,N   6,C   7)          123.6683         0.304360   
    101. A(N   6,C   7,C   8)          113.6013         0.369778   
    102. A(N   6,C   7,C  12)          109.6641         0.368979   
    103. A(C   8,C   7,C  12)          111.6299         0.367000   
    104. A(N   6,C   7,H  13)          104.6687         0.327640   
    105. A(C   8,C   7,H  13)          108.3415         0.325953   
    106. A(C  12,C   7,H  13)          108.5894         0.325279   
    107. A(C   7,C   8,H  11)          112.0848         0.326129   
    108. A(H   9,C   8,H  11)          107.2653         0.290908   
    109. A(H  10,C   8,H  11)          108.8577         0.290565   
    110. A(C   7,C   8,H   9)          108.8208         0.326384   
    111. A(C   7,C   8,H  10)          113.0139         0.325980   
    112. A(H   9,C   8,H  10)          106.4908         0.290781   
    113. A(C   7,C  12,H  14)          109.5832         0.325746   
    114. A(C   7,C  12,H  15)          111.3097         0.325380   
    115. A(H  14,C  12,H  15)          107.7590         0.290876   
    116. A(C   7,C  12,H  16)          112.1516         0.325723   
    117. A(H  14,C  12,H  16)          107.2088         0.291170   
    118. A(H  15,C  12,H  16)          108.6497         0.290857   
    119. A(N   6,C  17,C  18)          115.9152         0.440214   
    120. A(N   6,C  17,H  19)          122.4057         0.370654   
    121. A(C  18,C  17,H  19)          121.6345         0.342218   
    122. A(C  17,C  18,C  20)          121.3473         0.419735   
    123. A(C  17,C  18,S  22)          125.5031         0.429026   
    124. A(C  20,C  18,S  22)          113.0833         0.445157   
    125. A(C  18,C  20,C  21)          110.3293         0.425705   
    126. A(C  18,C  20,H  24)          120.1643         0.329933   
    127. A(C  21,C  20,H  24)          124.5576         0.323173   
    128. A(C  20,C  21,H  25)          123.7851         0.348076   
    129. A(C  23,C  21,H  25)          122.9726         0.362162   
    130. A(C  20,C  21,C  23)          113.1498         0.434049   
    131. A(C  18,S  22,C  23)           90.9899         0.452603   
    132. A(C  21,C  23,H  26)          127.9311         0.362337   
    133. A(S  22,C  23,H  26)          119.6219         0.361303   
    134. A(C  21,C  23,S  22)          112.4266         0.451434   
    135. A(Ir  0,O  31,C  32)          126.7111         0.354033   
    136. A(O  30,C  32,O  31)          124.5018         0.491046   
    137. A(O  30,C  32,C  33)          120.7523         0.437263   
    138. A(O  31,C  32,C  33)          114.7289         0.420659   
    139. A(C  32,C  33,H  34)          110.7336         0.330491   
    140. A(C  32,C  33,H  35)          108.9871         0.329441   
    141. A(H  34,C  33,H  35)          107.7899         0.291109   
    142. A(C  32,C  33,H  36)          111.7931         0.330226   
    143. A(H  34,C  33,H  36)          110.1180         0.291768   
    144. A(H  35,C  33,H  36)          107.2681         0.290887   
    145. D(C   2,C   1,Ir  0,C   4)    119.1891         0.001710   
    146. D(C   2,C   1,Ir  0,C   5)     39.0424         0.001710   
    147. D(H  27,C   1,Ir  0,O  31)     98.6224         0.001710   
    148. D(C   4,C   1,Ir  0,C   2)   -119.1891         0.001710   
    149. D(C   2,C   1,Ir  0,O  31)    -21.0451         0.001710   
    150. D(H  27,C   1,Ir  0,C   3)   -159.1935         0.001710   
    151. D(C   4,C   1,Ir  0,O  31)   -140.2342         0.001710   
    152. D(H  27,C   1,Ir  0,C   2)    119.6676         0.001710   
    153. D(C   4,C   1,Ir  0,C   3)    -38.0501         0.001710   
    154. D(H  27,C   1,Ir  0,N   6)      2.0244         0.001710   
    155. D(C   2,C   1,Ir  0,C   3)     81.1390         0.001710   
    156. D(C   4,C   1,Ir  0,N   6)    123.1678         0.001710   
    157. D(H  27,C   1,Ir  0,C   4)   -121.1433         0.001710   
    158. D(H  27,C   1,Ir  0,C   5)    158.7100         0.001710   
    159. D(C   4,C   1,Ir  0,C   5)    -80.1466         0.001710   
    160. D(C   2,C   1,Ir  0,N   6)   -117.6431         0.001710   
    161. D(Ir  0,C   2,C   1,H  27)   -117.1357         0.021051   
    162. D(C   1,C   2,Ir  0,C   5)   -115.5237         0.001786   
    163. D(C   1,C   2,Ir  0,C   4)    -36.2611         0.001786   
    164. D(H  28,C   2,C   1,H  27)      5.1554         0.021051   
    165. D(H  28,C   2,C   1,Ir  0)    122.2911         0.021051   
    166. D(C   5,C   2,C   1,H  27)    178.6427         0.021051   
    167. D(C   1,C   2,Ir  0,C   3)    -79.4340         0.001786   
    168. D(H  28,C   2,Ir  0,C   4)   -158.7668         0.001786   
    169. D(H  28,C   2,Ir  0,C   5)    121.9706         0.001786   
    170. D(C   5,C   2,Ir  0,C   3)     36.0898         0.001786   
    171. D(C   5,C   2,Ir  0,C   1)    115.5237         0.001786   
    172. D(H  28,C   2,C   1,C   4)   -177.1631         0.021051   
    173. D(C   5,C   2,Ir  0,C   4)     79.2626         0.001786   
    174. D(C   5,C   2,C   1,Ir  0)    -64.2216         0.021051   
    175. D(H  28,C   2,Ir  0,N   6)    -47.6613         0.001786   
    176. D(H  28,C   2,Ir  0,O  31)     44.7621         0.001786   
    177. D(Ir  0,C   2,C   1,C   4)     60.5458         0.021051   
    178. D(C   5,C   2,C   1,C   4)     -3.6758         0.021051   
    179. D(C   1,C   2,Ir  0,N   6)     74.8444         0.001786   
    180. D(C   5,C   2,Ir  0,O  31)    -77.2084         0.001786   
    181. D(H  28,C   2,Ir  0,C   1)   -122.5057         0.001786   
    182. D(C   1,C   2,Ir  0,O  31)    167.2679         0.001786   
    183. D(H  28,C   2,Ir  0,C   3)    158.0603         0.001786   
    184. D(C   5,C   2,Ir  0,N   6)   -169.6318         0.001786   
    185. D(C   4,C   3,Ir  0,C   5)    118.1910         0.001697   
    186. D(C   4,C   3,Ir  0,C   1)     37.0573         0.001697   
    187. D(C   4,C   3,Ir  0,O  31)    176.5139         0.001697   
    188. D(C   4,C   3,Ir  0,C   2)     80.8897         0.001697   
    189. D(C   5,C   3,Ir  0,O  31)     58.3229         0.001697   
    190. D(C   5,C   3,Ir  0,C   2)    -37.3013         0.001697   
    191. D(C   4,C   3,Ir  0,N   6)    -16.2676         0.001697   
    192. D(H  37,C   3,Ir  0,C   4)    120.5974         0.001697   
    193. D(H  37,C   3,Ir  0,C   1)    157.6547         0.001697   
    194. D(C   5,C   3,Ir  0,C   1)    -81.1337         0.001697   
    195. D(C   5,C   3,Ir  0,C   4)   -118.1910         0.001697   
    196. D(C   5,C   3,Ir  0,N   6)   -134.4586         0.001697   
    197. D(H  37,C   3,Ir  0,C   5)   -121.2116         0.001697   
    198. D(H  37,C   3,Ir  0,N   6)    104.3299         0.001697   
    199. D(H  37,C   3,Ir  0,O  31)    -62.8887         0.001697   
    200. D(H  37,C   3,Ir  0,C   2)   -158.5128         0.001697   
    201. D(C   1,C   4,Ir  0,C   3)    117.9425         0.001699   
    202. D(H  38,C   4,C   3,H  37)      0.5441         0.020521   
    203. D(C   1,C   4,Ir  0,C   5)     81.0979         0.001699   
    204. D(C   1,C   4,Ir  0,N   6)    -69.2757         0.001699   
    205. D(C   1,C   4,Ir  0,O  31)    110.2343         0.001699   
    206. D(C   1,C   4,Ir  0,C   2)     37.6512         0.001699   
    207. D(C   3,C   4,Ir  0,C   1)   -117.9425         0.001699   
    208. D(H  38,C   4,C   3,C   5)   -179.3579         0.020521   
    209. D(C   3,C   4,Ir  0,C   5)    -36.8446         0.001699   
    210. D(C   3,C   4,Ir  0,N   6)    172.7818         0.001699   
    211. D(C   3,C   4,Ir  0,O  31)     -7.7082         0.001699   
    212. D(Ir  0,C   4,C   1,C   2)    -58.8984         0.027808   
    213. D(H  38,C   4,Ir  0,C   2)    158.9942         0.001699   
    214. D(H  38,C   4,Ir  0,C   3)   -120.7145         0.001699   
    215. D(H  38,C   4,C   1,C   2)   -178.2818         0.027808   
    216. D(H  38,C   4,Ir  0,N   6)     52.0673         0.001699   
    217. D(H  38,C   4,Ir  0,O  31)   -128.4227         0.001699   
    218. D(Ir  0,C   4,C   1,H  27)    118.7835         0.027808   
    219. D(C   3,C   4,C   1,Ir  0)     61.0653         0.027808   
    220. D(C   3,C   4,C   1,H  27)    179.8488         0.027808   
    221. D(H  38,C   4,C   1,Ir  0)   -119.3833         0.027808   
    222. D(H  38,C   4,Ir  0,C   5)   -157.5592         0.001699   
    223. D(H  38,C   4,C   1,H  27)     -0.5999         0.027808   
    224. D(Ir  0,C   4,C   3,C   5)     61.3688         0.020521   
    225. D(Ir  0,C   4,C   3,H  37)   -118.7292         0.020521   
    226. D(C   3,C   4,C   1,C   2)      2.1669         0.027808   
    227. D(C   1,C   4,C   3,C   5)      0.1959         0.020521   
    228. D(C   1,C   4,C   3,H  37)   -179.9021         0.020521   
    229. D(H  38,C   4,C   3,Ir  0)    119.2733         0.020521   
    230. D(H  38,C   4,Ir  0,C   1)    121.3430         0.001699   
    231. D(C   1,C   4,C   3,Ir  0)    -61.1729         0.020521   
    232. D(C   3,C   4,Ir  0,C   2)    -80.2913         0.001699   
    233. D(C   2,C   5,Ir  0,C   1)    -39.3451         0.001696   
    234. D(H  29,C   5,C   3,C   4)   -177.5766         0.027922   
    235. D(C   2,C   5,Ir  0,C   4)    -81.5715         0.001696   
    236. D(C   2,C   5,Ir  0,N   6)     21.3397         0.001696   
    237. D(C   2,C   5,Ir  0,O  31)    109.7661         0.001696   
    238. D(C   3,C   5,Ir  0,C   1)     80.1721         0.001696   
    239. D(C   3,C   5,Ir  0,C   2)    119.5171         0.001696   
    240. D(C   3,C   5,Ir  0,C   4)     37.9457         0.001696   
    241. D(H  29,C   5,C   2,C   1)    178.9045         0.022221   
    242. D(C   3,C   5,Ir  0,O  31)   -130.7167         0.001696   
    243. D(H  29,C   5,Ir  0,C   1)   -158.6662         0.001696   
    244. D(C   3,C   5,C   2,Ir  0)    -60.0778         0.022221   
    245. D(H  29,C   5,Ir  0,C   3)    121.1617         0.001696   
    246. D(H  29,C   5,Ir  0,C   4)    159.1074         0.001696   
    247. D(H  29,C   5,Ir  0,N   6)    -97.9815         0.001696   
    248. D(H  29,C   5,Ir  0,O  31)     -9.5551         0.001696   
    249. D(Ir  0,C   5,C   2,C   1)     63.8725         0.022221   
    250. D(H  29,C   5,Ir  0,C   2)   -119.3212         0.001696   
    251. D(Ir  0,C   5,C   2,H  28)   -122.5809         0.022221   
    252. D(C   3,C   5,C   2,C   1)      3.7947         0.022221   
    253. D(C   3,C   5,C   2,H  28)    177.3413         0.022221   
    254. D(C   3,C   5,Ir  0,N   6)    140.8569         0.001696   
    255. D(H  29,C   5,C   2,Ir  0)    115.0320         0.022221   
    256. D(H  29,C   5,C   2,H  28)     -7.5489         0.022221   
    257. D(Ir  0,C   5,C   3,C   4)    -60.9549         0.027922   
    258. D(Ir  0,C   5,C   3,H  37)    119.1434         0.027922   
    259. D(C   2,C   5,C   3,Ir  0)     58.4621         0.027922   
    260. D(C   2,C   5,C   3,C   4)     -2.4928         0.027922   
    261. D(C   2,C   5,C   3,H  37)    177.6054         0.027922   
    262. D(C   2,C   5,Ir  0,C   3)   -119.5171         0.001696   
    263. D(H  29,C   5,C   3,Ir  0)   -116.6217         0.027922   
    264. D(H  29,C   5,C   3,H  37)      2.5216         0.027922   
    265. D(C  17,N   6,Ir  0,C   1)    -94.4185         0.001770   
    266. D(C   7,N   6,Ir  0,C   2)     45.3117         0.001770   
    267. D(C   7,N   6,Ir  0,C   3)    131.3638         0.001770   
    268. D(C   7,N   6,Ir  0,C   4)    119.7984         0.001770   
    269. D(C   7,N   6,Ir  0,C   5)     30.5500         0.001770   
    270. D(C   7,N   6,Ir  0,C   1)     83.9426         0.001770   
    271. D(C   7,N   6,Ir  0,O  31)    -60.0037         0.001770   
    272. D(C  17,N   6,Ir  0,C   2)   -133.0495         0.001770   
    273. D(C  17,N   6,Ir  0,C   3)    -46.9973         0.001770   
    274. D(C  17,N   6,Ir  0,C   4)    -58.5627         0.001770   
    275. D(C  17,N   6,Ir  0,C   5)   -147.8112         0.001770   
    276. D(C  17,N   6,Ir  0,O  31)    121.6352         0.001770   
    277. D(C   8,C   7,N   6,Ir  0)    158.6434         0.014635   
    278. D(C   8,C   7,N   6,C  17)    -23.1432         0.014635   
    279. D(C  12,C   7,N   6,Ir  0)    -75.6738         0.014635   
    280. D(C  12,C   7,N   6,C  17)    102.5396         0.014635   
    281. D(H  13,C   7,N   6,Ir  0)     40.6517         0.014635   
    282. D(H  13,C   7,N   6,C  17)   -141.1348         0.014635   
    283. D(H   9,C   8,C   7,N   6)   -170.2071         0.011919   
    284. D(H   9,C   8,C   7,C  12)     65.1619         0.011919   
    285. D(H   9,C   8,C   7,H  13)    -54.3593         0.011919   
    286. D(H  10,C   8,C   7,N   6)     71.7195         0.011919   
    287. D(H  10,C   8,C   7,C  12)    -52.9115         0.011919   
    288. D(H  10,C   8,C   7,H  13)   -172.4327         0.011919   
    289. D(H  11,C   8,C   7,N   6)    -51.7381         0.011919   
    290. D(H  11,C   8,C   7,C  12)   -176.3691         0.011919   
    291. D(H  11,C   8,C   7,H  13)     64.1097         0.011919   
    292. D(H  14,C  12,C   7,N   6)    176.8730         0.011637   
    293. D(H  14,C  12,C   7,C   8)    -56.3238         0.011637   
    294. D(H  14,C  12,C   7,H  13)     63.0508         0.011637   
    295. D(H  15,C  12,C   7,N   6)    -64.0312         0.011637   
    296. D(H  15,C  12,C   7,C   8)     62.7720         0.011637   
    297. D(H  15,C  12,C   7,H  13)   -177.8534         0.011637   
    298. D(H  16,C  12,C   7,N   6)     57.9342         0.011637   
    299. D(H  16,C  12,C   7,C   8)   -175.2625         0.011637   
    300. D(H  16,C  12,C   7,H  13)    -55.8880         0.011637   
    301. D(C  18,C  17,N   6,Ir  0)     -9.1234         0.061867   
    302. D(C  18,C  17,N   6,C   7)    172.4985         0.061867   
    303. D(H  19,C  17,N   6,Ir  0)    173.2698         0.061867   
    304. D(H  19,C  17,N   6,C   7)     -5.1083         0.061867   
    305. D(C  20,C  18,C  17,N   6)    -36.6266         0.017697   
    306. D(C  20,C  18,C  17,H  19)    141.0002         0.017697   
    307. D(S  22,C  18,C  17,N   6)    140.2031         0.017697   
    308. D(S  22,C  18,C  17,H  19)    -42.1701         0.017697   
    309. D(C  21,C  20,C  18,C  17)    175.6154         0.029445   
    310. D(C  21,C  20,C  18,S  22)     -1.5794         0.029445   
    311. D(H  24,C  20,C  18,C  17)    -28.1820         0.029445   
    312. D(H  24,C  20,C  18,S  22)    154.6232         0.029445   
    313. D(C  23,C  21,C  20,C  18)      1.1654         0.022585   
    314. D(C  23,C  21,C  20,H  24)   -153.7720         0.022585   
    315. D(H  25,C  21,C  20,C  18)    177.7551         0.022585   
    316. D(H  25,C  21,C  20,H  24)     22.8176         0.022585   
    317. D(C  23,S  22,C  18,C  17)   -175.8161         0.005585   
    318. D(C  23,S  22,C  18,C  20)      1.2409         0.005585   
    319. D(S  22,C  23,C  21,C  20)     -0.2555         0.034175   
    320. D(S  22,C  23,C  21,H  25)   -176.8769         0.034175   
    321. D(H  26,C  23,C  21,C  20)    178.0761         0.034175   
    322. D(H  26,C  23,C  21,H  25)      1.4547         0.034175   
    323. D(C  21,C  23,S  22,C  18)     -0.5503         0.005328   
    324. D(H  26,C  23,S  22,C  18)   -179.0365         0.005328   
    325. D(C  32,O  31,Ir  0,C   1)   -175.3070         0.001920   
    326. D(C  32,O  31,Ir  0,C   2)    170.9639         0.001920   
    327. D(C  32,O  31,Ir  0,C   3)    101.1847         0.001920   
    328. D(C  32,O  31,Ir  0,C   4)    106.6430         0.001920   
    329. D(C  32,O  31,Ir  0,C   5)    132.7977         0.001920   
    330. D(C  32,O  31,Ir  0,N   6)    -73.7896         0.001920   
    331. D(O  30,C  32,O  31,Ir  0)      3.1948         0.050593   
    332. D(C  33,C  32,O  31,Ir  0)   -175.3072         0.050593   
    333. D(H  34,C  33,C  32,O  30)     23.4356         0.012663   
    334. D(H  34,C  33,C  32,O  31)   -158.0009         0.012663   
    335. D(H  35,C  33,C  32,O  30)    -94.9711         0.012663   
    336. D(H  35,C  33,C  32,O  31)     83.5924         0.012663   
    337. D(H  36,C  33,C  32,O  30)    146.6266         0.012663   
    338. D(H  36,C  33,C  32,O  31)    -34.8099         0.012663   
    -----------------------------------------------------------------

Number of atoms                         .... 39
Number of degrees of freedom            .... 338

         *************************************************************
         *                GEOMETRY OPTIMIZATION CYCLE   1            *
         *************************************************************
---------------------------------
CARTESIAN COORDINATES (ANGSTROEM)
---------------------------------
  Ir     0.580636   -0.724767    0.465867
  C      0.027660   -2.804861    0.345567
  C      0.109226   -2.361544    1.715876
  C      2.194264   -2.136473    0.764612
  C      1.292095   -2.639160   -0.247328
  C      1.476604   -2.003644    1.966101
  N     -1.049870    0.163084   -0.516785
  C     -2.324111    0.486268    0.145251
  C     -3.134462    1.548815   -0.579856
  H     -3.964741    1.852481    0.056289
  H     -3.573719    1.188470   -1.511479
  H     -2.544719    2.441534   -0.790392
  C     -3.130788   -0.789285    0.355288
  H     -2.036221    0.880527    1.121314
  H     -4.047848   -0.556565    0.894439
  H     -3.410402   -1.242751   -0.596596
  H     -2.587918   -1.525916    0.945845
  C     -0.845680    0.368955   -1.759294
  C      0.506587    0.156261   -2.220587
  H     -1.626725    0.721404   -2.427094
  C      1.600519    0.488210   -1.430573
  C      2.810114    0.089418   -2.067681
  S      0.946419   -0.573179   -3.700997
  C      2.609426   -0.486081   -3.284049
  H      1.515440    1.373905   -0.622697
  H      3.793320    0.274175   -1.659609
  H      3.353326   -0.846435   -3.978636
  H     -0.862059   -3.163949   -0.151531
  H     -0.679995   -2.398856    2.452405
  H      1.864273   -1.616381    2.897415
  O      1.332092    2.441707    0.241239
  O      0.540804    0.917423    1.665010
  C      0.925845    2.108445    1.354307
  C      0.880399    3.098236    2.483533
  H      0.834151    4.114755    2.102439
  H      1.793561    3.004844    3.074742
  H      0.042531    2.910593    3.151624
  H      3.239275   -1.905206    0.620689
  H      1.550062   -2.855269   -1.273930

----------------------------
CARTESIAN COORDINATES (A.U.)
----------------------------
  NO LB      ZA    FRAG     MASS         X           Y           Z
   0 Ir   17.0000*   0   192.220    1.097243   -1.369612    0.880361
   1 C     6.0000    0    12.011    0.052270   -5.300419    0.653028
   2 C     6.0000    0    12.011    0.206407   -4.462672    3.242536
   3 C     6.0000    0    12.011    4.146559   -4.037348    1.444907
   4 C     6.0000    0    12.011    2.441705   -4.987289   -0.467381
   5 C     6.0000    0    12.011    2.790378   -3.786339    3.715393
   6 N     7.0000    0    14.007   -1.983968    0.308184   -0.976583
   7 C     6.0000    0    12.011   -4.391933    0.918914    0.274484
   8 C     6.0000    0    12.011   -5.923275    2.926837   -1.095768
   9 H     1.0000    0     1.008   -7.492275    3.500682    0.106371
  10 H     1.0000    0     1.008   -6.753351    2.245884   -2.856281
  11 H     1.0000    0     1.008   -4.808822    4.613830   -1.493624
  12 C     6.0000    0    12.011   -5.916332   -1.491532    0.671397
  13 H     1.0000    0     1.008   -3.847900    1.663955    2.118977
  14 H     1.0000    0     1.008   -7.649323   -1.051755    1.690244
  15 H     1.0000    0     1.008   -6.444726   -2.348458   -1.127402
  16 H     1.0000    0     1.008   -4.890457   -2.883563    1.787388
  17 C     6.0000    0    12.011   -1.598103    0.697224   -3.324583
  18 C     6.0000    0    12.011    0.957312    0.295291   -4.196301
  19 H     1.0000    0     1.008   -3.074065    1.363256   -4.586543
  20 C     6.0000    0    12.011    3.024543    0.922583   -2.703391
  21 C     6.0000    0    12.011    5.310346    0.168976   -3.907352
  22 S    16.0000    0    32.060    1.788472   -1.083152   -6.993870
  23 C     6.0000    0    12.011    4.931101   -0.918560   -6.205954
  24 H     1.0000    0     1.008    2.863766    2.596303   -1.176727
  25 H     1.0000    0     1.008    7.168336    0.518116   -3.136207
  26 H     1.0000    0     1.008    6.336867   -1.599529   -7.518532
  27 H     1.0000    0     1.008   -1.629056   -5.978997   -0.286351
  28 H     1.0000    0     1.008   -1.285004   -4.533181    4.634374
  29 H     1.0000    0     1.008    3.522965   -3.054517    5.475321
  30 O     8.0000    0    15.999    2.517290    4.614158    0.455876
  31 O     8.0000    0    15.999    1.021971    1.733678    3.146413
  32 C     6.0000    0    12.011    1.749593    3.984385    2.559269
  33 C     6.0000    0    12.011    1.663713    5.854817    4.693197
  34 H     1.0000    0     1.008    1.576317    7.775759    3.973034
  35 H     1.0000    0     1.008    3.389339    5.678332    5.810420
  36 H     1.0000    0     1.008    0.080372    5.500224    5.955707
  37 H     1.0000    0     1.008    6.121343   -3.600318    1.172932
  38 H     1.0000    0     1.008    2.929193   -5.395676   -2.407379
* core charge reduced due to ECP

--------------------------------
INTERNAL COORDINATES (ANGSTROEM)
--------------------------------
 Ir     0   0   0     0.000000000000     0.00000000     0.00000000
 C      1   0   0     2.155705581091     0.00000000     0.00000000
 C      2   1   0     1.442510547231    68.64984847     0.00000000
 C      1   2   3     2.164670734844    64.50874846    81.13911593
 C      2   1   3     1.406282704975    71.28885135   240.81081396
 C      4   1   2     1.405756170614    71.08219769   278.86606963
 N      1   2   3     2.101031677720   100.52345838   242.35622705
 C      7   1   2     1.471873722927   123.43337752    83.92320039
 C      8   7   1     1.520342796519   113.60137602   158.65402652
 H      9   8   7     1.089149955274   108.82084524   189.79288447
 H      9   8   7     1.091196388023   113.01369457    71.71951357
 H      9   8   7     1.090441913217   112.08497181   308.26177864
 C      8   7   1     1.523768346718   109.66384641   284.33695372
 H      8   7   1     1.091335885990   104.66874133    40.66256286
 H     13   8   7     1.088958570024   109.58299745   176.87297473
 H     13   8   7     1.090821289773   111.30984819   295.96883254
 H     13   8   7     1.089074799056   112.15174416    57.93418910
 C      7   1   2     1.277540692016   114.01324161   265.59146693
 C     18   7   1     1.445477633540   116.44196355   350.76758453
 H     18   7   1     1.086356626342   122.14749152   173.15970359
 C     19  18   7     1.389733207744   121.54075757   323.24082892
 C     21  19  18     1.423964016336   110.36195498   175.64799904
 S     19  18   7     1.708015286904   125.36811393   140.14679686
 C     22  21  19     1.360289209067   113.14867497     1.18275114
 H     21  19  18     1.201908137642   120.15346167   331.85705015
 H     22  21  19     1.080362550758   123.78448473   177.76551792
 H     24  22  21     1.079593341793   127.93690896   178.06881193
 H      2   1   3     1.080562747512   123.88627108   119.66773850
 H      3   2   1     1.080130523303   126.56932989   122.29140465
 H      6   4   1     1.080543321526   125.96819569   243.37949293
 O     25  21  19     1.399999999069   175.21731671   352.89145792
 O      1   2   3     2.033667104561   143.80788308   338.95377705
 C     31  25  21     1.230882532167   115.27793201    96.09139550
 C     33  31  25     1.502285494631   120.76061570   170.35753824
 H     34  33  31     1.086578204377   110.73466240    23.43607261
 H     34  33  31     1.091817107425   108.98765553   265.02969284
 H     34  33  31     1.087898793736   111.79215332   146.62742054
 H      4   1   2     1.079906803031   124.28162041   157.65481401
 H      5   2   1     1.080331942144   126.27903392   240.61577125

---------------------------
INTERNAL COORDINATES (A.U.)
---------------------------
 Ir     0   0   0     0.000000000000     0.00000000     0.00000000
 C      1   0   0     4.073693173628     0.00000000     0.00000000
 C      2   1   0     2.725949879559    68.64984847     0.00000000
 C      1   2   3     4.090634858969    64.50874846    81.13911593
 C      2   1   3     2.657489179274    71.28885135   240.81081396
 C      4   1   2     2.656494173531    71.08219769   278.86606963
 N      1   2   3     3.970374469585   100.52345838   242.35622705
 C      7   1   2     2.781438240047   123.43337752    83.92320039
 C      8   7   1     2.873031515101   113.60137602   158.65402652
 H      9   8   7     2.058195134240   108.82084524   189.79288447
 H      9   8   7     2.062062331687   113.01369457    71.71951357
 H      9   8   7     2.060636580930   112.08497181   308.26177864
 C      8   7   1     2.879504866834   109.66384641   284.33695372
 H      8   7   1     2.062325944641   104.66874133    40.66256286
 H     13   8   7     2.057833468532   109.58299745   176.87297473
 H     13   8   7     2.061353498722   111.30984819   295.96883254
 H     13   8   7     2.058053109571   112.15174416    57.93418910
 C      7   1   2     2.414202032851   114.01324161   265.59146693
 C     18   7   1     2.731556860099   116.44196355   350.76758453
 H     18   7   1     2.052916507557   122.14749152   173.15970359
 C     19  18   7     2.626215161851   121.54075757   323.24082892
 C     21  19  18     2.690902015433   110.36195498   175.64799904
 S     19  18   7     3.227681124800   125.36811393   140.14679686
 C     22  21  19     2.570574068066   113.14867497     1.18275114
 H     21  19  18     2.271277218274   120.15346167   331.85705015
 H     22  21  19     2.041589346277   123.78448473   177.76551792
 H     24  22  21     2.040135751993   127.93690896   178.06881193
 H      2   1   3     2.041967663315   123.88627108   119.66773850
 H      3   2   1     2.041150877932   126.56932989   122.29140465
 H      6   4   1     2.041930953521   125.96819569   243.37949293
 O     25  21  19     2.645616585730   175.21731671   352.89145792
 O      1   2   3     3.843073875186   143.80788308   338.95377705
 C     31  25  21     2.326030888824   115.27793201    96.09139550
 C     33  31  25     2.838908159814   120.76061570   170.35753824
 H     34  33  31     2.053335229360   110.73466240    23.43607261
 H     34  33  31     2.063235321364   108.98765553   265.02969284
 H     34  33  31     2.055830781585   111.79215332   146.62742054
 H      4   1   2     2.040728107888   124.28162041   157.65481401
 H      5   2   1     2.041531504380   126.27903392   240.61577125

---------------------
BASIS SET INFORMATION
---------------------
There are 6 groups of distinct atoms

 Group   1 Type Ir  : 7s6p5d1f contracted to 6s3p2d1f pattern {211111/411/41/1}
 Group   2 Type C   : 8s4p1d contracted to 4s2p1d pattern {5111/31/1}
 Group   3 Type N   : 8s4p1d contracted to 4s2p1d pattern {5111/31/1}
 Group   4 Type H   : 4s contracted to 2s pattern {31}
 Group   5 Type S   : 10s7p1d contracted to 4s3p1d pattern {5311/511/1}
 Group   6 Type O   : 8s4p1d contracted to 4s2p1d pattern {5111/31/1}

Atom   0Ir   basis set group =>   1
Atom   1C    basis set group =>   2
Atom   2C    basis set group =>   2
Atom   3C    basis set group =>   2
Atom   4C    basis set group =>   2
Atom   5C    basis set group =>   2
Atom   6N    basis set group =>   3
Atom   7C    basis set group =>   2
Atom   8C    basis set group =>   2
Atom   9H    basis set group =>   4
Atom  10H    basis set group =>   4
Atom  11H    basis set group =>   4
Atom  12C    basis set group =>   2
Atom  13H    basis set group =>   4
Atom  14H    basis set group =>   4
Atom  15H    basis set group =>   4
Atom  16H    basis set group =>   4
Atom  17C    basis set group =>   2
Atom  18C    basis set group =>   2
Atom  19H    basis set group =>   4
Atom  20C    basis set group =>   2
Atom  21C    basis set group =>   2
Atom  22S    basis set group =>   5
Atom  23C    basis set group =>   2
Atom  24H    basis set group =>   4
Atom  25H    basis set group =>   4
Atom  26H    basis set group =>   4
Atom  27H    basis set group =>   4
Atom  28H    basis set group =>   4
Atom  29H    basis set group =>   4
Atom  30O    basis set group =>   6
Atom  31O    basis set group =>   6
Atom  32C    basis set group =>   2
Atom  33C    basis set group =>   2
Atom  34H    basis set group =>   4
Atom  35H    basis set group =>   4
Atom  36H    basis set group =>   4
Atom  37H    basis set group =>   4
Atom  38H    basis set group =>   4
---------------------------------
AUXILIARY/J BASIS SET INFORMATION
---------------------------------
There are 6 groups of distinct atoms

 Group   1 Type Ir  : 11s5p5d3f3g contracted to 8s5p5d2f3g pattern {41111111/11111/11111/21/111}
 Group   2 Type C   : 12s5p4d2f1g contracted to 6s4p3d1f1g pattern {711111/2111/211/2/1}
 Group   3 Type N   : 12s5p4d2f1g contracted to 6s4p3d1f1g pattern {711111/2111/211/2/1}
 Group   4 Type H   : 5s2p1d contracted to 3s1p1d pattern {311/2/1}
 Group   5 Type S   : 14s5p5d2f1g contracted to 8s4p3d1f1g pattern {71111111/2111/311/2/1}
 Group   6 Type O   : 12s5p4d2f1g contracted to 6s4p3d1f1g pattern {711111/2111/211/2/1}

Atom   0Ir   basis set group =>   1
Atom   1C    basis set group =>   2
Atom   2C    basis set group =>   2
Atom   3C    basis set group =>   2
Atom   4C    basis set group =>   2
Atom   5C    basis set group =>   2
Atom   6N    basis set group =>   3
Atom   7C    basis set group =>   2
Atom   8C    basis set group =>   2
Atom   9H    basis set group =>   4
Atom  10H    basis set group =>   4
Atom  11H    basis set group =>   4
Atom  12C    basis set group =>   2
Atom  13H    basis set group =>   4
Atom  14H    basis set group =>   4
Atom  15H    basis set group =>   4
Atom  16H    basis set group =>   4
Atom  17C    basis set group =>   2
Atom  18C    basis set group =>   2
Atom  19H    basis set group =>   4
Atom  20C    basis set group =>   2
Atom  21C    basis set group =>   2
Atom  22S    basis set group =>   5
Atom  23C    basis set group =>   2
Atom  24H    basis set group =>   4
Atom  25H    basis set group =>   4
Atom  26H    basis set group =>   4
Atom  27H    basis set group =>   4
Atom  28H    basis set group =>   4
Atom  29H    basis set group =>   4
Atom  30O    basis set group =>   6
Atom  31O    basis set group =>   6
Atom  32C    basis set group =>   2
Atom  33C    basis set group =>   2
Atom  34H    basis set group =>   4
Atom  35H    basis set group =>   4
Atom  36H    basis set group =>   4
Atom  37H    basis set group =>   4
Atom  38H    basis set group =>   4
-------------------------
ECP PARAMETER INFORMATION
-------------------------

 Group 1, Type Ir ECP Def2-ECP (replacing 60 core electrons, lmax=3)

Atom   0Ir   ECP group =>   1

------------------------------------------------------------------------------
                           ORCA GTO INTEGRAL CALCULATION
                           -- RI-GTO INTEGRALS CHOSEN --
------------------------------------------------------------------------------
------------------------------------------------------------------------------
                   ___                                                        
                  /   \      - P O W E R E D   B Y -                         
                 /     \                                                     
                 |  |  |   _    _      __       _____    __    __             
                 |  |  |  | |  | |    /  \     |  _  \  |  |  /  |          
                  \  \/   | |  | |   /    \    | | | |  |  | /  /          
                 / \  \   | |__| |  /  /\  \   | |_| |  |  |/  /          
                |  |  |   |  __  | /  /__\  \  |    /   |      \           
                |  |  |   | |  | | |   __   |  |    \   |  |\   \          
                \     /   | |  | | |  |  |  |  | |\  \  |  | \   \       
                 \___/    |_|  |_| |__|  |__|  |_| \__\ |__|  \__/        
                                                                              
                      - O R C A' S   B I G   F R I E N D -                    
                                      &                                       
                       - I N T E G R A L  F E E D E R -                       
                                                                              
 v1 FN, 2020, v2 2021                                                         
------------------------------------------------------------------------------


Reading SHARK input file reaction4-IEIP_ts_guess_scan_3-8_orca.SHARKINP.tmp ... ok
----------------------
SHARK INTEGRAL PACKAGE
----------------------

Number of atoms                             ...     39
Number of basis functions                   ...    358
Number of shells                            ...    184
Maximum angular momentum                    ...      3
Integral batch strategy                     ... SHARK/LIBINT Hybrid
RI-J (if used) integral strategy            ... SPLIT-RIJ (Revised 2003 algorithm where possible)
Printlevel                                  ...      1
Contraction scheme used                     ... SEGMENTED contraction
Coulomb Range Separation                    ... NOT USED
Exchange Range Separation                   ... NOT USED
Finite Nucleus Model                        ... NOT USED
Auxiliary Coulomb fitting basis             ... AVAILABLE
   # of basis functions in Aux-J            ...   1231
   # of shells in Aux-J                     ...    405
   Maximum angular momentum in Aux-J        ...      4
Auxiliary J/K fitting basis                 ... NOT available
Auxiliary Correlation fitting basis         ... NOT available
Auxiliary 'external' fitting basis          ... NOT available
Integral threshold                          ...     2.500000e-11
Primitive cut-off                           ...     2.500000e-12
Primitive pair pre-selection threshold      ...     2.500000e-12

Calculating pre-screening integrals         ... done (  0.1 sec) Dimension = 184
Organizing shell pair data                  ... done (  0.1 sec)
Shell pair information
Total number of shell pairs                 ...     17020
Shell pairs after pre-screening             ...     12981
Total number of primitive shell pairs       ...     60705
Primitive shell pairs kept                  ...     29193
          la=0 lb=0:   4979 shell pairs
          la=1 lb=0:   4258 shell pairs
          la=1 lb=1:    856 shell pairs
          la=2 lb=0:   1745 shell pairs
          la=2 lb=1:    785 shell pairs
          la=2 lb=2:    181 shell pairs
          la=3 lb=0:    113 shell pairs
          la=3 lb=1:     42 shell pairs
          la=3 lb=2:     21 shell pairs
          la=3 lb=3:      1 shell pairs

Calculating one electron integrals          ... done (  0.1 sec)
Calculating ECP integrals                   ... done (  0.7 sec)
Calculating RI/J V-Matrix + Cholesky decomp.... done (  0.1 sec)
Calculating Nuclear repulsion               ... done (  0.0 sec) ENN=   2038.723395109059 Eh

SHARK setup successfully completed in   1.4 seconds

Maximum memory used throughout the entire GTOINT-calculation: 91.0 MB
-------------------------------------------------------------------------------
                                 ORCA SCF
-------------------------------------------------------------------------------

------------
SCF SETTINGS
------------
Hamiltonian:
 Density Functional     Method          .... DFT(GTOs)
 Exchange Functional    Exchange        .... PBE
   PBE kappa parameter   XKappa         ....  1.024500
   PBE mue parameter    XMuePBE         ....  0.123457
 Correlation Functional Correlation     .... PBE
   PBE beta parameter  CBetaPBE         ....  0.030000
 LDA part of GGA corr.  LDAOpt          .... PW91-LDA
 Gradients option       PostSCFGGA      .... off
 Hybrid DFT is turned on
   Fraction HF Exchange ScalHFX         ....  0.420000
   Scaling of DF-GGA-X  ScalDFX         ....  0.580000
   Scaling of DF-GGA-C  ScalDFC         ....  1.000000
   Scaling of DF-LDA-C  ScalLDAC        ....  1.000000
   Perturbative correction              ....  0.000000
   Density functional embedding theory  .... OFF
 RI-approximation to the Coulomb term is turned on
   Number of AuxJ basis functions       .... 1231
   RIJ-ON(X) (HFX calculated with O(N)) .... on
   Number of AuxJ basis functions       .... 1231
   RIJ-COSX (HFX calculated with COS-X)).... on


General Settings:
 Integral files         IntName         .... reaction4-IEIP_ts_guess_scan_3-8_orca
 Hartree-Fock type      HFTyp           .... RHF
 Total Charge           Charge          ....    1
 Multiplicity           Mult            ....    1
 Number of Electrons    NEL             ....  164
 Basis Dimension        Dim             ....  358
 Nuclear Repulsion      ENuc            ....   2038.7233951091 Eh

Convergence Acceleration:
 DIIS                   CNVDIIS         .... on
   Start iteration      DIISMaxIt       ....    12
   Startup error        DIISStart       ....  0.200000
   # of expansion vecs  DIISMaxEq       ....     5
   Bias factor          DIISBfac        ....   1.050
   Max. coefficient     DIISMaxC        ....  10.000
 Trust-Rad. Augm. Hess. CNVTRAH         .... auto
   Auto Start mean grad. ratio tolernc. ....  1.125000
   Auto Start start iteration           ....    20
   Auto Start num. interpolation iter.  ....    10
   Max. Number of Micro iterations      ....    16
   Max. Number of Macro iterations      .... Maxiter - #DIIS iter
   Number of Davidson start vectors     ....     2
   Converg. threshold I  (grad. norm)   ....   1.000e-05
   Converg. threshold II (energy diff.) ....   1.000e-08
   Grad. Scal. Fac. for Micro threshold ....   0.100
   Minimum threshold for Micro iter.    ....   0.010
   NR start threshold (gradient norm)   ....   0.001
   Initial trust radius                 ....   0.400
   Minimum AH scaling param. (alpha)    ....   1.000
   Maximum AH scaling param. (alpha)    .... 1000.000
   Orbital update algorithm             .... Taylor
   White noise on init. David. guess    .... on
   Maximum white noise                  ....   0.010
   Quad. conv. algorithm                .... NR
   COSX micro iterations for RIJONX calc.... off
 SOSCF                  CNVSOSCF        .... off
 Level Shifting         CNVShift        .... on
   Level shift para.    LevelShift      ....    0.2500
   Turn off err/grad.   ShiftErr        ....    0.0010
 Zerner damping         CNVZerner       .... off
 Static damping         CNVDamp         .... on
   Fraction old density DampFac         ....    0.7000
   Max. Damping (<1)    DampMax         ....    0.9800
   Min. Damping (>=0)   DampMin         ....    0.0000
   Turn off err/grad.   DampErr         ....    0.1000
 Fernandez-Rico         CNVRico         .... off

SCF Procedure:
 Maximum # iterations   MaxIter         ....   250
 SCF integral mode      SCFMode         .... Direct
   Integral package                     .... SHARK and LIBINT hybrid scheme
 Reset frequency        DirectResetFreq ....    20
 Integral Threshold     Thresh          ....  2.500e-11 Eh
 Primitive CutOff       TCut            ....  2.500e-12 Eh

Convergence Tolerance:
 Convergence Check Mode ConvCheckMode   .... Total+1el-Energy
 Convergence forced     ConvForced      .... 0
 Energy Change          TolE            ....  1.000e-08 Eh
 1-El. energy change                    ....  1.000e-05 Eh
 DIIS Error             TolErr          ....  5.000e-07


Diagonalization of the overlap matrix:
Smallest eigenvalue                        ... 1.120e-03
Time for diagonalization                   ...    0.016 sec
Threshold for overlap eigenvalues          ... 1.000e-08
Number of eigenvalues below threshold      ... 0
Time for construction of square roots      ...    0.005 sec
Total time needed                          ...    0.022 sec

--------------------
INITIAL GUESS: HCORE
--------------------
                      -----------------
                      INTIAL GUESS DONE 
                      -----------------
-------------------
DFT GRID GENERATION
-------------------

General Integration Accuracy     IntAcc      ... 4.159
Radial Grid Type                 RadialGrid  ... OptM3 with GC (2021)
Angular Grid (max. ang.)         AngularGrid ... 3 (Lebedev-194)
Angular grid pruning method      GridPruning ... 4 (adaptive)
Weight generation scheme         WeightScheme... Becke
Basis function cutoff            BFCut       ... 1.0000e-11
Integration weight cutoff        WCut        ... 1.0000e-14
Angular grids for H and He will be reduced by one unit
Partially contracted basis set               ... off
Rotationally invariant grid construction     ... off

Total number of grid points                  ...    93301
Total number of batches                      ...     1478
Average number of points per batch           ...       63
Average number of grid points per atom       ...     2392
Time for grid setup =    1.651 sec

--------------------
COSX GRID GENERATION
--------------------

GRIDX 1
-------
General Integration Accuracy     IntAcc      ... 3.816
Radial Grid Type                 RadialGrid  ... OptM3 with GC (2021)
Angular Grid (max. ang.)         AngularGrid ... 1 (Lebedev-50)
Angular grid pruning method      GridPruning ... 4 (adaptive)
Weight generation scheme         WeightScheme... Becke
Basis function cutoff            BFCut       ... 1.0000e-11
Integration weight cutoff        WCut        ... 1.0000e-14
Angular grids for H and He will be reduced by one unit
Partially contracted basis set               ... on
Rotationally invariant grid construction     ... off

Total number of grid points                  ...    23168
Total number of batches                      ...      382
Average number of points per batch           ...       60
Average number of grid points per atom       ...      594
UseSFitting                                  ... on

GRIDX 2
-------
General Integration Accuracy     IntAcc      ... 4.020
Radial Grid Type                 RadialGrid  ... OptM3 with GC (2021)
Angular Grid (max. ang.)         AngularGrid ... 2 (Lebedev-110)
Angular grid pruning method      GridPruning ... 4 (adaptive)
Weight generation scheme         WeightScheme... Becke
Basis function cutoff            BFCut       ... 1.0000e-11
Integration weight cutoff        WCut        ... 1.0000e-14
Angular grids for H and He will be reduced by one unit
Partially contracted basis set               ... on
Rotationally invariant grid construction     ... off

Total number of grid points                  ...    50296
Total number of batches                      ...      805
Average number of points per batch           ...       62
Average number of grid points per atom       ...     1290
UseSFitting                                  ... on

GRIDX 3
-------
General Integration Accuracy     IntAcc      ... 4.338
Radial Grid Type                 RadialGrid  ... OptM3 with GC (2021)
Angular Grid (max. ang.)         AngularGrid ... 3 (Lebedev-194)
Angular grid pruning method      GridPruning ... 4 (adaptive)
Weight generation scheme         WeightScheme... Becke
Basis function cutoff            BFCut       ... 1.0000e-11
Integration weight cutoff        WCut        ... 1.0000e-14
Angular grids for H and He will be reduced by one unit
Partially contracted basis set               ... on
Rotationally invariant grid construction     ... off

Total number of grid points                  ...   108777
Total number of batches                      ...     1720
Average number of points per batch           ...       63
Average number of grid points per atom       ...     2789
UseSFitting                                  ... on

Time for X-Grid setup             =    4.209 sec

--------------
SCF ITERATIONS
--------------
ITER       Energy         Delta-E        Max-DP      RMS-DP      [F,P]     Damp
               ***  Starting incremental Fock matrix formation  ***
  0   -871.8776593927   0.00000000000019.42531828  0.14655537  2.5839458 0.7000
  1  -1106.3310378462-234.45337845355311.40278736  0.13043809  1.4872245 0.7000
  2  -1171.4897136575 -65.158675811284 5.45622828  0.06942240  1.0265937 0.7000
  3  -1195.3580502648 -23.868336607291 3.79388048  0.04569803  0.7298041 0.7000
  4  -1212.9242548445 -17.566204579686 2.66771785  0.03730558  0.4410956 0.7000
  5  -1226.7499879439 -13.825733099383 2.40636560  0.03050650  0.3415181 0.7000
  6  -1235.8834451908  -9.133457246923 1.75798588  0.02897100  0.3475633 0.7000
  7  -1242.8316618836  -6.948216692754 1.96788823  0.02571971  0.3396637 0.7000
  8  -1247.2919513675  -4.460289483894 1.56604410  0.02504656  0.4040102 0.7000
  9  -1250.8799831704  -3.588031802974 1.70616800  0.02409820  0.3681119 0.7000
 10  -1253.1261865198  -2.246203349342 1.47835596  0.02416637  0.4296301 0.7000
 11  -1254.8954555903  -1.769269070524 1.58970318  0.02377336  0.3787330 0.7000
                               ***Turning on DIIS***
 12  -1256.0925839994  -1.197128409118 1.44193882  0.02393718  0.4422398 0.7000
 13  -1256.9053570372  -0.812773037758 1.42787903  0.02043637  0.3851042 0.7000
 14  -1267.6315435170 -10.726186479794 0.99596453  0.01445763  0.2623861 0.7000
 15  -1274.0279407875  -6.396397270563 0.69725825  0.01027043  0.1652043 0.7000
 16  -1278.0886608496  -4.060720062032 0.48527897  0.00726653  0.1247127 0.7000
 17  -1280.8182226062  -2.729561756644 0.33372459  0.00514297  0.1631503 0.7000
 18  -1282.8285872951  -2.010364688853 0.23005099  0.00366535  0.1644771 0.7000
 19  -1284.3229594556  -1.494372160549 0.15570798  0.00271928  0.1554563 0.7000
               *** Restarting incremental Fock matrix formation ***
                                   *** Resetting DIIS ***
 20  -1285.4761759090  -1.153216453432 0.12710461  0.00248433  0.1343855 0.7000
 21  -1286.4040650227  -0.927889113656 0.29384054  0.00559116  0.0473268 0.0000
 22  -1288.3888847372  -1.984819714488 0.03743393  0.00091674  0.0607834 0.0000
 23  -1288.4315135207  -0.042628783523 0.03910213  0.00067564  0.0249205 0.0000
 24  -1288.4386017740  -0.007088253250 0.02327110  0.00027339  0.0174076 0.0000
 25  -1288.4414381420  -0.002836368079 0.00732434  0.00012611  0.0035347 0.0000
 26  -1288.4419658466  -0.000527704560 0.00352508  0.00006783  0.0020144 0.0000
 27  -1288.4421489727  -0.000183126112 0.00300735  0.00005140  0.0012683 0.0000
 28  -1288.4422357322  -0.000086759519 0.00382736  0.00006182  0.0007161 0.0000
               *** Restarting incremental Fock matrix formation ***
                                   *** Resetting DIIS ***
 29  -1288.4434040798  -0.001168347557 0.00452586  0.00008298  0.0006491 0.0000
 30  -1288.4434226575  -0.000018577754 0.00091225  0.00001428  0.0008765 0.0000
 31  -1288.4434237311  -0.000001073599 0.00048364  0.00000750  0.0007965 0.0000
 32  -1288.4434259163  -0.000002185142 0.00030530  0.00000273  0.0001049 0.0000
 33  -1288.4434260427  -0.000000126419 0.00025601  0.00000193  0.0001043 0.0000
 34  -1288.4434261140  -0.000000071286 0.00014064  0.00000103  0.0000571 0.0000
 35  -1288.4434261386  -0.000000024576 0.00008841  0.00000076  0.0000234 0.0000
 36  -1288.4434261494  -0.000000010819 0.00003572  0.00000036  0.0000119 0.0000
 37  -1288.4434261530  -0.000000003636 0.00001048  0.00000012  0.0000056 0.0000
 38  -1288.4434261407   0.000000012341 0.00000721  0.00000008  0.0000065 0.0000
 39  -1288.4434261331   0.000000007590 0.00000377  0.00000004  0.0000016 0.0000
 40  -1288.4434261433  -0.000000010206 0.00000432  0.00000003  0.0000023 0.0000
                            ***DIIS convergence achieved***

               *****************************************************
               *                     SUCCESS                       *
               *           SCF CONVERGED AFTER  41 CYCLES          *
               *****************************************************

Old exchange energy                            =    -59.659257653 Eh
New exchange energy                            =    -59.659210423 Eh
Exchange energy change after final integration =      0.000047230 Eh
Total energy after final integration           =  -1288.443378909 Eh
Final COS-X integration done in                =    57.690 sec

----------------
TOTAL SCF ENERGY
----------------

Total Energy       :        -1288.44337891 Eh          -35060.32677 eV

Components:
Nuclear Repulsion  :         2038.72339511 Eh           55476.48395 eV
Electronic Energy  :        -3327.16677402 Eh          -90536.81072 eV
One Electron Energy:        -5832.90796790 Eh         -158721.49505 eV
Two Electron Energy:         2505.74119388 Eh           68184.68433 eV
Max COSX asymmetry :            0.00001890 Eh               0.00051 eV

Virial components:
Potential Energy   :        -2501.57119811 Eh          -68071.21297 eV
Kinetic Energy     :         1213.12781920 Eh           33010.88620 eV
Virial Ratio       :            2.06208378


DFT components:
N(Alpha)           :       82.000496013886 electrons
N(Beta)            :       82.000496013886 electrons
N(Total)           :      164.000992027773 electrons
E(X)               :      -79.593556672579 Eh       
E(C)               :       -7.454905602264 Eh       
E(XC)              :      -87.048462274843 Eh       
DFET-embed. en.    :        0.000000000000 Eh       

---------------
SCF CONVERGENCE
---------------

  Last Energy change         ...    3.8733e-09  Tolerance :   1.0000e-08
  Last MAX-Density change    ...    0.0000e+00  Tolerance :   1.0000e-07
  Last RMS-Density change    ...    0.0000e+00  Tolerance :   5.0000e-09
  Last DIIS Error            ...    7.2620e-07  Tolerance :   5.0000e-07

             **** THE GBW FILE WAS UPDATED (reaction4-IEIP_ts_guess_scan_3-8_orca.gbw) ****
             **** DENSITY reaction4-IEIP_ts_guess_scan_3-8_orca.scfp WAS UPDATED ****
             **** ENERGY FILE WAS UPDATED (reaction4-IEIP_ts_guess_scan_3-8_orca.en.tmp) ****
             **** THE GBW FILE WAS UPDATED (reaction4-IEIP_ts_guess_scan_3-8_orca.gbw) ****
             **** DENSITY reaction4-IEIP_ts_guess_scan_3-8_orca.scfp WAS UPDATED ****
----------------
ORBITAL ENERGIES
----------------

  NO   OCC          E(Eh)            E(eV) 
   0   2.0000     -89.760469     -2442.5065 
   1   2.0000     -19.625338      -534.0326 
   2   2.0000     -19.591520      -533.1124 
   3   2.0000     -14.840275      -403.8244 
   4   2.0000     -10.683399      -290.7101 
   5   2.0000     -10.661340      -290.1098 
   6   2.0000     -10.637420      -289.4589 
   7   2.0000     -10.633887      -289.3628 
   8   2.0000     -10.633010      -289.3389 
   9   2.0000     -10.631943      -289.3099 
  10   2.0000     -10.631048      -289.2855 
  11   2.0000     -10.630220      -289.2630 
  12   2.0000     -10.616226      -288.8822 
  13   2.0000     -10.608852      -288.6815 
  14   2.0000     -10.582742      -287.9710 
  15   2.0000     -10.579895      -287.8936 
  16   2.0000     -10.557046      -287.2718 
  17   2.0000     -10.552117      -287.1377 
  18   2.0000     -10.534146      -286.6487 
  19   2.0000      -8.399787      -228.5698 
  20   2.0000      -6.289850      -171.1555 
  21   2.0000      -6.286217      -171.0567 
  22   2.0000      -6.284533      -171.0108 
  23   2.0000      -4.030199      -109.6673 
  24   2.0000      -2.349425       -63.9311 
  25   2.0000      -2.315288       -63.0022 
  26   2.0000      -2.313539       -62.9546 
  27   2.0000      -1.308696       -35.6114 
  28   2.0000      -1.214031       -33.0355 
  29   2.0000      -1.211294       -32.9610 
  30   2.0000      -1.173703       -31.9381 
  31   2.0000      -1.124879       -30.6095 
  32   2.0000      -1.026919       -27.9439 
  33   2.0000      -0.988605       -26.9013 
  34   2.0000      -0.978595       -26.6289 
  35   2.0000      -0.964260       -26.2388 
  36   2.0000      -0.958733       -26.0884 
  37   2.0000      -0.928661       -25.2702 
  38   2.0000      -0.903366       -24.5818 
  39   2.0000      -0.873167       -23.7601 
  40   2.0000      -0.797662       -21.7055 
  41   2.0000      -0.789617       -21.4866 
  42   2.0000      -0.788018       -21.4431 
  43   2.0000      -0.780558       -21.2401 
  44   2.0000      -0.772888       -21.0313 
  45   2.0000      -0.758328       -20.6352 
  46   2.0000      -0.744536       -20.2599 
  47   2.0000      -0.723743       -19.6941 
  48   2.0000      -0.694280       -18.8923 
  49   2.0000      -0.675012       -18.3680 
  50   2.0000      -0.665406       -18.1066 
  51   2.0000      -0.651844       -17.7376 
  52   2.0000      -0.649370       -17.6703 
  53   2.0000      -0.640643       -17.4328 
  54   2.0000      -0.638032       -17.3617 
  55   2.0000      -0.631328       -17.1793 
  56   2.0000      -0.623606       -16.9692 
  57   2.0000      -0.611535       -16.6407 
  58   2.0000      -0.609251       -16.5786 
  59   2.0000      -0.608033       -16.5454 
  60   2.0000      -0.596842       -16.2409 
  61   2.0000      -0.588036       -16.0013 
  62   2.0000      -0.576939       -15.6993 
  63   2.0000      -0.570740       -15.5306 
  64   2.0000      -0.563494       -15.3335 
  65   2.0000      -0.556138       -15.1333 
  66   2.0000      -0.552876       -15.0445 
  67   2.0000      -0.548673       -14.9302 
  68   2.0000      -0.539741       -14.6871 
  69   2.0000      -0.535566       -14.5735 
  70   2.0000      -0.528360       -14.3774 
  71   2.0000      -0.521007       -14.1773 
  72   2.0000      -0.516323       -14.0499 
  73   2.0000      -0.506961       -13.7951 
  74   2.0000      -0.490914       -13.3585 
  75   2.0000      -0.481255       -13.0956 
  76   2.0000      -0.465722       -12.6729 
  77   2.0000      -0.451131       -12.2759 
  78   2.0000      -0.442314       -12.0360 
  79   2.0000      -0.422610       -11.4998 
  80   2.0000      -0.417040       -11.3482 
  81   2.0000      -0.402917       -10.9639 
  82   0.0000      -0.199520        -5.4292 
  83   0.0000      -0.163180        -4.4403 
  84   0.0000      -0.141299        -3.8449 
  85   0.0000      -0.098861        -2.6902 
  86   0.0000      -0.076169        -2.0727 
  87   0.0000      -0.068343        -1.8597 
  88   0.0000      -0.059235        -1.6119 
  89   0.0000      -0.054014        -1.4698 
  90   0.0000      -0.044483        -1.2104 
  91   0.0000      -0.035215        -0.9582 
  92   0.0000      -0.004588        -0.1249 
  93   0.0000      -0.003137        -0.0854 
  94   0.0000       0.011158         0.3036 
  95   0.0000       0.021754         0.5920 
  96   0.0000       0.027071         0.7366 
  97   0.0000       0.035854         0.9756 
  98   0.0000       0.044502         1.2110 
  99   0.0000       0.056579         1.5396 
 100   0.0000       0.068754         1.8709 
 101   0.0000       0.070825         1.9272 
 102   0.0000       0.072282         1.9669 
 103   0.0000       0.078497         2.1360 
 104   0.0000       0.082809         2.2533 
 105   0.0000       0.089161         2.4262 
 106   0.0000       0.093515         2.5447 
 107   0.0000       0.100397         2.7319 
 108   0.0000       0.107440         2.9236 
 109   0.0000       0.113377         3.0852 
 110   0.0000       0.115239         3.1358 
 111   0.0000       0.120809         3.2874 
 112   0.0000       0.122344         3.3292 
 113   0.0000       0.125568         3.4169 
 114   0.0000       0.130857         3.5608 
 115   0.0000       0.137005         3.7281 
 116   0.0000       0.142266         3.8713 
 117   0.0000       0.153862         4.1868 
 118   0.0000       0.156519         4.2591 
 119   0.0000       0.159069         4.3285 
 120   0.0000       0.166445         4.5292 
 121   0.0000       0.179366         4.8808 
 122   0.0000       0.188853         5.1389 
 123   0.0000       0.200074         5.4443 
 124   0.0000       0.223802         6.0900 
 125   0.0000       0.231751         6.3063 
 126   0.0000       0.258473         7.0334 
 127   0.0000       0.269447         7.3320 
 128   0.0000       0.279390         7.6026 
 129   0.0000       0.292391         7.9564 
 130   0.0000       0.302273         8.2253 
 131   0.0000       0.310026         8.4362 
 132   0.0000       0.322388         8.7726 
 133   0.0000       0.336544         9.1578 
 134   0.0000       0.342097         9.3089 
 135   0.0000       0.357113         9.7175 
 136   0.0000       0.362231         9.8568 
 137   0.0000       0.370836        10.0910 
 138   0.0000       0.383612        10.4386 
 139   0.0000       0.397115        10.8060 
 140   0.0000       0.401651        10.9295 
 141   0.0000       0.418101        11.3771 
 142   0.0000       0.422948        11.5090 
 143   0.0000       0.436688        11.8829 
 144   0.0000       0.443394        12.0654 
 145   0.0000       0.449008        12.2181 
 146   0.0000       0.456588        12.4244 
 147   0.0000       0.458717        12.4823 
 148   0.0000       0.468496        12.7484 
 149   0.0000       0.477503        12.9935 
 150   0.0000       0.481624        13.1057 
 151   0.0000       0.487888        13.2761 
 152   0.0000       0.494613        13.4591 
 153   0.0000       0.499273        13.5859 
 154   0.0000       0.509373        13.8607 
 155   0.0000       0.514903        14.0112 
 156   0.0000       0.529185        14.3998 
 157   0.0000       0.531956        14.4753 
 158   0.0000       0.544129        14.8065 
 159   0.0000       0.547912        14.9094 
[...]

----------------------
LOEWDIN ATOMIC CHARGES
----------------------
   0 Ir:   -0.219505
   1 C :   -0.039668
   2 C :   -0.063287
   3 C :   -0.051662
   4 C :   -0.054808
   5 C :   -0.024932
   6 N :   -0.008907
   7 C :   -0.068749
   8 C :   -0.364454
   9 H :    0.157192
  10 H :    0.133671
  11 H :    0.146562
  12 C :   -0.343650
  13 H :    0.156128
  14 H :    0.152884
  15 H :    0.137279
  16 H :    0.133660
  17 C :    0.035405
  18 C :   -0.189735
  19 H :    0.162176
  20 C :   -0.196523
  21 C :   -0.140943
  22 S :    0.465999
  23 C :   -0.262226
  24 H :    0.298164
  25 H :    0.161337
  26 H :    0.167558
  27 H :    0.185439
  28 H :    0.185828
  29 H :    0.193278
  30 O :   -0.276436
  31 O :   -0.204428
  32 C :    0.157573
  33 C :   -0.375467
  34 H :    0.160171
  35 H :    0.167633
  36 H :    0.153643
  37 H :    0.187247
  38 H :    0.186556

-------------------------------
LOEWDIN REDUCED ORBITAL CHARGES
-------------------------------
  0 Irs       :     2.452804  s :     2.452804
      pz      :     2.239520  p :     6.746125
      px      :     2.238083
      py      :     2.268522
      dz2     :     1.845227  d :     7.931393
      dxz     :     1.734644
      dyz     :     1.272102
      dx2y2   :     1.640399
      dxy     :     1.439021
      f0      :     0.011433  f :     0.089183
      f+1     :     0.003216
      f-1     :     0.012931
      f+2     :     0.017251
      f-2     :     0.016393
      f+3     :     0.011212
      f-3     :     0.016747
  1 C s       :     2.875507  s :     2.875507
      pz      :     1.047875  p :     3.059691
      px      :     1.087884
      py      :     0.923932
      dz2     :     0.026445  d :     0.104469
      dxz     :     0.027135
      dyz     :     0.017504
      dx2y2   :     0.018488
      dxy     :     0.014898
  2 C s       :     2.874560  s :     2.874560
      pz      :     1.046031  p :     3.086391
      px      :     1.075474
      py      :     0.964885
      dz2     :     0.025652  d :     0.102336
      dxz     :     0.027706
      dyz     :     0.017576
      dx2y2   :     0.018242
      dxy     :     0.013161
  3 C s       :     2.875066  s :     2.875066
      pz      :     1.035964  p :     3.074595
      px      :     1.077414
      py      :     0.961217
      dz2     :     0.024136  d :     0.102001
      dxz     :     0.032186
      dyz     :     0.016112
      dx2y2   :     0.015202
      dxy     :     0.014366
  4 C s       :     2.874133  s :     2.874133
      pz      :     1.092891  p :     3.078493
      px      :     1.035686
      py      :     0.949916
      dz2     :     0.022526  d :     0.102182
      dxz     :     0.031704
      dyz     :     0.012913
      dx2y2   :     0.017656
      dxy     :     0.017383
  5 C s       :     2.877346  s :     2.877346
      pz      :     1.063614  p :     3.043375
      px      :     1.033531
      py      :     0.946229
      dz2     :     0.025112  d :     0.104211
      dxz     :     0.030198
      dyz     :     0.015658
      dx2y2   :     0.015548
      dxy     :     0.017695
  6 N s       :     3.122751  s :     3.122751
      pz      :     1.268538  p :     3.788003
      px      :     1.290879
      py      :     1.228586
      dz2     :     0.030088  d :     0.098153
      dxz     :     0.027615
      dyz     :     0.018903
      dx2y2   :     0.011519
      dxy     :     0.010028
  7 C s       :     2.862263  s :     2.862263
      pz      :     1.062114  p :     3.072152
      px      :     0.935968
      py      :     1.074070
      dz2     :     0.023680  d :     0.134334
      dxz     :     0.028630
      dyz     :     0.019847
      dx2y2   :     0.029259
      dxy     :     0.032917
  8 C s       :     2.953259  s :     2.953259
      pz      :     1.129946  p :     3.343743
      px      :     1.123785
      py      :     1.090013
      dz2     :     0.011641  d :     0.067452
      dxz     :     0.017922
      dyz     :     0.010764
      dx2y2   :     0.008791
      dxy     :     0.018333
  9 H s       :     0.842808  s :     0.842808
 10 H s       :     0.866329  s :     0.866329
 11 H s       :     0.853438  s :     0.853438
 12 C s       :     2.952996  s :     2.952996
      pz      :     1.139492  p :     3.322729
      px      :     1.111945
      py      :     1.071292
      dz2     :     0.009824  d :     0.067925
      dxz     :     0.013330
      dyz     :     0.016153
      dx2y2   :     0.011031
      dxy     :     0.017587
 13 H s       :     0.843872  s :     0.843872
 14 H s       :     0.847116  s :     0.847116
 15 H s       :     0.862721  s :     0.862721
 16 H s       :     0.866340  s :     0.866340
 17 C s       :     2.878395  s :     2.878395
      pz      :     1.021823  p :     2.945477
      px      :     1.064301
      py      :     0.859353
      dz2     :     0.040578  d :     0.140723
      dxz     :     0.051333
      dyz     :     0.024556
      dx2y2   :     0.011739
      dxy     :     0.012517
 18 C s       :     2.896083  s :     2.896083
      pz      :     1.041737  p :     3.181788
      px      :     1.089062
      py      :     1.050989
      dz2     :     0.031071  d :     0.111864
      dxz     :     0.029863
      dyz     :     0.016871
      dx2y2   :     0.020775
      dxy     :     0.013285
 19 H s       :     0.837824  s :     0.837824
 20 C s       :     2.922666  s :     2.922666
      pz      :     1.103608  p :     3.185096
      px      :     1.046685
      py      :     1.034803
      dz2     :     0.010553  d :     0.088761
      dxz     :     0.033355
      dyz     :     0.009076
      dx2y2   :     0.017065
      dxy     :     0.018712
 21 C s       :     2.898544  s :     2.898544
      pz      :     1.067398  p :     3.148111
      px      :     1.090202
      py      :     0.990510
      dz2     :     0.024903  d :     0.094288
      dxz     :     0.028246
      dyz     :     0.014409
      dx2y2   :     0.016622
      dxy     :     0.010109
 22 S s       :     5.504799  s :     5.504799
      pz      :     3.286882  p :     9.876506
      px      :     3.083336
      py      :     3.506288
      dz2     :     0.040020  d :     0.152696
      dxz     :     0.031849
      dyz     :     0.023249
      dx2y2   :     0.032848
      dxy     :     0.024730
 23 C s       :     2.965251  s :     2.965251
      pz      :     1.116164  p :     3.211071
      px      :     1.022060
      py      :     1.072847
      dz2     :     0.020912  d :     0.085904
      dxz     :     0.027438
      dyz     :     0.012436
      dx2y2   :     0.013879
      dxy     :     0.011239
 24 H s       :     0.701836  s :     0.701836
 25 H s       :     0.838663  s :     0.838663
 26 H s       :     0.832442  s :     0.832442
 27 H s       :     0.814561  s :     0.814561
 28 H s       :     0.814172  s :     0.814172
 29 H s       :     0.806722  s :     0.806722
 30 O s       :     3.505810  s :     3.505810
      pz      :     1.459277  p :     4.715908
      px      :     1.533056
      py      :     1.723575
      dz2     :     0.017690  d :     0.054719
      dxz     :     0.012916
      dyz     :     0.016572
      dx2y2   :     0.004140
      dxy     :     0.003401
 31 O s       :     3.444990  s :     3.444990
      pz      :     1.696563  p :     4.700297
      px      :     1.624078
      py      :     1.379655
      dz2     :     0.009341  d :     0.059141
      dxz     :     0.003587
      dyz     :     0.016321
      dx2y2   :     0.015510
      dxy     :     0.014383
 32 C s       :     2.813323  s :     2.813323
      pz      :     1.002054  p :     2.706823
      px      :     0.753488
      py      :     0.951282
      dz2     :     0.076177  d :     0.322280
      dxz     :     0.045357
      dyz     :     0.107777
      dx2y2   :     0.045086
      dxy     :     0.047883
 33 C s       :     2.959552  s :     2.959552
      pz      :     1.096581  p :     3.353223
      px      :     1.149993
      py      :     1.106648
      dz2     :     0.005690  d :     0.062692
      dxz     :     0.017211
      dyz     :     0.019385
      dx2y2   :     0.018171
      dxy     :     0.002236
 34 H s       :     0.839829  s :     0.839829
 35 H s       :     0.832367  s :     0.832367
 36 H s       :     0.846357  s :     0.846357
 37 H s       :     0.812753  s :     0.812753
 38 H s       :     0.813444  s :     0.813444


                      *****************************
                      * MAYER POPULATION ANALYSIS *
                      *****************************

  NA   - Mulliken gross atomic population
  ZA   - Total nuclear charge
  QA   - Mulliken gross atomic charge
  VA   - Mayer's total valence
  BVA  - Mayer's bonded valence
  FA   - Mayer's free valence

  ATOM       NA         ZA         QA         VA         BVA        FA
  0 Ir    16.3837    17.0000     0.6163     3.7503     3.7503    -0.0000
  1 C      6.2098     6.0000    -0.2098     3.6982     3.6982    -0.0000
  2 C      6.2916     6.0000    -0.2916     3.7425     3.7425     0.0000
  3 C      6.2342     6.0000    -0.2342     3.7315     3.7315    -0.0000
  4 C      6.2451     6.0000    -0.2451     3.7233     3.7233     0.0000
  5 C      6.1667     6.0000    -0.1667     3.6922     3.6922    -0.0000
  6 N      7.4310     7.0000    -0.4310     3.2163     3.2163    -0.0000
  7 C      6.1198     6.0000    -0.1198     3.6998     3.6998    -0.0000
  8 C      6.6925     6.0000    -0.6925     3.6871     3.6871     0.0000
  9 H      0.7280     1.0000     0.2720     0.8966     0.8966    -0.0000
 10 H      0.7742     1.0000     0.2258     0.9096     0.9096     0.0000
 11 H      0.7399     1.0000     0.2601     0.8977     0.8977     0.0000
 12 C      6.6380     6.0000    -0.6380     3.6733     3.6733     0.0000
 13 H      0.7191     1.0000     0.2809     0.8750     0.8750    -0.0000
 14 H      0.7359     1.0000     0.2641     0.8967     0.8967     0.0000
 15 H      0.7690     1.0000     0.2310     0.9095     0.9095     0.0000
 16 H      0.7681     1.0000     0.2319     0.9057     0.9057    -0.0000
 17 C      5.9307     6.0000     0.0693     3.6388     3.6388    -0.0000
 18 C      6.1942     6.0000    -0.1942     3.7119     3.7119    -0.0000
 19 H      0.7096     1.0000     0.2904     0.8861     0.8861     0.0000
 20 C      6.4374     6.0000    -0.4374     3.4547     3.4547    -0.0000
 21 C      6.1389     6.0000    -0.1389     3.7557     3.7557     0.0000
 22 S     15.6968    16.0000     0.3032     2.5700     2.5700     0.0000
 23 C      6.4289     6.0000    -0.4289     3.7455     3.7455    -0.0000
 24 H      0.4990     1.0000     0.5010     0.7308     0.7308    -0.0000
 25 H      0.7352     1.0000     0.2648     0.9036     0.9036    -0.0000
 26 H      0.7035     1.0000     0.2965     0.8978     0.8978     0.0000
 27 H      0.7081     1.0000     0.2919     0.9016     0.9016    -0.0000
 28 H      0.7074     1.0000     0.2926     0.9049     0.9049    -0.0000
 29 H      0.6941     1.0000     0.3059     0.8921     0.8921    -0.0000
 30 O      8.4862     8.0000    -0.4862     2.1109     2.1109    -0.0000
 31 O      8.5378     8.0000    -0.5378     2.0784     2.0784    -0.0000
 32 C      5.3808     6.0000     0.6192     3.9137     3.9137    -0.0000
 33 C      6.7456     6.0000    -0.7456     3.6673     3.6673    -0.0000
 34 H      0.7299     1.0000     0.2701     0.8951     0.8951    -0.0000
 35 H      0.7330     1.0000     0.2670     0.8950     0.8950     0.0000
 36 H      0.7460     1.0000     0.2540     0.9007     0.9007     0.0000
 37 H      0.7060     1.0000     0.2940     0.9012     0.9012     0.0000
 38 H      0.7045     1.0000     0.2955     0.9024     0.9024     0.0000

  Mayer bond orders larger than 0.100000
B(  0-Ir,  1-C ) :   0.4213 B(  0-Ir,  2-C ) :   0.5358 B(  0-Ir,  3-C ) :   0.4606 
B(  0-Ir,  4-C ) :   0.4535 B(  0-Ir,  5-C ) :   0.4031 B(  0-Ir,  6-N ) :   0.4664 
B(  0-Ir, 20-C ) :   0.2548 B(  0-Ir, 31-O ) :   0.5755 B(  1-C ,  2-C ) :   1.1173 
B(  1-C ,  4-C ) :   1.2430 B(  1-C , 27-H ) :   0.9030 B(  2-C ,  5-C ) :   1.1338 
B(  2-C , 28-H ) :   0.9073 B(  3-C ,  4-C ) :   1.1064 B(  3-C ,  5-C ) :   1.2331 
B(  3-C , 37-H ) :   0.9042 B(  4-C , 38-H ) :   0.8995 B(  5-C , 29-H ) :   0.8981 
B(  6-N ,  7-C ) :   0.8917 B(  6-N , 17-C ) :   1.6849 B(  7-C ,  8-C ) :   0.9921 
B(  7-C , 12-C ) :   0.9689 B(  7-C , 13-H ) :   0.8729 B(  8-C ,  9-H ) :   0.9036 
B(  8-C , 10-H ) :   0.9125 B(  8-C , 11-H ) :   0.9085 B( 12-C , 14-H ) :   0.9065 
B( 12-C , 15-H ) :   0.9155 B( 12-C , 16-H ) :   0.9116 B( 17-C , 18-C ) :   1.0635 
B( 17-C , 19-H ) :   0.8743 B( 18-C , 20-C ) :   1.2956 B( 18-C , 22-S ) :   1.2211 
B( 20-C , 21-C ) :   1.2718 B( 20-C , 24-H ) :   0.4563 B( 21-C , 23-C ) :   1.5449 
B( 21-C , 25-H ) :   0.9049 B( 22-S , 23-C ) :   1.2061 B( 23-C , 26-H ) :   0.8924 
B( 24-H , 30-O ) :   0.2485 B( 30-O , 32-C ) :   1.6727 B( 31-O , 32-C ) :   1.2883 
B( 32-C , 33-C ) :   0.9473 B( 33-C , 34-H ) :   0.9046 B( 33-C , 35-H ) :   0.8981 
B( 33-C , 36-H ) :   0.9092 


------------------
HIRSHFELD ANALYSIS
------------------

Total integrated alpha density =     82.000453046
Total integrated beta density  =     82.000453046

  ATOM     CHARGE      SPIN    
   0 Ir   0.203419    0.000000
   1 C    0.007621    0.000000
   2 C    0.000427    0.000000
   3 C    0.002468    0.000000
   4 C   -0.003297    0.000000
   5 C    0.018202    0.000000
   6 N   -0.068776    0.000000
   7 C    0.053813    0.000000
   8 C   -0.071048    0.000000
   9 H    0.053858    0.000000
  10 H    0.037870    0.000000
  11 H    0.043638    0.000000
  12 C   -0.070558    0.000000
  13 H    0.046578    0.000000
  14 H    0.051462    0.000000
  15 H    0.036635    0.000000
  16 H    0.030500    0.000000
  17 C    0.100664    0.000000
  18 C   -0.008594    0.000000
  19 H    0.077689    0.000000
  20 C   -0.071057    0.000000
  21 C   -0.034065    0.000000
  22 S    0.120621    0.000000
  23 C   -0.027161    0.000000
  24 H    0.064183    0.000000
  25 H    0.068697    0.000000
  26 H    0.077329    0.000000
  27 H    0.084141    0.000000
  28 H    0.085391    0.000000
  29 H    0.094598    0.000000
  30 O   -0.252127    0.000000
  31 O   -0.257574    0.000000
  32 C    0.243919    0.000000
  33 C   -0.067297    0.000000
  34 H    0.054678    0.000000
  35 H    0.059645    0.000000
  36 H    0.048634    0.000000
  37 H    0.085856    0.000000
  38 H    0.078112    0.000000

  TOTAL   0.999094    0.000000

-------
TIMINGS
-------

Total SCF time: 0 days 0 hours 4 min 39 sec 

Total time                  ....     279.018 sec
Sum of individual times     ....     278.434 sec  ( 99.8%)

Fock matrix formation       ....     270.538 sec  ( 97.0%)
  Split-RI-J                ....      21.840 sec  (  8.1% of F)
  Chain of spheres X        ....     235.499 sec  ( 87.0% of F)
  XC integration            ....      13.187 sec  (  4.9% of F)
    Basis function eval.    ....       6.104 sec  ( 46.3% of XC)
    Density eval.           ....       3.475 sec  ( 26.4% of XC)
    XC-Functional eval.     ....       0.970 sec  (  7.4% of XC)
    XC-Potential eval.      ....       2.114 sec  ( 16.0% of XC)
Diagonalization             ....       0.197 sec  (  0.1%)
Density matrix formation    ....       0.031 sec  (  0.0%)
Population analysis         ....       1.133 sec  (  0.4%)
Initial guess               ....       0.026 sec  (  0.0%)
Orbital Transformation      ....       0.000 sec  (  0.0%)
Orbital Orthonormalization  ....       0.019 sec  (  0.0%)
DIIS solution               ....       0.092 sec  (  0.0%)
Grid generation             ....       6.418 sec  (  2.3%)

Maximum memory used throughout the entire SCF-calculation: 173.3 MB


-------------------------------------------------------------------------------
                          DFT DISPERSION CORRECTION                            
                                                                               
                              DFTD3 V3.1  Rev 1                                
                          USING Becke-Johnson damping                          
-------------------------------------------------------------------------------
The PBEh-3c composite method is recognized
Using three-body term ABC
Active option DFTDOPT                   ...         4   

molecular C6(AA) [au] = 19561.646380 


            DFT-D V3
 parameters
 s6 scaling factor         :     1.0000 
 a1 scaling factor         :     0.4860 
 s8 scaling factor         :     0.0000 
 a2 scaling factor         :     4.5000 
 Damping factor alpha9(ATM):    16.0000 
 ad hoc parameters k1-k3   :    16.0000     1.3333    -4.0000 

 Edisp/kcal,au: -19.308196516147  -0.030769566444 
 E6   /kcal   : -19.655033961 
 E8   /kcal   :  -0.000000000 
 E6(ABC)      :   0.346837444 
 % E8         :   0.000000000 
 % E6(ABC)    :  -1.796322324 

-------------------------   ----------------
Dispersion correction           -0.030769566
-------------------------   ----------------

 ** NOTE ** -> element ir will be treated as co
NOTIFICATION: Different basis set in ORCA and otool_gcp:
ORCA: 358  gCP: 357 
If you are NOT using ECPs, check your basis set inputs!
------------------   -----------------
gCP correction             0.077808890
------------------   -----------------

-------------------------   --------------------
FINAL SINGLE POINT ENERGY     -1288.396642276782
-------------------------   --------------------

                                *** OPTIMIZATION RUN DONE ***

                            ***************************************
                            *     ORCA property calculations      *
                            ***************************************

                                    ---------------------
                                    Active property flags
                                    ---------------------
   (+) Dipole Moment


------------------------------------------------------------------------------
                       ORCA ELECTRIC PROPERTIES CALCULATION
------------------------------------------------------------------------------

Dipole Moment Calculation                       ... on
Quadrupole Moment Calculation                   ... off
Polarizability Calculation                      ... off
GBWName                                         ... reaction4-IEIP_ts_guess_scan_3-8_orca.gbw
Electron density                                ... reaction4-IEIP_ts_guess_scan_3-8_orca.scfp
The origin for moment calculation is the CENTER OF MASS  = ( 0.845702, -0.626324 -0.118566)

-------------
DIPOLE MOMENT
-------------
                                X             Y             Z
Electronic contribution:     34.70401     -68.82441      75.79362
Nuclear contribution   :    -35.32870      67.66497     -76.00357
                        -----------------------------------------
Total Dipole Moment    :     -0.62469      -1.15943      -0.20995
                        -----------------------------------------
Magnitude (a.u.)       :      1.33364
Magnitude (Debye)      :      3.38985



--------------------
Rotational spectrum 
--------------------
 
Rotational constants in cm-1:     0.010635     0.009010     0.008205 
Rotational constants in MHz :   318.830077   270.116259   245.966551 

 Dipole components along the rotational axes: 
x,y,z [a.u.] :    -0.128495    -0.460691     1.244933 
x,y,z [Debye]:    -0.326608    -1.170984     3.164369 

 

Timings for individual modules:

Sum of individual times         ...     5409.007 sec (=  90.150 min)
GTO integral calculation        ...       16.678 sec (=   0.278 min)   0.3 %
SCF iterations                  ...     4384.333 sec (=  73.072 min)  81.1 %
SCF Gradient evaluation         ...     1005.529 sec (=  16.759 min)  18.6 %
Geometry relaxation             ...        2.466 sec (=   0.041 min)   0.0 %
                             ****ORCA TERMINATED NORMALLY****
TOTAL RUN TIME: 0 days 1 hours 30 minutes 12 seconds 642 msec
