
                                 *****************
                                 * O   R   C   A *
                                 *****************

                                            #,                                       
                                            ###                                      
                                            ####                                     
                                            #####                                    
                                            ######                                   
                                           ########,                                 
                                     ,,################,,,,,                         
                               ,,#################################,,                 
                          ,,##########################################,,             
                       ,#########################################, ''#####,          
                    ,#############################################,,   '####,        
                  ,##################################################,,,,####,       
                ,###########''''           ''''###############################       
              ,#####''   ,,,,##########,,,,          '''####'''          '####       
            ,##' ,,,,###########################,,,                        '##       
           ' ,,###''''                  '''############,,,                           
         ,,##''                                '''############,,,,        ,,,,,,###''
      ,#''                                            '''#######################'''  
     '                                                          ''''####''''         
             ,#######,   #######,   ,#######,      ##                                
            ,#'     '#,  ##    ##  ,#'     '#,    #''#        ######   ,####,        
            ##       ##  ##   ,#'  ##            #'  '#       #        #'  '#        
            ##       ##  #######   ##           ,######,      #####,   #    #        
            '#,     ,#'  ##    ##  '#,     ,#' ,#      #,         ##   #,  ,#        
             '#######'   ##     ##  '#######'  #'      '#     #####' # '####'        



                  #######################################################
                  #                        -***-                        #
                  #          Department of theory and spectroscopy      #
                  #    Directorship and core code : Frank Neese         #
                  #        Max Planck Institute fuer Kohlenforschung    #
                  #                Kaiser Wilhelm Platz 1               #
                  #                 D-45470 Muelheim/Ruhr               #
                  #                      Germany                        #
                  #                                                     #
                  #                  All rights reserved                #
                  #                        -***-                        #
                  #######################################################


                         Program Version 5.0.3 -  RELEASE  -


 With contributions from (in alphabetic order):
   Daniel Aravena         : Magnetic Suceptibility
   Michael Atanasov       : Ab Initio Ligand Field Theory (pilot matlab implementation)
   Alexander A. Auer      : GIAO ZORA, VPT2 properties, NMR spectrum
   Ute Becker             : Parallelization
   Giovanni Bistoni       : ED, misc. LED, open-shell LED, HFLD
   Martin Brehm           : Molecular dynamics
   Dmytro Bykov           : SCF Hessian
   Vijay G. Chilkuri      : MRCI spin determinant printing, contributions to CSF-ICE
   Dipayan Datta          : RHF DLPNO-CCSD density
   Achintya Kumar Dutta   : EOM-CC, STEOM-CC
   Dmitry Ganyushin       : Spin-Orbit,Spin-Spin,Magnetic field MRCI
   Miquel Garcia          : C-PCM and meta-GGA Hessian, CC/C-PCM, Gaussian charge scheme
   Yang Guo               : DLPNO-NEVPT2, F12-NEVPT2, CIM, IAO-localization
   Andreas Hansen         : Spin unrestricted coupled pair/coupled cluster methods
   Benjamin Helmich-Paris : MC-RPA, TRAH-SCF, COSX integrals
   Lee Huntington         : MR-EOM, pCC
   Robert Izsak           : Overlap fitted RIJCOSX, COSX-SCS-MP3, EOM
   Marcus Kettner         : VPT2
   Christian Kollmar      : KDIIS, OOCD, Brueckner-CCSD(T), CCSD density, CASPT2, CASPT2-K
   Simone Kossmann        : Meta GGA functionals, TD-DFT gradient, OOMP2, MP2 Hessian
   Martin Krupicka        : Initial AUTO-CI
   Lucas Lang             : DCDCAS
   Marvin Lechner         : AUTO-CI (C++ implementation), FIC-MRCC
   Dagmar Lenk            : GEPOL surface, SMD
   Dimitrios Liakos       : Extrapolation schemes; Compound Job, initial MDCI parallelization
   Dimitrios Manganas     : Further ROCIS development; embedding schemes
   Dimitrios Pantazis     : SARC Basis sets
   Anastasios Papadopoulos: AUTO-CI, single reference methods and gradients
   Taras Petrenko         : DFT Hessian,TD-DFT gradient, ASA, ECA, R-Raman, ABS, FL, XAS/XES, NRVS
   Peter Pinski           : DLPNO-MP2, DLPNO-MP2 Gradient
   Christoph Reimann      : Effective Core Potentials
   Marius Retegan         : Local ZFS, SOC
   Christoph Riplinger    : Optimizer, TS searches, QM/MM, DLPNO-CCSD(T), (RO)-DLPNO pert. Triples
   Tobias Risthaus        : Range-separated hybrids, TD-DFT gradient, RPA, STAB
   Michael Roemelt        : Original ROCIS implementation
   Masaaki Saitow         : Open-shell DLPNO-CCSD energy and density
   Barbara Sandhoefer     : DKH picture change effects
   Avijit Sen             : IP-ROCIS
   Kantharuban Sivalingam : CASSCF convergence, NEVPT2, FIC-MRCI
   Bernardo de Souza      : ESD, SOC TD-DFT
   Georgi Stoychev        : AutoAux, RI-MP2 NMR, DLPNO-MP2 response
   Willem Van den Heuvel  : Paramagnetic NMR
   Boris Wezisla          : Elementary symmetry handling
   Frank Wennmohs         : Technical directorship


 We gratefully acknowledge several colleagues who have allowed us to
 interface, adapt or use parts of their codes:
   Stefan Grimme, W. Hujo, H. Kruse, P. Pracht,  : VdW corrections, initial TS optimization,
                  C. Bannwarth, S. Ehlert          DFT functionals, gCP, sTDA/sTD-DF
   Ed Valeev, F. Pavosevic, A. Kumar             : LibInt (2-el integral package), F12 methods
   Garnet Chan, S. Sharma, J. Yang, R. Olivares  : DMRG
   Ulf Ekstrom                                   : XCFun DFT Library
   Mihaly Kallay                                 : mrcc  (arbitrary order and MRCC methods)
   Jiri Pittner, Ondrej Demel                    : Mk-CCSD
   Frank Weinhold                                : gennbo (NPA and NBO analysis)
   Christopher J. Cramer and Donald G. Truhlar   : smd solvation model
   Lars Goerigk                                  : TD-DFT with DH, B97 family of functionals
   V. Asgeirsson, H. Jonsson                     : NEB implementation
   FAccTs GmbH                                   : IRC, NEB, NEB-TS, DLPNO-Multilevel, CI-OPT
                                                   MM, QMMM, 2- and 3-layer-ONIOM, Crystal-QMMM,
                                                   LR-CPCM, SF, NACMEs, symmetry and pop. for TD-DFT,
                                                   nearIR, NL-DFT gradient (VV10), updates on ESD,
                                                   ML-optimized integration grids
   S Lehtola, MJT Oliveira, MAL Marques          : LibXC Library
   Liviu Ungur et al                             : ANISO software


 Your calculation uses the libint2 library for the computation of 2-el integrals
 For citations please refer to: http://libint.valeyev.net

 Your ORCA version has been built with support for libXC version: 5.1.0
 For citations please refer to: https://tddft.org/programs/libxc/

 This ORCA versions uses:
   CBLAS   interface :  Fast vector & matrix operations
   LAPACKE interface :  Fast linear algebra routines
   SCALAPACK package :  Parallel linear algebra routines
   Shared memory     :  Shared parallel matrices
   BLAS/LAPACK       :  OpenBLAS 0.3.15  USE64BITINT DYNAMIC_ARCH NO_AFFINITY SkylakeX SINGLE_THREADED
        Core in use  :  SkylakeX
   Copyright (c) 2011-2014, The OpenBLAS Project


Your calculation utilizes the geometrical counterpoise correction gCP
Please cite in your paper:
H.Kruse, S. Grimme J.Chem.Phys., 136, (2012), 154101 
   

Your calculation utilizes the atom-pairwise dispersion correction
with the Becke-Johnson damping scheme (D3BJ)
Cite in your paper:
S.Grimme, S.Ehrlich, L.Goerigk, J Comput Chem, (2011), 32, 1456–1465 
S.Grimme, J.Antony, S.Ehrlich and H.Krieg, J.Chem.Phys., 132, (2010), 154104 
   

Your calculation employs the composite approach PBEh-3c.
Please cite in your paper:
S. Grimme, J. G. Brandenburg, C. Bannwarth, A. Hansen J.Chem.Phys., 143, (2015), 054107 
   

================================================================================

cite the ECPs for Ir [Def2-ECP] as follows:
Ce-Yb(ecp-28): M. Dolg, H. Stoll, H.Preuss, J. Chem. Phys., 1989, 90, 1730-1734.
Y-Cd(ecp-28), Hf-Hg(ecp-46): D. Andrae,U. Haeussermann, M. Dolg, H. Stoll, H. Preuss, Theor. Chim. Acta, 1990, 77, 123-141.
In-Sb(ecp-28), Tl-Bi(ecp-46): B. Metz, H. Stoll, M. Dolg, J. Chem. Phys., 2000, 113, 2563-2569.
Te-Xe(ecp-28), Po-Rn(ecp-46): K. A. Peterson, D. Figgen, E. Goll, H. Stoll, M. Dolg, J. Chem. Phys., 2003, 119, 11113-11123.
Rb(ecp-28), Cs(ecp-46): T. Leininger, A. Nicklass, W. Kuechle, H. Stoll, M. Dolg, A. Bergner, Chem. Phys. Lett., 1996, 255, 274-280.
Sr(ecp-28), Ba(ecp-46): M. Kaupp, P. V. Schleyer, H. Stoll and H. Preuss, J. Chem. Phys., 1991, 94, 1360-1366.
La(ecp-46): M. Dolg, H. Stoll, A. Savin, H. Preuss, Theor. Chim. Acta, 1989, 75, 173-194.
Lu(ecp-28): X. Cao, M. Dolg, J. Chem. Phys., 2001, 115, 7348-7355.

ECP parameters for Ir [Def2-ECP] have been obtained from:
TURBOMOLE (7.0.2)

----- Orbital basis set information -----
Your calculation utilizes the basis: def2-mSVP

----- AuxJ basis set information -----
Your calculation utilizes the auxiliary basis: def2/J
   F. Weigend, Phys. Chem. Chem. Phys. 8, 1057 (2006).

================================================================================
                                        WARNINGS
                       Please study these warnings very carefully!
================================================================================


WARNING: Geometry Optimization
  ===> : Switching off AutoStart
         For restart on a previous wavefunction, please use MOREAD

WARNING: No Hueckel Guess possible with ECP basis!
  ===> : Switching to HCORE guess!

INFO   : the flag for use of the SHARK integral package has been found!

================================================================================
                                       INPUT FILE
================================================================================
NAME = reaction4-IEIP_ts_guess_scan_2-12_orca.inp
|  1> ! Opt PBEh-3c
|  2> %geom Constraints
|  3> { B 0 20 2.5142857142857142 C }
|  4> { B 24 30 1.3285714285714287 C }
|  5>     end
|  6> end
|  7> %output 
|  8> xyzfile=True 
|  9> end 
| 10> %scf 
| 11> maxiter 250 
| 12> end
| 13> %output
| 14> Print[P_Hirshfeld] = 1
| 15> end
| 16> % maxcore
| 17> 4000
| 18> *xyz 1 1
| 19> Ir   0.57058364  -0.74012506   0.51563391 
| 20> C    0.01788178  -2.81793259   0.38330686 
| 21> C    0.06101000  -2.37144002   1.75418583 
| 22> C    2.17388476  -2.15321666   0.86380253 
| 23> C    1.29912642  -2.65432439  -0.17277912 
| 24> C    1.42177021  -2.01708951   2.04359818 
| 25> N   -1.03804330   0.14274244  -0.50198929 
| 26> C   -2.32245045   0.45243018   0.14920792 
| 27> C   -3.11222944   1.54637515  -0.55236081 
| 28> H   -3.94736030   1.83990011   0.08222702 
| 29> H   -3.54343450   1.22005874  -1.49998192 
| 30> H   -2.50913701   2.43751911  -0.72830927 
| 31> C   -3.14238441  -0.82316634   0.30070760 
| 32> H   -2.05087375   0.81097074   1.14354679 
| 33> H   -4.06719671  -0.60325271   0.83203061 
| 34> H   -3.40818079  -1.24092990  -0.67126537 
| 35> H   -2.61428535  -1.58441354   0.87316641 
| 36> C   -0.83728026   0.35262240  -1.74749326 
| 37> C    0.50742239   0.17004757  -2.23904670 
| 38> H   -1.63280542   0.69302882  -2.40469752 
| 39> C    1.61781753   0.48725618  -1.46825522 
| 40> C    2.81271635   0.12635123  -2.15095040 
| 41> S    0.91588314  -0.48904476  -3.76374780 
| 42> C    2.58625655  -0.39939612  -3.38634541 
| 43> H    1.54718404   1.37919331  -0.61596585 
| 44> H    3.80514004   0.30322124  -1.76224506 
| 45> H    3.31647091  -0.72182877  -4.11327750 
| 46> H   -0.85719059  -3.17745050  -0.13874689 
| 47> H   -0.74941574  -2.40634337   2.46743935 
| 48> H    1.78297485  -1.63013176   2.98562596 
| 49> O    1.39208370   2.40044965   0.24208117 
| 50> O    0.53811713   0.92701276   1.68320743 
| 51> C    0.95527555   2.09866791   1.35684918 
| 52> C    0.91610830   3.11869823   2.45753191 
| 53> H    0.85726238   4.12419393   2.04959638 
| 54> H    1.83947483   3.04973506   3.03618160 
| 55> H    0.08915197   2.94216939   3.14149412 
| 56> H    3.22305429  -1.92461539   0.74912264 
| 57> H    1.58498726  -2.86875277  -1.19234589 
| 58> *
| 59> 
| 60>                          ****END OF INPUT****
================================================================================

                       *****************************
                       * Geometry Optimization Run *
                       *****************************

Geometry optimization settings:
Update method            Update   .... BFGS
Choice of coordinates    CoordSys .... Z-matrix Internals
Initial Hessian          InHess   .... Almoef's Model

Convergence Tolerances:
Energy Change            TolE     ....  5.0000e-06 Eh
Max. Gradient            TolMAXG  ....  3.0000e-04 Eh/bohr
RMS Gradient             TolRMSG  ....  1.0000e-04 Eh/bohr
Max. Displacement        TolMAXD  ....  4.0000e-03 bohr
RMS Displacement         TolRMSD  ....  2.0000e-03 bohr
Strict Convergence                ....  False
------------------------------------------------------------------------------
                        ORCA OPTIMIZATION COORDINATE SETUP
------------------------------------------------------------------------------

The optimization will be done in new redundant internal coordinates
Making redundant internal coordinates   ...  (new redundants) done
Evaluating the initial hessian          ...  (Almloef) done
Evaluating the coordinates              ...  done
Calculating the B-matrix                .... done
Calculating the G-matrix                .... done
Diagonalizing the G-matrix              .... done
Imposing constraints:
 Iter   0:  RMS(Cart)=    0.0219873560 RMS(Int)=    0.0077223445
 Iter   1:  RMS(Cart)=    0.0029137256 RMS(Int)=    0.0011353405
 Iter   2:  RMS(Cart)=    0.0004251821 RMS(Int)=    0.0001690204
 Iter   3:  RMS(Cart)=    0.0000630697 RMS(Int)=    0.0000251944
 Iter   4:  RMS(Cart)=    0.0000093905 RMS(Int)=    0.0000037562
 Iter   5:  RMS(Cart)=    0.0000013995 RMS(Int)=    0.0000005600
 Iter   6:  RMS(Cart)=    0.0000002086 RMS(Int)=    0.0000000835
 Iter   7:  RMS(Cart)=    0.0000000311 RMS(Int)=    0.0000000124
CONVERGED
Small eigenvalue found = 1.340e-02
Small eigenvalue found = 2.471e-02
Small eigenvalue found = 2.614e-02
The first mode is                       ....  234
The number of degrees of freedom        ....  111
Storing new coordinates                 .... done

    -----------------------------------------------------------------
                    Redundant Internal Coordinates


    -----------------------------------------------------------------
         Definition                    Initial Value    Approx d2E/dq
    -----------------------------------------------------------------
      1. B(C   1,Ir  0)                  2.1540         0.087815   
      2. B(C   2,C   1)                  1.4426         0.515387   
      3. B(C   2,Ir  0)                  2.1106         0.103022   
      4. B(C   3,Ir  0)                  2.1652         0.084277   
      5. B(C   4,Ir  0)                  2.1606         0.085705   
      6. B(C   4,C   1)                  1.4067         0.588553   
      7. B(C   4,C   3)                  1.4461         0.508688   
      8. B(C   5,C   3)                  1.4061         0.589678   
      9. B(C   5,C   2)                  1.4358         0.528399   
     10. B(C   5,Ir  0)                  2.1655         0.084191   
     11. B(N   6,Ir  0)                  2.0973         0.096570   
     12. B(C   7,N   6)                  1.4730         0.412561   
     13. B(C   8,C   7)                  1.5208         0.386495   
     14. B(H   9,C   8)                  1.0892         0.361193   
     15. B(H  10,C   8)                  1.0911         0.358704   
     16. B(H  11,C   8)                  1.0903         0.359666   
     17. B(C  12,C   7)                  1.5239         0.381986   
     18. B(H  13,C   7)                  1.0913         0.358337   
     19. B(H  14,C  12)                  1.0890         0.361411   
     20. B(H  15,C  12)                  1.0908         0.359006   
     21. B(H  16,C  12)                  1.0891         0.361319   
     22. B(C  17,N   6)                  1.2754         0.841583   
     23. B(C  18,C  17)                  1.4411         0.513646   
     24. B(H  19,C  17)                  1.0866         0.364654   
     25. B(C  20,C  18)                  1.3888         0.628427   
     26. B(C  20,Ir  0)                  2.5143         0.019980 C 
     27. B(C  21,C  20)                  1.4231         0.554050   
     28. B(S  22,C  18)                  1.7106         0.518921   
     29. B(C  23,C  21)                  1.3614         0.693560   
     30. B(C  23,S  22)                  1.7144         0.510825   
     31. B(H  24,C  20)                  1.2351         0.210852   
     32. B(H  25,C  21)                  1.0804         0.373016   
     33. B(H  26,C  23)                  1.0797         0.374080   
     34. B(H  27,C   1)                  1.0805         0.372848   
     35. B(H  28,C   2)                  1.0802         0.373360   
     36. B(H  29,C   5)                  1.0806         0.372800   
     37. B(O  30,H  24)                  1.3286         0.127392 C 
     38. B(O  31,Ir  0)                  2.0359         0.121570   
     39. B(C  32,O  30)                  1.2321         0.989883   
     40. B(C  32,O  31)                  1.2838         0.820549   
     41. B(C  33,C  32)                  1.5012         0.415318   
     42. B(H  34,C  33)                  1.0867         0.364505   
     43. B(H  35,C  33)                  1.0919         0.357624   
     44. B(H  36,C  33)                  1.0876         0.363320   
     45. B(H  37,C   3)                  1.0799         0.373723   
     46. B(H  38,C   4)                  1.0804         0.373059   
     47. A(C   4,Ir  0,N   6)          118.4762         0.250538   
     48. A(C   3,Ir  0,C   5)           37.8923         0.246129   
     49. A(C   3,Ir  0,N   6)          156.9763         0.249925   
     50. A(C   5,Ir  0,O  31)           94.8096         0.258493   
     51. A(C   1,Ir  0,C   4)           38.0564         0.248239   
     52. A(C   1,Ir  0,N   6)          100.3040         0.251430   
     53. A(C   3,Ir  0,O  31)          116.9972         0.258533   
     54. A(C   4,Ir  0,O  31)          156.0126         0.259178   
     55. A(C   2,Ir  0,C   5)           39.2125         0.253436   
     56. A(C   1,Ir  0,C   2)           39.5272         0.255012   
     57. A(C   2,Ir  0,N   6)          115.0869         0.257409   
     58. A(C   2,Ir  0,C   4)           65.4154         0.254101   
     59. A(C   3,Ir  0,C   4)           39.0582         0.246764   
     60. A(C   1,Ir  0,O  31)          145.1463         0.260118   
     61. A(N   6,Ir  0,O  31)           85.4909         0.262588   
     62. A(C   4,Ir  0,C   5)           64.5410         0.246728   
     63. A(C   1,Ir  0,C   3)           64.5741         0.247635   
     64. A(C   2,Ir  0,C   3)           65.1842         0.253474   
     65. A(C   2,Ir  0,O  31)          106.9566         0.266417   
     66. A(C   5,Ir  0,N   6)          153.0342         0.249888   
     67. A(C   1,Ir  0,C   5)           64.8902         0.247598   
     68. A(C   4,C   1,H  27)          125.8439         0.351880   
     69. A(Ir  0,C   1,C   2)           68.6135         0.314427   
     70. A(C   2,C   1,H  27)          125.8988         0.344099   
     71. A(C   2,C   1,C   4)          108.2124         0.416055   
     72. A(Ir  0,C   1,H  27)          123.9491         0.270194   
     73. A(Ir  0,C   1,C   4)           71.2276         0.321303   
     74. A(C   1,C   2,C   5)          107.2400         0.408170   
     75. A(C   5,C   2,H  28)          125.8741         0.345622   
     76. A(Ir  0,C   2,C   5)           72.4597         0.324048   
     77. A(Ir  0,C   2,C   1)           71.8594         0.322725   
     78. A(Ir  0,C   2,H  28)          126.4186         0.276922   
     79. A(C   1,C   2,H  28)          126.5229         0.344178   
     80. A(Ir  0,C   3,H  37)          124.3491         0.268611   
     81. A(Ir  0,C   3,C   5)           71.0645         0.319251   
     82. A(C   5,C   3,H  37)          126.0523         0.352133   
     83. A(C   4,C   3,H  37)          125.7959         0.343479   
     84. A(Ir  0,C   3,C   4)           70.2987         0.311678   
     85. A(C   4,C   3,C   5)          108.1518         0.415228   
     86. A(C   3,C   4,H  38)          125.8130         0.343377   
     87. A(Ir  0,C   4,C   1)           70.7160         0.320028   
     88. A(C   1,C   4,H  38)          126.2480         0.351913   
     89. A(Ir  0,C   4,H  38)          124.4558         0.269222   
     90. A(Ir  0,C   4,C   3)           70.6431         0.312527   
     91. A(C   1,C   4,C   3)          107.9383         0.415087   
     92. A(Ir  0,C   5,H  29)          122.3714         0.268468   
     93. A(C   3,C   5,H  29)          125.9801         0.351986   
     94. A(C   2,C   5,H  29)          125.5168         0.345535   
     95. A(Ir  0,C   5,C   3)           71.0432         0.319197   
     96. A(C   2,C   5,C   3)          108.3047         0.418048   
     97. A(Ir  0,C   5,C   2)           68.3278         0.313551   
     98. A(Ir  0,N   6,C  17)          114.3471         0.342422   
     99. A(C   7,N   6,C  17)          122.4681         0.420682   
    100. A(Ir  0,N   6,C   7)          123.1428         0.304659   
    101. A(N   6,C   7,C   8)          113.5868         0.369426   
    102. A(N   6,C   7,C  12)          109.7018         0.368682   
    103. A(C   8,C   7,C  12)          111.6270         0.366868   
    104. A(N   6,C   7,H  13)          104.7667         0.327420   
    105. A(C   8,C   7,H  13)          108.2545         0.325873   
    106. A(C  12,C   7,H  13)          108.5604         0.325245   
    107. A(C   7,C   8,H  11)          112.0317         0.326072   
    108. A(H   9,C   8,H  11)          107.3302         0.290923   
    109. A(H  10,C   8,H  11)          108.8379         0.290607   
    110. A(C   7,C   8,H   9)          108.8612         0.326299   
    111. A(C   7,C   8,H  10)          113.0038         0.325928   
    112. A(H   9,C   8,H  10)          106.4751         0.290800   
    113. A(C   7,C  12,H  14)          109.6569         0.325702   
    114. A(C   7,C  12,H  15)          111.2897         0.325345   
    115. A(H  14,C  12,H  15)          107.7669         0.290867   
    116. A(C   7,C  12,H  16)          112.1130         0.325689   
    117. A(H  14,C  12,H  16)          107.2468         0.291160   
    118. A(H  15,C  12,H  16)          108.5919         0.290855   
    119. A(N   6,C  17,C  18)          116.6361         0.440441   
    120. A(N   6,C  17,H  19)          121.9886         0.370279   
    121. A(C  18,C  17,H  19)          121.3383         0.342625   
    122. A(C  17,C  18,C  20)          121.8865         0.420689   
    123. A(C  17,C  18,S  22)          124.9668         0.428920   
    124. A(C  20,C  18,S  22)          113.1152         0.444797   
    125. A(C  18,C  20,C  21)          110.2301         0.426423   
    126. A(C  18,C  20,H  24)          120.3280         0.323515   
    127. A(C  21,C  20,H  24)          124.0054         0.316923   
    128. A(C  20,C  21,H  25)          123.8401         0.348336   
    129. A(C  23,C  21,H  25)          122.8113         0.361859   
    130. A(C  20,C  21,C  23)          113.2488         0.434039   
    131. A(C  18,S  22,C  23)           90.9327         0.452330   
    132. A(C  21,C  23,H  26)          127.8663         0.362035   
    133. A(S  22,C  23,H  26)          119.6778         0.361662   
    134. A(C  21,C  23,S  22)          112.4376         0.451535   
    135. L(C  20,H  24,O  30,C  18, 1) 175.6556         0.228689   
    136. L(C  20,H  24,O  30,C  18, 2) 184.3573         0.228689   
    137. A(H  24,O  30,C  32)          115.1693         0.316313   
    138. A(Ir  0,O  31,C  32)          126.4916         0.354452   
    139. A(O  30,C  32,O  31)          124.1805         0.491035   
    140. A(O  30,C  32,C  33)          120.5040         0.436471   
    141. A(O  31,C  32,C  33)          115.2926         0.422025   
    142. A(C  32,C  33,H  34)          110.7867         0.330693   
    143. A(C  32,C  33,H  35)          108.8804         0.329653   
    144. A(H  34,C  33,H  35)          107.6486         0.291080   
    145. A(C  32,C  33,H  36)          111.7563         0.330515   
    146. A(H  34,C  33,H  36)          110.1873         0.291804   
    147. A(H  35,C  33,H  36)          107.4265         0.290931   
    148. D(H  27,C   1,Ir  0,N   6)      2.5215         0.001712   
    149. D(C   2,C   1,Ir  0,C   5)     39.0592         0.001712   
    150. D(C   2,C   1,Ir  0,N   6)   -117.1794         0.001712   
    151. D(C   2,C   1,Ir  0,C   4)    119.1843         0.001712   
    152. D(H  27,C   1,Ir  0,C   2)    119.7009         0.001712   
    153. D(C   4,C   1,Ir  0,C   2)   -119.1843         0.001712   
    154. D(C   4,C   1,Ir  0,C   3)    -38.0451         0.001712   
    155. D(C   4,C   1,Ir  0,C   5)    -80.1251         0.001712   
    156. D(H  27,C   1,Ir  0,O  31)     99.4848         0.001712   
    157. D(C   4,C   1,Ir  0,N   6)    123.6363         0.001712   
    158. D(H  27,C   1,Ir  0,C   5)    158.7601         0.001712   
    159. D(H  27,C   1,Ir  0,C   4)   -121.1148         0.001712   
    160. D(C   4,C   1,Ir  0,O  31)   -139.4004         0.001712   
    161. D(C   2,C   1,Ir  0,C   3)     81.1391         0.001712   
    162. D(C   2,C   1,Ir  0,O  31)    -20.2161         0.001712   
    163. D(H  27,C   1,Ir  0,C   3)   -159.1599         0.001712   
    164. D(C   5,C   2,C   1,H  27)    178.5165         0.021068   
    165. D(C   1,C   2,Ir  0,C   5)   -115.5083         0.001791   
    166. D(C   5,C   2,Ir  0,N   6)   -169.3868         0.001791   
    167. D(C   1,C   2,Ir  0,C   3)    -79.4652         0.001791   
    168. D(H  28,C   2,Ir  0,C   4)   -158.7364         0.001791   
    169. D(C   5,C   2,Ir  0,C   1)    115.5083         0.001791   
    170. D(Ir  0,C   2,C   1,C   4)     60.4826         0.021068   
    171. D(C   5,C   2,Ir  0,C   3)     36.0431         0.001791   
    172. D(H  28,C   2,Ir  0,N   6)    -47.3441         0.001791   
    173. D(H  28,C   2,Ir  0,C   5)    122.0427         0.001791   
    174. D(C   5,C   2,C   1,C   4)     -3.8129         0.021068   
    175. D(H  28,C   2,C   1,H  27)      5.1396         0.021068   
    176. D(H  28,C   2,Ir  0,C   1)   -122.4490         0.001791   
    177. D(H  28,C   2,C   1,C   4)   -177.1898         0.021068   
    178. D(C   1,C   2,Ir  0,O  31)    168.0851         0.001791   
    179. D(C   5,C   2,Ir  0,C   4)     79.2209         0.001791   
    180. D(H  28,C   2,C   1,Ir  0)    122.3275         0.021068   
    181. D(Ir  0,C   2,C   1,H  27)   -117.1880         0.021068   
    182. D(C   1,C   2,Ir  0,N   6)     75.1050         0.001791   
    183. D(C   5,C   2,Ir  0,O  31)    -76.4066         0.001791   
    184. D(H  28,C   2,Ir  0,O  31)     45.6360         0.001791   
    185. D(H  28,C   2,Ir  0,C   3)    158.0857         0.001791   
    186. D(C   1,C   2,Ir  0,C   4)    -36.2874         0.001791   
    187. D(C   5,C   2,C   1,Ir  0)    -64.2955         0.021068   
    188. D(C   4,C   3,Ir  0,C   5)    118.2086         0.001696   
    189. D(C   4,C   3,Ir  0,O  31)    178.1154         0.001696   
    190. D(C   4,C   3,Ir  0,N   6)    -15.1673         0.001696   
    191. D(C   4,C   3,Ir  0,C   1)     37.0786         0.001696   
    192. D(C   5,C   3,Ir  0,O  31)     59.9069         0.001696   
    193. D(C   5,C   3,Ir  0,C   2)    -37.2761         0.001696   
    194. D(C   4,C   3,Ir  0,C   2)     80.9325         0.001696   
    195. D(H  37,C   3,Ir  0,C   4)    120.5157         0.001696   
    196. D(H  37,C   3,Ir  0,C   1)    157.5943         0.001696   
    197. D(C   5,C   3,Ir  0,C   1)    -81.1300         0.001696   
    198. D(C   5,C   3,Ir  0,C   4)   -118.2086         0.001696   
    199. D(H  37,C   3,Ir  0,C   5)   -121.2757         0.001696   
    200. D(H  37,C   3,Ir  0,N   6)    105.3485         0.001696   
    201. D(H  37,C   3,Ir  0,O  31)    -61.3688         0.001696   
    202. D(C   5,C   3,Ir  0,N   6)   -133.3758         0.001696   
    203. D(H  37,C   3,Ir  0,C   2)   -158.5518         0.001696   
    204. D(C   1,C   4,Ir  0,C   3)    117.9543         0.001702   
    205. D(H  38,C   4,C   3,H  37)      0.3477         0.020508   
    206. D(C   1,C   4,Ir  0,C   5)     81.1241         0.001702   
    207. D(C   1,C   4,Ir  0,N   6)    -68.7309         0.001702   
    208. D(C   1,C   4,Ir  0,O  31)    113.8210         0.001702   
    209. D(C   1,C   4,Ir  0,C   2)     37.6650         0.001702   
    210. D(C   3,C   4,Ir  0,C   1)   -117.9543         0.001702   
    211. D(H  38,C   4,C   3,C   5)   -179.6166         0.020508   
    212. D(C   3,C   4,Ir  0,C   5)    -36.8302         0.001702   
    213. D(C   3,C   4,Ir  0,N   6)    173.3148         0.001702   
    214. D(C   3,C   4,Ir  0,O  31)     -4.1333         0.001702   
    215. D(Ir  0,C   4,C   1,C   2)    -58.8494         0.027811   
    216. D(H  38,C   4,Ir  0,C   2)    158.9731         0.001702   
    217. D(H  38,C   4,Ir  0,C   3)   -120.7376         0.001702   
    218. D(H  38,C   4,C   1,C   2)   -177.9746         0.027811   
    219. D(H  38,C   4,Ir  0,N   6)     52.5772         0.001702   
    220. D(H  38,C   4,Ir  0,O  31)   -124.8709         0.001702   
    221. D(Ir  0,C   4,C   1,H  27)    118.8228         0.027811   
    222. D(C   3,C   4,C   1,Ir  0)     61.1602         0.027811   
    223. D(C   3,C   4,C   1,H  27)    179.9830         0.027811   
    224. D(H  38,C   4,C   1,Ir  0)   -119.1252         0.027811   
    225. D(H  38,C   4,Ir  0,C   5)   -157.5678         0.001702   
    226. D(H  38,C   4,C   1,H  27)     -0.3024         0.027811   
    227. D(Ir  0,C   4,C   3,C   5)     61.3063         0.020508   
    228. D(Ir  0,C   4,C   3,H  37)   -118.7294         0.020508   
    229. D(C   3,C   4,C   1,C   2)      2.3107         0.027811   
    230. D(C   1,C   4,C   3,C   5)      0.0997         0.020508   
    231. D(C   1,C   4,C   3,H  37)   -179.9360         0.020508   
    232. D(H  38,C   4,C   3,Ir  0)    119.0771         0.020508   
    233. D(H  38,C   4,Ir  0,C   1)    121.3081         0.001702   
    234. D(C   1,C   4,C   3,Ir  0)    -61.2066         0.020508   
    235. D(C   3,C   4,Ir  0,C   2)    -80.2893         0.001702   
    236. D(C   2,C   5,Ir  0,C   1)    -39.3721         0.001695   
    237. D(H  29,C   5,C   3,C   4)   -177.5771         0.027924   
    238. D(C   2,C   5,Ir  0,C   4)    -81.6417         0.001695   
    239. D(C   2,C   5,Ir  0,N   6)     21.5830         0.001695   
    240. D(C   2,C   5,Ir  0,O  31)    111.0899         0.001695   
    241. D(C   3,C   5,Ir  0,C   1)     80.2211         0.001695   
    242. D(C   3,C   5,Ir  0,C   2)    119.5932         0.001695   
    243. D(C   3,C   5,Ir  0,C   4)     37.9514         0.001695   
    244. D(H  29,C   5,C   2,C   1)    178.9974         0.022183   
    245. D(C   3,C   5,Ir  0,O  31)   -129.3170         0.001695   
    246. D(H  29,C   5,Ir  0,C   1)   -158.5972         0.001695   
    247. D(C   3,C   5,C   2,Ir  0)    -60.0227         0.022183   
    248. D(H  29,C   5,Ir  0,C   3)    121.1817         0.001695   
    249. D(H  29,C   5,Ir  0,C   4)    159.1332         0.001695   
    250. D(H  29,C   5,Ir  0,N   6)    -97.6421         0.001695   
    251. D(H  29,C   5,Ir  0,O  31)     -8.1353         0.001695   
    252. D(Ir  0,C   5,C   2,C   1)     63.8976         0.022183   
    253. D(H  29,C   5,Ir  0,C   2)   -119.2251         0.001695   
    254. D(Ir  0,C   5,C   2,H  28)   -122.6705         0.022183   
    255. D(C   3,C   5,C   2,C   1)      3.8749         0.022183   
    256. D(C   3,C   5,C   2,H  28)    177.3068         0.022183   
    257. D(C   3,C   5,Ir  0,N   6)    141.1762         0.001695   
    258. D(H  29,C   5,C   2,Ir  0)    115.0998         0.022183   
    259. D(H  29,C   5,C   2,H  28)     -7.5707         0.022183   
    260. D(Ir  0,C   5,C   3,C   4)    -60.8207         0.027924   
    261. D(Ir  0,C   5,C   3,H  37)    119.2151         0.027924   
    262. D(C   2,C   5,C   3,Ir  0)     58.3376         0.027924   
    263. D(C   2,C   5,C   3,C   4)     -2.4831         0.027924   
    264. D(C   2,C   5,C   3,H  37)    177.5527         0.027924   
    265. D(C   2,C   5,Ir  0,C   3)   -119.5932         0.001695   
    266. D(H  29,C   5,C   3,Ir  0)   -116.7564         0.027924   
    267. D(H  29,C   5,C   3,H  37)      2.4587         0.027924   
    268. D(C  17,N   6,Ir  0,C   1)    -93.9398         0.001776   
    269. D(C   7,N   6,Ir  0,C   2)     45.0608         0.001776   
    270. D(C   7,N   6,Ir  0,C   3)    130.2862         0.001776   
    271. D(C   7,N   6,Ir  0,C   4)    119.4763         0.001776   
    272. D(C   7,N   6,Ir  0,C   5)     30.1820         0.001776   
    273. D(C   7,N   6,Ir  0,C   1)     83.7533         0.001776   
    274. D(C   7,N   6,Ir  0,O  31)    -61.5641         0.001776   
    275. D(C  17,N   6,Ir  0,C   2)   -132.6323         0.001776   
    276. D(C  17,N   6,Ir  0,C   3)    -47.4069         0.001776   
    277. D(C  17,N   6,Ir  0,C   4)    -58.2169         0.001776   
    278. D(C  17,N   6,Ir  0,C   5)   -147.5111         0.001776   
    279. D(C  17,N   6,Ir  0,O  31)    120.7428         0.001776   
    280. D(C   8,C   7,N   6,Ir  0)    156.8084         0.014518   
    281. D(C   8,C   7,N   6,C  17)    -25.6828         0.014518   
    282. D(C  12,C   7,N   6,Ir  0)    -77.4936         0.014518   
    283. D(C  12,C   7,N   6,C  17)    100.0152         0.014518   
    284. D(H  13,C   7,N   6,Ir  0)     38.8679         0.014518   
    285. D(H  13,C   7,N   6,C  17)   -143.6233         0.014518   
    286. D(H   9,C   8,C   7,N   6)   -169.7774         0.011885   
    287. D(H   9,C   8,C   7,C  12)     65.5546         0.011885   
    288. D(H   9,C   8,C   7,H  13)    -53.8731         0.011885   
    289. D(H  10,C   8,C   7,N   6)     72.1482         0.011885   
    290. D(H  10,C   8,C   7,C  12)    -52.5198         0.011885   
    291. D(H  10,C   8,C   7,H  13)   -171.9475         0.011885   
    292. D(H  11,C   8,C   7,N   6)    -51.2343         0.011885   
    293. D(H  11,C   8,C   7,C  12)   -175.9023         0.011885   
    294. D(H  11,C   8,C   7,H  13)     64.6700         0.011885   
    295. D(H  14,C  12,C   7,N   6)    176.8472         0.011623   
    296. D(H  14,C  12,C   7,C   8)    -56.3419         0.011623   
    297. D(H  14,C  12,C   7,H  13)     62.9047         0.011623   
    298. D(H  15,C  12,C   7,N   6)    -64.0121         0.011623   
    299. D(H  15,C  12,C   7,C   8)     62.7988         0.011623   
    300. D(H  15,C  12,C   7,H  13)   -177.9546         0.011623   
    301. D(H  16,C  12,C   7,N   6)     57.8366         0.011623   
    302. D(H  16,C  12,C   7,C   8)   -175.3525         0.011623   
    303. D(H  16,C  12,C   7,H  13)    -56.1059         0.011623   
    304. D(C  18,C  17,N   6,Ir  0)     -9.6103         0.061162   
    305. D(C  18,C  17,N   6,C   7)    172.6791         0.061162   
    306. D(H  19,C  17,N   6,Ir  0)    172.5765         0.061162   
    307. D(H  19,C  17,N   6,C   7)     -5.1341         0.061162   
    308. D(C  20,C  18,C  17,N   6)    -35.2381         0.017984   
    309. D(C  20,C  18,C  17,H  19)    142.5904         0.017984   
    310. D(S  22,C  18,C  17,N   6)    142.5773         0.017984   
    311. D(S  22,C  18,C  17,H  19)    -39.5943         0.017984   
    312. D(C  21,C  20,C  18,C  17)    175.9919         0.029749   
    313. D(C  21,C  20,C  18,S  22)     -2.0616         0.029749   
    314. D(H  24,C  20,C  18,C  17)    -29.0319         0.029749   
    315. D(H  24,C  20,C  18,S  22)    152.9145         0.029749   
    316. D(C  23,C  21,C  20,C  18)      1.5914         0.022802   
    317. D(C  23,C  21,C  20,H  24)   -152.2774         0.022802   
    318. D(H  25,C  21,C  20,C  18)    178.0430         0.022802   
    319. D(H  25,C  21,C  20,H  24)     24.1742         0.022802   
    320. D(C  23,S  22,C  18,C  17)   -176.4116         0.005506   
    321. D(C  23,S  22,C  18,C  20)      1.5715         0.005506   
    322. D(S  22,C  23,C  21,C  20)     -0.4416         0.033826   
    323. D(S  22,C  23,C  21,H  25)   -176.9349         0.033826   
    324. D(H  26,C  23,C  21,C  20)    177.9778         0.033826   
    325. D(H  26,C  23,C  21,H  25)      1.4845         0.033826   
    326. D(C  21,C  23,S  22,C  18)     -0.6280         0.005376   
    327. D(H  26,C  23,S  22,C  18)   -179.1919         0.005376   
    328. D(C  32,O  30,C  20,C  18)     87.1179         0.001503   
    329. D(C  32,O  30,C  20,C  21)   -123.7750         0.001503   
    330. D(C  32,O  31,Ir  0,C   1)   -176.5169         0.001914   
    331. D(C  32,O  31,Ir  0,C   2)    170.1903         0.001914   
    332. D(C  32,O  31,Ir  0,C   3)     99.8907         0.001914   
    333. D(C  32,O  31,Ir  0,C   4)    102.8125         0.001914   
    334. D(C  32,O  31,Ir  0,C   5)    132.1176         0.001914   
    335. D(C  32,O  31,Ir  0,N   6)    -74.9376         0.001914   
    336. D(O  31,C  32,O  30,H  24)     -6.5339         0.080019   
    337. D(C  33,C  32,O  30,H  24)    171.6428         0.080019   
    338. D(O  30,C  32,O  31,Ir  0)      2.9729         0.052212   
    339. D(C  33,C  32,O  31,Ir  0)   -175.2897         0.052212   
    340. D(H  34,C  33,C  32,O  30)     26.0927         0.012764   
    341. D(H  34,C  33,C  32,O  31)   -155.5756         0.012764   
    342. D(H  35,C  33,C  32,O  30)    -92.1071         0.012764   
    343. D(H  35,C  33,C  32,O  31)     86.2247         0.012764   
    344. D(H  36,C  33,C  32,O  30)    149.3855         0.012764   
    345. D(H  36,C  33,C  32,O  31)    -32.2827         0.012764   
    -----------------------------------------------------------------

Number of atoms                         .... 39
Number of degrees of freedom            .... 345

         *************************************************************
         *                GEOMETRY OPTIMIZATION CYCLE   1            *
         *************************************************************
---------------------------------
CARTESIAN COORDINATES (ANGSTROEM)
---------------------------------
  Ir     0.572257   -0.732488    0.500863
  C      0.024356   -2.811132    0.364303
  C      0.073764   -2.369199    1.736641
  C      2.181530   -2.141958    0.835301
  C      1.302502   -2.641967   -0.198350
  C      1.435253   -2.012001    2.019910
  N     -1.044583    0.148400   -0.503365
  C     -2.327910    0.456132    0.150892
  C     -3.120928    1.549024   -0.548672
  H     -3.954994    1.841249    0.087917
  H     -3.553884    1.222210   -1.495325
  H     -2.519544    2.441069   -0.725916
  C     -3.145634   -0.820677    0.304144
  H     -2.054519    0.814931    1.144641
  H     -4.069518   -0.602180    0.837669
  H     -3.413107   -1.238695   -0.667262
  H     -2.615084   -1.581235    0.875258
  C     -0.842295    0.355539   -1.745481
  C      0.504272    0.163428   -2.221631
  H     -1.633190    0.695125   -2.408715
  C      1.609888    0.479002   -1.442650
  C      2.807792    0.106871   -2.114764
  S      0.921246   -0.507851   -3.738807
  C      2.588617   -0.425548   -3.348433
  H      1.542097    1.378405   -0.598918
  H      3.798253    0.280861   -1.719739
  H      3.322960   -0.756594   -4.067398
  H     -0.852616   -3.171213   -0.154179
  H     -0.732686   -2.408750    2.454183
  H      1.800444   -1.627219    2.961302
  O      1.392681    2.397913    0.239760
  O      0.540612    0.929879    1.675734
  C      0.954842    2.101194    1.352513
  C      0.914265    3.121993    2.452432
  H      0.855613    4.127187    2.043723
  H      1.837035    3.053659    3.032110
  H      0.086626    2.945752    3.135643
  H      3.229414   -1.909970    0.715609
  H      1.583544   -2.851956   -1.220202

----------------------------
CARTESIAN COORDINATES (A.U.)
----------------------------
  NO LB      ZA    FRAG     MASS         X           Y           Z
   0 Ir   17.0000*   0   192.220    1.081409   -1.384202    0.946495
   1 C     6.0000    0    12.011    0.046027   -5.312269    0.688432
   2 C     6.0000    0    12.011    0.139394   -4.477138    3.281775
   3 C     6.0000    0    12.011    4.122494   -4.047715    1.578489
   4 C     6.0000    0    12.011    2.461372   -4.992593   -0.374828
   5 C     6.0000    0    12.011    2.712234   -3.802131    3.817076
   6 N     7.0000    0    14.007   -1.973976    0.280435   -0.951222
   7 C     6.0000    0    12.011   -4.399113    0.861964    0.285144
   8 C     6.0000    0    12.011   -5.897698    2.927232   -1.036841
   9 H     1.0000    0     1.008   -7.473856    3.479456    0.166140
  10 H     1.0000    0     1.008   -6.715868    2.309643   -2.825755
  11 H     1.0000    0     1.008   -4.761248    4.612952   -1.371783
  12 C     6.0000    0    12.011   -5.944387   -1.550855    0.574748
  13 H     1.0000    0     1.008   -3.882478    1.539997    2.163059
  14 H     1.0000    0     1.008   -7.690275   -1.137956    1.582966
  15 H     1.0000    0     1.008   -6.449837   -2.340793   -1.260942
  16 H     1.0000    0     1.008   -4.941792   -2.988101    1.653998
  17 C     6.0000    0    12.011   -1.591707    0.671872   -3.298481
  18 C     6.0000    0    12.011    0.952936    0.308834   -4.198274
  19 H     1.0000    0     1.008   -3.086282    1.313595   -4.551811
  20 C     6.0000    0    12.011    3.042247    0.905183   -2.726214
  21 C     6.0000    0    12.011    5.305957    0.201957   -3.996326
  22 S    16.0000    0    32.060    1.740903   -0.959699   -7.065322
  23 C     6.0000    0    12.011    4.891778   -0.804170   -6.327622
  24 H     1.0000    0     1.008    2.914140    2.604807   -1.131790
  25 H     1.0000    0     1.008    7.177658    0.530751   -3.249835
  26 H     1.0000    0     1.008    6.279485   -1.429756   -7.686268
  27 H     1.0000    0     1.008   -1.611210   -5.992724   -0.291356
  28 H     1.0000    0     1.008   -1.384576   -4.551878    4.637734
  29 H     1.0000    0     1.008    3.402347   -3.074998    5.596050
  30 O     8.0000    0    15.999    2.631785    4.531398    0.453081
  31 O     8.0000    0    15.999    1.021609    1.757216    3.166678
  32 C     6.0000    0    12.011    1.804389    3.970681    2.555879
  33 C     6.0000    0    12.011    1.727711    5.899713    4.634425
  34 H     1.0000    0     1.008    1.616874    7.799252    3.862077
  35 H     1.0000    0     1.008    3.471492    5.770579    5.729857
  36 H     1.0000    0     1.008    0.163699    5.566665    5.925506
  37 H     1.0000    0     1.008    6.102708   -3.609320    1.352306
  38 H     1.0000    0     1.008    2.992465   -5.389415   -2.305847
* core charge reduced due to ECP

--------------------------------
INTERNAL COORDINATES (ANGSTROEM)
--------------------------------
 Ir     0   0   0     0.000000000000     0.00000000     0.00000000
 C      1   0   0     2.154129505377     0.00000000     0.00000000
 C      2   1   0     1.442402443430    68.61484394     0.00000000
 C      1   2   3     2.165323010393    64.55656494    81.13335366
 C      2   1   3     1.406267075554    71.23448279   240.81866794
 C      4   1   2     1.405747016020    71.07040512   278.86858914
 N      1   2   3     2.098259429105   100.33229384   242.77975939
 C      7   1   2     1.472978624960   122.85777808    83.67189757
 C      8   7   1     1.520744927116   113.58681963   156.77683611
 H      9   8   7     1.089174994871   108.86121099   190.22263632
 H      9   8   7     1.091057272247   113.00363930    72.14817060
 H      9   8   7     1.090328343731   112.03180245   308.76558828
 C      8   7   1     1.523939084622   109.70165025   282.47483813
 H      8   7   1     1.091336348492   104.76676244    38.83646646
 H     13   8   7     1.089010530641   109.65676192   176.84720189
 H     13   8   7     1.090827925062   111.28990169   295.98801781
 H     13   8   7     1.089079889552   112.11300692    57.83664482
 C      7   1   2     1.278919675009   114.89871179   265.93648047
 C     18   7   1     1.443323792447   117.20435153   350.13588322
 H     18   7   1     1.086579150514   121.70303410   172.55232209
 C     19  18   7     1.388422909215   121.81217783   324.93452216
 C     21  19  18     1.422711594726   110.32478232   175.97134737
 S     19  18   7     1.710542699875   125.08447175   142.77967231
 C     22  21  19     1.361578182765   113.18161346     1.64629691
 H     21  19  18     1.235693369731   120.13907296   331.22283630
 H     22  21  19     1.080407155777   123.86996210   178.10206594
 H     24  22  21     1.079632385957   127.86052189   177.97070083
 H      2   1   3     1.080529915475   123.94558630   119.70551025
 H      3   2   1     1.080156797733   126.52295364   122.32465935
 H      6   4   1     1.080565329138   125.97957191   243.24643071
 O     25  21  19     1.342857146531   175.04407935   329.11310716
 O      1   2   3     2.035590948533   145.19701982   339.79945066
 C     31  25  21     1.234739363033   115.58635312   117.73168772
 C     33  31  25     1.501165680167   120.34016384   171.63548435
 H     34  33  31     1.086690315433   110.78672169    26.00475463
 H     34  33  31     1.091877800524   108.88041269   267.80499906
 H     34  33  31     1.087576897413   111.75626796   149.29764268
 H      4   1   2     1.079891994829   124.34363708   157.59719041
 H      5   2   1     1.080376021801   126.23910978   240.87482432

---------------------------
INTERNAL COORDINATES (A.U.)
---------------------------
 Ir     0   0   0     0.000000000000     0.00000000     0.00000000
 C      1   0   0     4.070714822161     0.00000000     0.00000000
 C      2   1   0     2.725745592982    68.61484394     0.00000000
 C      1   2   3     4.091867481120    64.55656494    81.13335366
 C      2   1   3     2.657459643948    71.23448279   240.81866794
 C      4   1   2     2.656476873854    71.07040512   278.86858914
 N      1   2   3     3.965135678926   100.33229384   242.77975939
 C      7   1   2     2.783526202294   122.85777808    83.67189757
 C      8   7   1     2.873791431798   113.58681963   156.77683611
 H      9   8   7     2.058242452221   108.86121099   190.22263632
 H      9   8   7     2.061799440970   113.00363930    72.14817060
 H      9   8   7     2.060421965704   112.03180245   308.76558828
 C      8   7   1     2.879827514714   109.70165025   282.47483813
 H      8   7   1     2.062326818644   104.76676244    38.83646646
 H     13   8   7     2.057931659867   109.65676192   176.84720189
 H     13   8   7     2.061366037601   111.28990169   295.98801781
 H     13   8   7     2.058062729215   112.11300692    57.83664482
 C      7   1   2     2.416807933051   114.89871179   265.93648047
 C     18   7   1     2.727486690297   117.20435153   350.13588322
 H     18   7   1     2.053337017301   121.70303410   172.55232209
 C     19  18   7     2.623739056479   121.81217783   324.93452216
 C     21  19  18     2.688535281586   110.32478232   175.97134737
 S     19  18   7     3.232457243143   125.08447175   142.77967231
 C     22  21  19     2.573009875348   113.18161346     1.64629691
 H     21  19  18     2.335122054294   120.13907296   331.22283630
 H     22  21  19     2.041673637548   123.86996210   178.10206594
 H     24  22  21     2.040209534771   127.86052189   177.97070083
 H      2   1   3     2.041905619758   123.94558630   119.70551025
 H      3   2   1     2.041200529408   126.52295364   122.32465935
 H      6   4   1     2.041972541881   125.97957191   243.24643071
 O     25  21  19     2.537632243922   175.04407935   329.11310716
 O      1   2   3     3.846709413417   145.19701982   339.79945066
 C     31  25  21     2.333319242905   115.58635312   117.73168772
 C     33  31  25     2.836792017158   120.34016384   171.63548435
 H     34  33  31     2.053547088553   110.78672169    26.00475463
 H     34  33  31     2.063350014699   108.88041269   267.80499906
 H     34  33  31     2.055222485691   111.75626796   149.29764268
 H      4   1   2     2.040700124441   124.34363708   157.59719041
 H      5   2   1     2.041614802860   126.23910978   240.87482432

---------------------
BASIS SET INFORMATION
---------------------
There are 6 groups of distinct atoms

 Group   1 Type Ir  : 7s6p5d1f contracted to 6s3p2d1f pattern {211111/411/41/1}
 Group   2 Type C   : 8s4p1d contracted to 4s2p1d pattern {5111/31/1}
 Group   3 Type N   : 8s4p1d contracted to 4s2p1d pattern {5111/31/1}
 Group   4 Type H   : 4s contracted to 2s pattern {31}
 Group   5 Type S   : 10s7p1d contracted to 4s3p1d pattern {5311/511/1}
 Group   6 Type O   : 8s4p1d contracted to 4s2p1d pattern {5111/31/1}

Atom   0Ir   basis set group =>   1
Atom   1C    basis set group =>   2
Atom   2C    basis set group =>   2
Atom   3C    basis set group =>   2
Atom   4C    basis set group =>   2
Atom   5C    basis set group =>   2
Atom   6N    basis set group =>   3
Atom   7C    basis set group =>   2
Atom   8C    basis set group =>   2
Atom   9H    basis set group =>   4
Atom  10H    basis set group =>   4
Atom  11H    basis set group =>   4
Atom  12C    basis set group =>   2
Atom  13H    basis set group =>   4
Atom  14H    basis set group =>   4
Atom  15H    basis set group =>   4
Atom  16H    basis set group =>   4
Atom  17C    basis set group =>   2
Atom  18C    basis set group =>   2
Atom  19H    basis set group =>   4
Atom  20C    basis set group =>   2
Atom  21C    basis set group =>   2
Atom  22S    basis set group =>   5
Atom  23C    basis set group =>   2
Atom  24H    basis set group =>   4
Atom  25H    basis set group =>   4
Atom  26H    basis set group =>   4
Atom  27H    basis set group =>   4
Atom  28H    basis set group =>   4
Atom  29H    basis set group =>   4
Atom  30O    basis set group =>   6
Atom  31O    basis set group =>   6
Atom  32C    basis set group =>   2
Atom  33C    basis set group =>   2
Atom  34H    basis set group =>   4
Atom  35H    basis set group =>   4
Atom  36H    basis set group =>   4
Atom  37H    basis set group =>   4
Atom  38H    basis set group =>   4
---------------------------------
AUXILIARY/J BASIS SET INFORMATION
---------------------------------
There are 6 groups of distinct atoms

 Group   1 Type Ir  : 11s5p5d3f3g contracted to 8s5p5d2f3g pattern {41111111/11111/11111/21/111}
 Group   2 Type C   : 12s5p4d2f1g contracted to 6s4p3d1f1g pattern {711111/2111/211/2/1}
 Group   3 Type N   : 12s5p4d2f1g contracted to 6s4p3d1f1g pattern {711111/2111/211/2/1}
 Group   4 Type H   : 5s2p1d contracted to 3s1p1d pattern {311/2/1}
 Group   5 Type S   : 14s5p5d2f1g contracted to 8s4p3d1f1g pattern {71111111/2111/311/2/1}
 Group   6 Type O   : 12s5p4d2f1g contracted to 6s4p3d1f1g pattern {711111/2111/211/2/1}

Atom   0Ir   basis set group =>   1
Atom   1C    basis set group =>   2
Atom   2C    basis set group =>   2
Atom   3C    basis set group =>   2
Atom   4C    basis set group =>   2
Atom   5C    basis set group =>   2
Atom   6N    basis set group =>   3
Atom   7C    basis set group =>   2
Atom   8C    basis set group =>   2
Atom   9H    basis set group =>   4
Atom  10H    basis set group =>   4
Atom  11H    basis set group =>   4
Atom  12C    basis set group =>   2
Atom  13H    basis set group =>   4
Atom  14H    basis set group =>   4
Atom  15H    basis set group =>   4
Atom  16H    basis set group =>   4
Atom  17C    basis set group =>   2
Atom  18C    basis set group =>   2
Atom  19H    basis set group =>   4
Atom  20C    basis set group =>   2
Atom  21C    basis set group =>   2
Atom  22S    basis set group =>   5
Atom  23C    basis set group =>   2
Atom  24H    basis set group =>   4
Atom  25H    basis set group =>   4
Atom  26H    basis set group =>   4
Atom  27H    basis set group =>   4
Atom  28H    basis set group =>   4
Atom  29H    basis set group =>   4
Atom  30O    basis set group =>   6
Atom  31O    basis set group =>   6
Atom  32C    basis set group =>   2
Atom  33C    basis set group =>   2
Atom  34H    basis set group =>   4
Atom  35H    basis set group =>   4
Atom  36H    basis set group =>   4
Atom  37H    basis set group =>   4
Atom  38H    basis set group =>   4
-------------------------
ECP PARAMETER INFORMATION
-------------------------

 Group 1, Type Ir ECP Def2-ECP (replacing 60 core electrons, lmax=3)

Atom   0Ir   ECP group =>   1

------------------------------------------------------------------------------
                           ORCA GTO INTEGRAL CALCULATION
                           -- RI-GTO INTEGRALS CHOSEN --
------------------------------------------------------------------------------
------------------------------------------------------------------------------
                   ___                                                        
                  /   \      - P O W E R E D   B Y -                         
                 /     \                                                     
                 |  |  |   _    _      __       _____    __    __             
                 |  |  |  | |  | |    /  \     |  _  \  |  |  /  |          
                  \  \/   | |  | |   /    \    | | | |  |  | /  /          
                 / \  \   | |__| |  /  /\  \   | |_| |  |  |/  /          
                |  |  |   |  __  | /  /__\  \  |    /   |      \           
                |  |  |   | |  | | |   __   |  |    \   |  |\   \          
                \     /   | |  | | |  |  |  |  | |\  \  |  | \   \       
                 \___/    |_|  |_| |__|  |__|  |_| \__\ |__|  \__/        
                                                                              
                      - O R C A' S   B I G   F R I E N D -                    
                                      &                                       
                       - I N T E G R A L  F E E D E R -                       
                                                                              
 v1 FN, 2020, v2 2021                                                         
------------------------------------------------------------------------------


Reading SHARK input file reaction4-IEIP_ts_guess_scan_2-12_orca.SHARKINP.tmp ... ok
----------------------
SHARK INTEGRAL PACKAGE
----------------------

Number of atoms                             ...     39
Number of basis functions                   ...    358
Number of shells                            ...    184
Maximum angular momentum                    ...      3
Integral batch strategy                     ... SHARK/LIBINT Hybrid
RI-J (if used) integral strategy            ... SPLIT-RIJ (Revised 2003 algorithm where possible)
Printlevel                                  ...      1
Contraction scheme used                     ... SEGMENTED contraction
Coulomb Range Separation                    ... NOT USED
Exchange Range Separation                   ... NOT USED
Finite Nucleus Model                        ... NOT USED
Auxiliary Coulomb fitting basis             ... AVAILABLE
   # of basis functions in Aux-J            ...   1231
   # of shells in Aux-J                     ...    405
   Maximum angular momentum in Aux-J        ...      4
Auxiliary J/K fitting basis                 ... NOT available
Auxiliary Correlation fitting basis         ... NOT available
Auxiliary 'external' fitting basis          ... NOT available
Integral threshold                          ...     2.500000e-11
Primitive cut-off                           ...     2.500000e-12
Primitive pair pre-selection threshold      ...     2.500000e-12

Calculating pre-screening integrals         ... done (  0.1 sec) Dimension = 184
Organizing shell pair data                  ... done (  0.1 sec)
Shell pair information
Total number of shell pairs                 ...     17020
Shell pairs after pre-screening             ...     12947
Total number of primitive shell pairs       ...     60705
Primitive shell pairs kept                  ...     29092
          la=0 lb=0:   4961 shell pairs
          la=1 lb=0:   4246 shell pairs
          la=1 lb=1:    856 shell pairs
          la=2 lb=0:   1743 shell pairs
          la=2 lb=1:    786 shell pairs
          la=2 lb=2:    179 shell pairs
          la=3 lb=0:    112 shell pairs
          la=3 lb=1:     42 shell pairs
          la=3 lb=2:     21 shell pairs
          la=3 lb=3:      1 shell pairs

Calculating one electron integrals          ... done (  0.1 sec)
Calculating ECP integrals                   ... done (  0.7 sec)
Calculating RI/J V-Matrix + Cholesky decomp.... done (  0.1 sec)
Calculating Nuclear repulsion               ... done (  0.0 sec) ENN=   2033.955293127176 Eh

SHARK setup successfully completed in   1.3 seconds

Maximum memory used throughout the entire GTOINT-calculation: 90.7 MB
-------------------------------------------------------------------------------
                                 ORCA SCF
-------------------------------------------------------------------------------

------------
SCF SETTINGS
------------
Hamiltonian:
 Density Functional     Method          .... DFT(GTOs)
 Exchange Functional    Exchange        .... PBE
   PBE kappa parameter   XKappa         ....  1.024500
   PBE mue parameter    XMuePBE         ....  0.123457
 Correlation Functional Correlation     .... PBE
   PBE beta parameter  CBetaPBE         ....  0.030000
 LDA part of GGA corr.  LDAOpt          .... PW91-LDA
 Gradients option       PostSCFGGA      .... off
 Hybrid DFT is turned on
   Fraction HF Exchange ScalHFX         ....  0.420000
   Scaling of DF-GGA-X  ScalDFX         ....  0.580000
   Scaling of DF-GGA-C  ScalDFC         ....  1.000000
   Scaling of DF-LDA-C  ScalLDAC        ....  1.000000
   Perturbative correction              ....  0.000000
   Density functional embedding theory  .... OFF
 RI-approximation to the Coulomb term is turned on
   Number of AuxJ basis functions       .... 1231
   RIJ-ON(X) (HFX calculated with O(N)) .... on
   Number of AuxJ basis functions       .... 1231
   RIJ-COSX (HFX calculated with COS-X)).... on


General Settings:
 Integral files         IntName         .... reaction4-IEIP_ts_guess_scan_2-12_orca
 Hartree-Fock type      HFTyp           .... RHF
 Total Charge           Charge          ....    1
 Multiplicity           Mult            ....    1
 Number of Electrons    NEL             ....  164
 Basis Dimension        Dim             ....  358
 Nuclear Repulsion      ENuc            ....   2033.9552931272 Eh

Convergence Acceleration:
 DIIS                   CNVDIIS         .... on
   Start iteration      DIISMaxIt       ....    12
   Startup error        DIISStart       ....  0.200000
   # of expansion vecs  DIISMaxEq       ....     5
   Bias factor          DIISBfac        ....   1.050
   Max. coefficient     DIISMaxC        ....  10.000
 Trust-Rad. Augm. Hess. CNVTRAH         .... auto
   Auto Start mean grad. ratio tolernc. ....  1.125000
   Auto Start start iteration           ....    20
   Auto Start num. interpolation iter.  ....    10
   Max. Number of Micro iterations      ....    16
   Max. Number of Macro iterations      .... Maxiter - #DIIS iter
   Number of Davidson start vectors     ....     2
   Converg. threshold I  (grad. norm)   ....   1.000e-05
   Converg. threshold II (energy diff.) ....   1.000e-08
   Grad. Scal. Fac. for Micro threshold ....   0.100
   Minimum threshold for Micro iter.    ....   0.010
   NR start threshold (gradient norm)   ....   0.001
   Initial trust radius                 ....   0.400
   Minimum AH scaling param. (alpha)    ....   1.000
   Maximum AH scaling param. (alpha)    .... 1000.000
   Orbital update algorithm             .... Taylor
   White noise on init. David. guess    .... on
   Maximum white noise                  ....   0.010
   Quad. conv. algorithm                .... NR
   COSX micro iterations for RIJONX calc.... off
 SOSCF                  CNVSOSCF        .... off
 Level Shifting         CNVShift        .... on
   Level shift para.    LevelShift      ....    0.2500
   Turn off err/grad.   ShiftErr        ....    0.0010
 Zerner damping         CNVZerner       .... off
 Static damping         CNVDamp         .... on
   Fraction old density DampFac         ....    0.7000
   Max. Damping (<1)    DampMax         ....    0.9800
   Min. Damping (>=0)   DampMin         ....    0.0000
   Turn off err/grad.   DampErr         ....    0.1000
 Fernandez-Rico         CNVRico         .... off

SCF Procedure:
 Maximum # iterations   MaxIter         ....   250
 SCF integral mode      SCFMode         .... Direct
   Integral package                     .... SHARK and LIBINT hybrid scheme
 Reset frequency        DirectResetFreq ....    20
 Integral Threshold     Thresh          ....  2.500e-11 Eh
 Primitive CutOff       TCut            ....  2.500e-12 Eh

Convergence Tolerance:
 Convergence Check Mode ConvCheckMode   .... Total+1el-Energy
 Convergence forced     ConvForced      .... 0
 Energy Change          TolE            ....  1.000e-08 Eh
 1-El. energy change                    ....  1.000e-05 Eh
 DIIS Error             TolErr          ....  5.000e-07


Diagonalization of the overlap matrix:
Smallest eigenvalue                        ... 1.137e-03
Time for diagonalization                   ...    0.016 sec
Threshold for overlap eigenvalues          ... 1.000e-08
Number of eigenvalues below threshold      ... 0
Time for construction of square roots      ...    0.006 sec
Total time needed                          ...    0.022 sec

--------------------
INITIAL GUESS: HCORE
--------------------
                      -----------------
                      INTIAL GUESS DONE 
                      -----------------
-------------------
DFT GRID GENERATION
-------------------

General Integration Accuracy     IntAcc      ... 4.159
Radial Grid Type                 RadialGrid  ... OptM3 with GC (2021)
Angular Grid (max. ang.)         AngularGrid ... 3 (Lebedev-194)
Angular grid pruning method      GridPruning ... 4 (adaptive)
Weight generation scheme         WeightScheme... Becke
Basis function cutoff            BFCut       ... 1.0000e-11
Integration weight cutoff        WCut        ... 1.0000e-14
Angular grids for H and He will be reduced by one unit
Partially contracted basis set               ... off
Rotationally invariant grid construction     ... off

Total number of grid points                  ...    93321
Total number of batches                      ...     1482
Average number of points per batch           ...       62
Average number of grid points per atom       ...     2393
Time for grid setup =    1.657 sec

--------------------
COSX GRID GENERATION
--------------------

GRIDX 1
-------
General Integration Accuracy     IntAcc      ... 3.816
Radial Grid Type                 RadialGrid  ... OptM3 with GC (2021)
Angular Grid (max. ang.)         AngularGrid ... 1 (Lebedev-50)
Angular grid pruning method      GridPruning ... 4 (adaptive)
Weight generation scheme         WeightScheme... Becke
Basis function cutoff            BFCut       ... 1.0000e-11
Integration weight cutoff        WCut        ... 1.0000e-14
Angular grids for H and He will be reduced by one unit
Partially contracted basis set               ... on
Rotationally invariant grid construction     ... off

Total number of grid points                  ...    23176
Total number of batches                      ...      382
Average number of points per batch           ...       60
Average number of grid points per atom       ...      594
UseSFitting                                  ... on

GRIDX 2
-------
General Integration Accuracy     IntAcc      ... 4.020
Radial Grid Type                 RadialGrid  ... OptM3 with GC (2021)
Angular Grid (max. ang.)         AngularGrid ... 2 (Lebedev-110)
Angular grid pruning method      GridPruning ... 4 (adaptive)
Weight generation scheme         WeightScheme... Becke
Basis function cutoff            BFCut       ... 1.0000e-11
Integration weight cutoff        WCut        ... 1.0000e-14
Angular grids for H and He will be reduced by one unit
Partially contracted basis set               ... on
Rotationally invariant grid construction     ... off

Total number of grid points                  ...    50328
Total number of batches                      ...      807
Average number of points per batch           ...       62
Average number of grid points per atom       ...     1290
UseSFitting                                  ... on

GRIDX 3
-------
General Integration Accuracy     IntAcc      ... 4.338
Radial Grid Type                 RadialGrid  ... OptM3 with GC (2021)
Angular Grid (max. ang.)         AngularGrid ... 3 (Lebedev-194)
Angular grid pruning method      GridPruning ... 4 (adaptive)
Weight generation scheme         WeightScheme... Becke
Basis function cutoff            BFCut       ... 1.0000e-11
Integration weight cutoff        WCut        ... 1.0000e-14
Angular grids for H and He will be reduced by one unit
Partially contracted basis set               ... on
Rotationally invariant grid construction     ... off

Total number of grid points                  ...   108829
Total number of batches                      ...     1723
Average number of points per batch           ...       63
Average number of grid points per atom       ...     2790
UseSFitting                                  ... on

Time for X-Grid setup             =    4.450 sec

--------------
SCF ITERATIONS
--------------
ITER       Energy         Delta-E        Max-DP      RMS-DP      [F,P]     Damp
               ***  Starting incremental Fock matrix formation  ***
  0   -871.4019246938   0.00000000000019.67855024  0.14926832  2.7405768 0.7000
  1  -1101.5276944297-230.125769735952 8.99439591  0.11365761  1.4878859 0.7000
  2  -1167.6197475758 -66.092053146037 5.37581415  0.06420575  1.0239763 0.7000
  3  -1193.0657909339 -25.446043358121 3.73007374  0.04487026  0.7276642 0.7000
  4  -1210.3235231646 -17.257732230688 2.63604406  0.03539589  0.4479977 0.7000
  5  -1225.7771307972 -15.453607632650 2.17162457  0.03046003  0.3374570 0.7000
  6  -1235.5535163974  -9.776385600166 1.81069415  0.02961416  0.3280965 0.7000
  7  -1242.3948988491  -6.841382451680 1.64471464  0.02646759  0.3286761 0.7000
  8  -1246.4605352732  -4.065636424102 1.61826704  0.02589697  0.3891289 0.7000
  9  -1250.6209939347  -4.160458661553 1.46940510  0.02431229  0.3439507 0.7000
 10  -1254.0943976200  -3.473403685294 1.55187090  0.02600198  0.3669969 0.7000
 11  -1255.5850080156  -1.490610395608 1.49440650  0.02309034  0.3221978 0.7000
                               ***Turning on DIIS***
 12  -1259.0838226072  -3.498814591526 1.46908617  0.02369370  0.3340688 0.7000
 13  -1259.4487374626  -0.364914855455 1.36735163  0.01927427  0.2940559 0.7000
 14  -1268.4330949473  -8.984357484715 0.95354758  0.01365473  0.2180593 0.7000
 15  -1274.7232206144  -6.290125667039 0.66486456  0.00965140  0.1696757 0.7000
 16  -1279.0325487544  -4.309328140040 0.46291007  0.00680740  0.1118252 0.7000
 17  -1281.9415107862  -2.908962031758 1.07117498  0.01597110  0.0711918 0.0000
 18  -1288.4199630831  -6.478452296890 0.03455040  0.00052874  0.0203313 0.0000
 19  -1288.4317835331  -0.011820450020 0.02892397  0.00038475  0.0141250 0.0000
               *** Restarting incremental Fock matrix formation ***
                                   *** Resetting DIIS ***
 20  -1288.4353553742  -0.003571841113 0.03852120  0.00053348  0.0162356 0.0000
 21  -1288.4362831366  -0.000927762384 0.01927787  0.00021982  0.0224029 0.0000
 22  -1288.4387102776  -0.002427141046 0.00301812  0.00007222  0.0028651 0.0000
 23  -1288.4388786522  -0.000168374555 0.00255225  0.00003657  0.0019962 0.0000
 24  -1288.4389165473  -0.000037895140 0.00187683  0.00003126  0.0004681 0.0000
               *** Restarting incremental Fock matrix formation ***
                                   *** Resetting DIIS ***
 25  -1288.4400775831  -0.001161035788 0.00470889  0.00008380  0.0007001 0.0000
 26  -1288.4400941244  -0.000016541281 0.00170375  0.00001586  0.0006337 0.0000
 27  -1288.4400936540   0.000000470370 0.00091599  0.00000917  0.0007947 0.0000
 28  -1288.4400970041  -0.000003350077 0.00026284  0.00000312  0.0001456 0.0000
 29  -1288.4400971864  -0.000000182342 0.00015420  0.00000150  0.0000771 0.0000
 30  -1288.4400972437  -0.000000057235 0.00006838  0.00000067  0.0000242 0.0000
 31  -1288.4400972616  -0.000000017941 0.00002917  0.00000040  0.0000120 0.0000
 32  -1288.4400972638  -0.000000002183 0.00002171  0.00000026  0.0000065 0.0000
 33  -1288.4400972601   0.000000003670 0.00001007  0.00000012  0.0000027 0.0000
 34  -1288.4400972631  -0.000000002937 0.00000341  0.00000005  0.0000017 0.0000
                            ***DIIS convergence achieved***

               *****************************************************
               *                     SUCCESS                       *
               *           SCF CONVERGED AFTER  35 CYCLES          *
               *****************************************************

Old exchange energy                            =    -59.658589139 Eh
New exchange energy                            =    -59.658549738 Eh
Exchange energy change after final integration =      0.000039401 Eh
Total energy after final integration           =  -1288.440057857 Eh
Final COS-X integration done in                =    68.385 sec

----------------
TOTAL SCF ENERGY
----------------

Total Energy       :        -1288.44005786 Eh          -35060.23640 eV

Components:
Nuclear Repulsion  :         2033.95529313 Eh           55346.73730 eV
Electronic Energy  :        -3322.39535098 Eh          -90406.97370 eV
One Electron Energy:        -5823.43448430 Eh         -158463.70846 eV
Two Electron Energy:         2501.03913332 Eh           68056.73476 eV
Max COSX asymmetry :            0.00001758 Eh               0.00048 eV

Virial components:
Potential Energy   :        -2501.57715183 Eh          -68071.37498 eV
Kinetic Energy     :         1213.13709397 Eh           33011.13858 eV
Virial Ratio       :            2.06207292


DFT components:
N(Alpha)           :       82.000343187035 electrons
N(Beta)            :       82.000343187035 electrons
N(Total)           :      164.000686374071 electrons
E(X)               :      -79.593432004835 Eh       
E(C)               :       -7.454356306665 Eh       
E(XC)              :      -87.047788311500 Eh       
DFET-embed. en.    :        0.000000000000 Eh       

---------------
SCF CONVERGENCE
---------------

  Last Energy change         ...    4.4690e-09  Tolerance :   1.0000e-08
  Last MAX-Density change    ...    0.0000e+00  Tolerance :   1.0000e-07
  Last RMS-Density change    ...    0.0000e+00  Tolerance :   5.0000e-09
  Last DIIS Error            ...    7.2230e-07  Tolerance :   5.0000e-07

             **** THE GBW FILE WAS UPDATED (reaction4-IEIP_ts_guess_scan_2-12_orca.gbw) ****
             **** DENSITY reaction4-IEIP_ts_guess_scan_2-12_orca.scfp WAS UPDATED ****
             **** ENERGY FILE WAS UPDATED (reaction4-IEIP_ts_guess_scan_2-12_orca.en.tmp) ****
             **** THE GBW FILE WAS UPDATED (reaction4-IEIP_ts_guess_scan_2-12_orca.gbw) ****
             **** DENSITY reaction4-IEIP_ts_guess_scan_2-12_orca.scfp WAS UPDATED ****
----------------
ORBITAL ENERGIES
----------------

  NO   OCC          E(Eh)            E(eV) 
   0   2.0000     -89.756303     -2442.3932 
   1   2.0000     -19.628604      -534.1215 
   2   2.0000     -19.597440      -533.2735 
   3   2.0000     -14.837909      -403.7600 
   4   2.0000     -10.687908      -290.8328 
   5   2.0000     -10.658989      -290.0458 
   6   2.0000     -10.637029      -289.4483 
   7   2.0000     -10.634282      -289.3735 
   8   2.0000     -10.633417      -289.3500 
   9   2.0000     -10.631908      -289.3089 
  10   2.0000     -10.631455      -289.2966 
  11   2.0000     -10.624833      -289.1164 
  12   2.0000     -10.615689      -288.8676 
  13   2.0000     -10.605884      -288.6008 
  14   2.0000     -10.578946      -287.8678 
  15   2.0000     -10.576070      -287.7895 
  16   2.0000     -10.556732      -287.2633 
  17   2.0000     -10.551648      -287.1249 
  18   2.0000     -10.537027      -286.7271 
  19   2.0000      -8.395688      -228.4583 
  20   2.0000      -6.285737      -171.0436 
  21   2.0000      -6.282134      -170.9455 
  22   2.0000      -6.280438      -170.8994 
  23   2.0000      -4.030148      -109.6659 
  24   2.0000      -2.349515       -63.9335 
  25   2.0000      -2.315310       -63.0028 
  26   2.0000      -2.313210       -62.9456 
  27   2.0000      -1.315894       -35.8073 
  28   2.0000      -1.218417       -33.1548 
  29   2.0000      -1.210997       -32.9529 
  30   2.0000      -1.173758       -31.9396 
  31   2.0000      -1.120878       -30.5006 
  32   2.0000      -1.025158       -27.8960 
  33   2.0000      -0.988674       -26.9032 
  34   2.0000      -0.978680       -26.6312 
  35   2.0000      -0.961179       -26.1550 
  36   2.0000      -0.955107       -25.9898 
  37   2.0000      -0.932368       -25.3710 
  38   2.0000      -0.902654       -24.5625 
  39   2.0000      -0.871042       -23.7023 
  40   2.0000      -0.796292       -21.6682 
  41   2.0000      -0.789600       -21.4861 
  42   2.0000      -0.788025       -21.4432 
  43   2.0000      -0.778520       -21.1846 
  44   2.0000      -0.772335       -21.0163 
  45   2.0000      -0.762543       -20.7498 
  46   2.0000      -0.743333       -20.2271 
  47   2.0000      -0.723797       -19.6955 
  48   2.0000      -0.693437       -18.8694 
  49   2.0000      -0.676158       -18.3992 
  50   2.0000      -0.664115       -18.0715 
  51   2.0000      -0.653511       -17.7829 
  52   2.0000      -0.649871       -17.6839 
  53   2.0000      -0.640884       -17.4394 
  54   2.0000      -0.639851       -17.4112 
  55   2.0000      -0.634266       -17.2593 
  56   2.0000      -0.623275       -16.9602 
  57   2.0000      -0.610412       -16.6102 
  58   2.0000      -0.609304       -16.5800 
  59   2.0000      -0.607518       -16.5314 
  60   2.0000      -0.595273       -16.1982 
  61   2.0000      -0.586484       -15.9590 
  62   2.0000      -0.574601       -15.6357 
  63   2.0000      -0.568104       -15.4589 
  64   2.0000      -0.562246       -15.2995 
  65   2.0000      -0.557360       -15.1665 
  66   2.0000      -0.552901       -15.0452 
  67   2.0000      -0.548591       -14.9279 
  68   2.0000      -0.540231       -14.7004 
  69   2.0000      -0.534286       -14.5387 
  70   2.0000      -0.527615       -14.3571 
  71   2.0000      -0.520612       -14.1666 
  72   2.0000      -0.516231       -14.0473 
  73   2.0000      -0.507840       -13.8190 
  74   2.0000      -0.493536       -13.4298 
  75   2.0000      -0.480502       -13.0751 
  76   2.0000      -0.463518       -12.6130 
  77   2.0000      -0.451794       -12.2939 
  78   2.0000      -0.443184       -12.0597 
  79   2.0000      -0.420263       -11.4359 
  80   2.0000      -0.416460       -11.3324 
  81   2.0000      -0.401756       -10.9323 
  82   0.0000      -0.198752        -5.4083 
  83   0.0000      -0.163412        -4.4467 
  84   0.0000      -0.140832        -3.8322 
  85   0.0000      -0.094803        -2.5797 
  86   0.0000      -0.075029        -2.0416 
  87   0.0000      -0.067850        -1.8463 
  88   0.0000      -0.058341        -1.5875 
  89   0.0000      -0.055154        -1.5008 
  90   0.0000      -0.042961        -1.1690 
  91   0.0000      -0.035184        -0.9574 
  92   0.0000      -0.004638        -0.1262 
  93   0.0000      -0.003128        -0.0851 
  94   0.0000       0.011350         0.3088 
  95   0.0000       0.021067         0.5733 
  96   0.0000       0.028426         0.7735 
  97   0.0000       0.037191         1.0120 
  98   0.0000       0.044295         1.2053 
  99   0.0000       0.057321         1.5598 
 100   0.0000       0.069143         1.8815 
 101   0.0000       0.071751         1.9524 
 102   0.0000       0.074250         2.0204 
 103   0.0000       0.078303         2.1307 
 104   0.0000       0.082629         2.2485 
 105   0.0000       0.089166         2.4263 
 106   0.0000       0.094188         2.5630 
 107   0.0000       0.100667         2.7393 
 108   0.0000       0.106988         2.9113 
 109   0.0000       0.112617         3.0645 
 110   0.0000       0.115322         3.1381 
 111   0.0000       0.120188         3.2705 
 112   0.0000       0.123416         3.3583 
 113   0.0000       0.125654         3.4192 
 114   0.0000       0.129985         3.5371 
 115   0.0000       0.136023         3.7014 
 116   0.0000       0.141935         3.8623 
 117   0.0000       0.154293         4.1985 
 118   0.0000       0.156791         4.2665 
 119   0.0000       0.157955         4.2982 
 120   0.0000       0.168118         4.5747 
 121   0.0000       0.180356         4.9077 
 122   0.0000       0.190405         5.1812 
 123   0.0000       0.201350         5.4790 
 124   0.0000       0.226861         6.1732 
 125   0.0000       0.232883         6.3371 
 126   0.0000       0.259556         7.0629 
 127   0.0000       0.269672         7.3382 
 128   0.0000       0.280557         7.6344 
 129   0.0000       0.294110         8.0031 
 130   0.0000       0.302060         8.2195 
 131   0.0000       0.311160         8.4671 
 132   0.0000       0.322567         8.7775 
 133   0.0000       0.339381         9.2350 
 134   0.0000       0.343402         9.3445 
 135   0.0000       0.356133         9.6909 
 136   0.0000       0.361868         9.8469 
 137   0.0000       0.374140        10.1809 
 138   0.0000       0.382798        10.4165 
 139   0.0000       0.397982        10.8296 
 140   0.0000       0.402605        10.9554 
 141   0.0000       0.418788        11.3958 
 142   0.0000       0.422324        11.4920 
 143   0.0000       0.437065        11.8931 
 144   0.0000       0.443886        12.0788 
 145   0.0000       0.449664        12.2360 
 146   0.0000       0.457590        12.4517 
 147   0.0000       0.459348        12.4995 
 148   0.0000       0.466835        12.7032 
 149   0.0000       0.480753        13.0820 
 150   0.0000       0.485846        13.2205 
 151   0.0000       0.488199        13.2846 
 152   0.0000       0.492444        13.4001 
 153   0.0000       0.499990        13.6054 
 154   0.0000       0.509428        13.8622 
 155   0.0000       0.516793        14.0627 
 156   0.0000       0.528912        14.3924 
[...]

----------------------
LOEWDIN ATOMIC CHARGES
----------------------
   0 Ir:   -0.216107
   1 C :   -0.042686
   2 C :   -0.063985
   3 C :   -0.055293
   4 C :   -0.049310
   5 C :   -0.023422
   6 N :   -0.015265
   7 C :   -0.068816
   8 C :   -0.363637
   9 H :    0.156511
  10 H :    0.133470
  11 H :    0.146050
  12 C :   -0.343881
  13 H :    0.154919
  14 H :    0.152392
  15 H :    0.137436
  16 H :    0.132502
  17 C :    0.035989
  18 C :   -0.199670
  19 H :    0.160612
  20 C :   -0.203025
  21 C :   -0.146070
  22 S :    0.462235
  23 C :   -0.260549
  24 H :    0.310406
  25 H :    0.159629
  26 H :    0.166877
  27 H :    0.185448
  28 H :    0.185560
  29 H :    0.193007
  30 O :   -0.274350
  31 O :   -0.197993
  32 C :    0.164200
  33 C :   -0.374102
  34 H :    0.161597
  35 H :    0.169367
  36 H :    0.154629
  37 H :    0.187533
  38 H :    0.187794

-------------------------------
LOEWDIN REDUCED ORBITAL CHARGES
-------------------------------
  0 Irs       :     2.455171  s :     2.455171
      pz      :     2.238741  p :     6.744569
      px      :     2.237653
      py      :     2.268176
      dz2     :     1.835916  d :     7.927769
      dxz     :     1.720959
      dyz     :     1.287804
      dx2y2   :     1.644704
      dxy     :     1.438386
      f0      :     0.011154  f :     0.088598
      f+1     :     0.003309
      f-1     :     0.012975
      f+2     :     0.016869
      f-2     :     0.016359
      f+3     :     0.011371
      f-3     :     0.016561
  1 C s       :     2.875012  s :     2.875012
      pz      :     1.048875  p :     3.063362
      px      :     1.086220
      py      :     0.928267
      dz2     :     0.026298  d :     0.104312
      dxz     :     0.026825
      dyz     :     0.017211
      dx2y2   :     0.018701
      dxy     :     0.015277
  2 C s       :     2.874276  s :     2.874276
      pz      :     1.043408  p :     3.087169
      px      :     1.078136
      py      :     0.965625
      dz2     :     0.025350  d :     0.102540
      dxz     :     0.028019
      dyz     :     0.017633
      dx2y2   :     0.018356
      dxy     :     0.013182
  3 C s       :     2.875017  s :     2.875017
      pz      :     1.033376  p :     3.078684
      px      :     1.079783
      py      :     0.965525
      dz2     :     0.023800  d :     0.101591
      dxz     :     0.032200
      dyz     :     0.015938
      dx2y2   :     0.015341
      dxy     :     0.014312
  4 C s       :     2.874712  s :     2.874712
      pz      :     1.091160  p :     3.071992
      px      :     1.036768
      py      :     0.944064
      dz2     :     0.022606  d :     0.102606
      dxz     :     0.031430
      dyz     :     0.012918
      dx2y2   :     0.017993
      dxy     :     0.017659
  5 C s       :     2.877718  s :     2.877718
      pz      :     1.062577  p :     3.041351
      px      :     1.033733
      py      :     0.945042
      dz2     :     0.024578  d :     0.104353
      dxz     :     0.030602
      dyz     :     0.015601
      dx2y2   :     0.015624
      dxy     :     0.017948
  6 N s       :     3.122004  s :     3.122004
      pz      :     1.267789  p :     3.795761
      px      :     1.290926
      py      :     1.237046
      dz2     :     0.030056  d :     0.097500
      dxz     :     0.027560
      dyz     :     0.018424
      dx2y2   :     0.011544
      dxy     :     0.009916
  7 C s       :     2.862512  s :     2.862512
      pz      :     1.063330  p :     3.072085
      px      :     0.934188
      py      :     1.074567
      dz2     :     0.025495  d :     0.134219
      dxz     :     0.027627
      dyz     :     0.018028
      dx2y2   :     0.029894
      dxy     :     0.033175
  8 C s       :     2.953355  s :     2.953355
      pz      :     1.131434  p :     3.342810
      px      :     1.124905
      py      :     1.086471
      dz2     :     0.012807  d :     0.067473
      dxz     :     0.017446
      dyz     :     0.009421
      dx2y2   :     0.009203
      dxy     :     0.018596
  9 H s       :     0.843489  s :     0.843489
 10 H s       :     0.866530  s :     0.866530
 11 H s       :     0.853950  s :     0.853950
 12 C s       :     2.953065  s :     2.953065
      pz      :     1.141174  p :     3.322842
      px      :     1.110896
      py      :     1.070772
      dz2     :     0.011312  d :     0.067975
      dxz     :     0.012956
      dyz     :     0.014461
      dx2y2   :     0.011593
      dxy     :     0.017653
 13 H s       :     0.845081  s :     0.845081
 14 H s       :     0.847608  s :     0.847608
 15 H s       :     0.862564  s :     0.862564
 16 H s       :     0.867498  s :     0.867498
 17 C s       :     2.878221  s :     2.878221
      pz      :     1.020058  p :     2.944858
      px      :     1.068850
      py      :     0.855950
      dz2     :     0.040182  d :     0.140931
      dxz     :     0.051566
      dyz     :     0.024852
      dx2y2   :     0.011617
      dxy     :     0.012714
 18 C s       :     2.895163  s :     2.895163
      pz      :     1.042972  p :     3.192687
      px      :     1.089815
      py      :     1.059901
      dz2     :     0.032283  d :     0.111820
      dxz     :     0.030595
      dyz     :     0.016598
      dx2y2   :     0.019822
      dxy     :     0.012521
 19 H s       :     0.839388  s :     0.839388
 20 C s       :     2.930785  s :     2.930785
      pz      :     1.120209  p :     3.184438
      px      :     1.048177
      py      :     1.016053
      dz2     :     0.010752  d :     0.087802
      dxz     :     0.034147
      dyz     :     0.008564
      dx2y2   :     0.016404
      dxy     :     0.017934
 21 C s       :     2.898969  s :     2.898969
      pz      :     1.071227  p :     3.152601
      px      :     1.091063
      py      :     0.990311
      dz2     :     0.026204  d :     0.094500
      dxz     :     0.029408
      dyz     :     0.014255
      dx2y2   :     0.015771
      dxy     :     0.008862
 22 S s       :     5.505249  s :     5.505249
      pz      :     3.269411  p :     9.879980
      px      :     3.088414
      py      :     3.522155
      dz2     :     0.044020  d :     0.152536
      dxz     :     0.030574
      dyz     :     0.021593
      dx2y2   :     0.031869
      dxy     :     0.024480
 23 C s       :     2.965858  s :     2.965858
      pz      :     1.119529  p :     3.208605
      px      :     1.023066
      py      :     1.066010
      dz2     :     0.022185  d :     0.086085
      dxz     :     0.027871
      dyz     :     0.012022
      dx2y2   :     0.013385
      dxy     :     0.010622
 24 H s       :     0.689594  s :     0.689594
 25 H s       :     0.840371  s :     0.840371
 26 H s       :     0.833123  s :     0.833123
 27 H s       :     0.814552  s :     0.814552
 28 H s       :     0.814440  s :     0.814440
 29 H s       :     0.806993  s :     0.806993
 30 O s       :     3.504356  s :     3.504356
      pz      :     1.450585  p :     4.714974
      px      :     1.547686
      py      :     1.716703
      dz2     :     0.017142  d :     0.055020
      dxz     :     0.013220
      dyz     :     0.016566
      dx2y2   :     0.004696
      dxy     :     0.003396
 31 O s       :     3.443064  s :     3.443064
      pz      :     1.696488  p :     4.695397
      px      :     1.614633
      py      :     1.384275
      dz2     :     0.009217  d :     0.059533
      dxz     :     0.003877
      dyz     :     0.016385
      dx2y2   :     0.015164
      dxy     :     0.014890
 32 C s       :     2.812532  s :     2.812532
      pz      :     0.990760  p :     2.701915
      px      :     0.756301
      py      :     0.954854
      dz2     :     0.074713  d :     0.321353
      dxz     :     0.047099
      dyz     :     0.105485
      dx2y2   :     0.045714
      dxy     :     0.048341
 33 C s       :     2.958996  s :     2.958996
      pz      :     1.098900  p :     3.352430
      px      :     1.151022
      py      :     1.102507
      dz2     :     0.004985  d :     0.062676
      dxz     :     0.017130
      dyz     :     0.020119
      dx2y2   :     0.018292
      dxy     :     0.002150
 34 H s       :     0.838403  s :     0.838403
 35 H s       :     0.830633  s :     0.830633
 36 H s       :     0.845371  s :     0.845371
 37 H s       :     0.812467  s :     0.812467
 38 H s       :     0.812206  s :     0.812206


                      *****************************
                      * MAYER POPULATION ANALYSIS *
                      *****************************

  NA   - Mulliken gross atomic population
  ZA   - Total nuclear charge
  QA   - Mulliken gross atomic charge
  VA   - Mayer's total valence
  BVA  - Mayer's bonded valence
  FA   - Mayer's free valence

  ATOM       NA         ZA         QA         VA         BVA        FA
  0 Ir    16.3826    17.0000     0.6174     3.7554     3.7554     0.0000
  1 C      6.2127     6.0000    -0.2127     3.6985     3.6985    -0.0000
  2 C      6.2933     6.0000    -0.2933     3.7413     3.7413    -0.0000
  3 C      6.2359     6.0000    -0.2359     3.7318     3.7318     0.0000
  4 C      6.2409     6.0000    -0.2409     3.7236     3.7236     0.0000
  5 C      6.1670     6.0000    -0.1670     3.6912     3.6912     0.0000
  6 N      7.4382     7.0000    -0.4382     3.2149     3.2149    -0.0000
  7 C      6.1231     6.0000    -0.1231     3.7028     3.7028     0.0000
  8 C      6.6884     6.0000    -0.6884     3.6876     3.6876     0.0000
  9 H      0.7295     1.0000     0.2705     0.8970     0.8970    -0.0000
 10 H      0.7743     1.0000     0.2257     0.9100     0.9100    -0.0000
 11 H      0.7410     1.0000     0.2590     0.8983     0.8983     0.0000
 12 C      6.6362     6.0000    -0.6362     3.6737     3.6737    -0.0000
 13 H      0.7207     1.0000     0.2793     0.8750     0.8750    -0.0000
 14 H      0.7370     1.0000     0.2630     0.8971     0.8971     0.0000
 15 H      0.7686     1.0000     0.2314     0.9096     0.9096    -0.0000
 16 H      0.7699     1.0000     0.2301     0.9063     0.9063    -0.0000
 17 C      5.9305     6.0000     0.0695     3.6466     3.6466     0.0000
 18 C      6.1947     6.0000    -0.1947     3.7146     3.7146    -0.0000
 19 H      0.7127     1.0000     0.2873     0.8872     0.8872     0.0000
 20 C      6.4208     6.0000    -0.4208     3.4655     3.4655    -0.0000
 21 C      6.1497     6.0000    -0.1497     3.7688     3.7688    -0.0000
 22 S     15.6959    16.0000     0.3041     2.5649     2.5649    -0.0000
 23 C      6.4252     6.0000    -0.4252     3.7484     3.7484     0.0000
 24 H      0.5012     1.0000     0.4988     0.7266     0.7266    -0.0000
 25 H      0.7382     1.0000     0.2618     0.9048     0.9048     0.0000
 26 H      0.7050     1.0000     0.2950     0.8982     0.8982     0.0000
 27 H      0.7081     1.0000     0.2919     0.9019     0.9019     0.0000
 28 H      0.7077     1.0000     0.2923     0.9049     0.9049    -0.0000
 29 H      0.6944     1.0000     0.3056     0.8921     0.8921    -0.0000
 30 O      8.4935     8.0000    -0.4935     2.0988     2.0988     0.0000
 31 O      8.5326     8.0000    -0.5326     2.0865     2.0865    -0.0000
 32 C      5.3743     6.0000     0.6257     3.9034     3.9034    -0.0000
 33 C      6.7458     6.0000    -0.7458     3.6645     3.6645     0.0000
 34 H      0.7284     1.0000     0.2716     0.8943     0.8943    -0.0000
 35 H      0.7303     1.0000     0.2697     0.8939     0.8939     0.0000
 36 H      0.7435     1.0000     0.2565     0.8997     0.8997    -0.0000
 37 H      0.7055     1.0000     0.2945     0.9006     0.9006     0.0000
 38 H      0.7028     1.0000     0.2972     0.9008     0.9008    -0.0000

  Mayer bond orders larger than 0.100000
B(  0-Ir,  1-C ) :   0.4237 B(  0-Ir,  2-C ) :   0.5414 B(  0-Ir,  3-C ) :   0.4592 
B(  0-Ir,  4-C ) :   0.4563 B(  0-Ir,  5-C ) :   0.4041 B(  0-Ir,  6-N ) :   0.4712 
B(  0-Ir, 20-C ) :   0.2599 B(  0-Ir, 31-O ) :   0.5627 B(  1-C ,  2-C ) :   1.1154 
B(  1-C ,  4-C ) :   1.2410 B(  1-C , 27-H ) :   0.9032 B(  2-C ,  5-C ) :   1.1329 
B(  2-C , 28-H ) :   0.9072 B(  3-C ,  4-C ) :   1.1072 B(  3-C ,  5-C ) :   1.2330 
B(  3-C , 37-H ) :   0.9046 B(  4-C , 38-H ) :   0.9000 B(  5-C , 29-H ) :   0.8980 
B(  6-N ,  7-C ) :   0.8917 B(  6-N , 17-C ) :   1.6724 B(  7-C ,  8-C ) :   0.9918 
B(  7-C , 12-C ) :   0.9687 B(  7-C , 13-H ) :   0.8755 B(  8-C ,  9-H ) :   0.9041 
B(  8-C , 10-H ) :   0.9128 B(  8-C , 11-H ) :   0.9094 B( 12-C , 14-H ) :   0.9068 
B( 12-C , 15-H ) :   0.9155 B( 12-C , 16-H ) :   0.9125 B( 17-C , 18-C ) :   1.0788 
B( 17-C , 19-H ) :   0.8750 B( 18-C , 20-C ) :   1.3011 B( 18-C , 22-S ) :   1.2089 
B( 20-C , 21-C ) :   1.2871 B( 20-C , 24-H ) :   0.4284 B( 21-C , 23-C ) :   1.5380 
B( 21-C , 25-H ) :   0.9059 B( 22-S , 23-C ) :   1.2132 B( 23-C , 26-H ) :   0.8926 
B( 24-H , 30-O ) :   0.2651 B( 30-O , 32-C ) :   1.6374 B( 31-O , 32-C ) :   1.3122 
B( 32-C , 33-C ) :   0.9488 B( 33-C , 34-H ) :   0.9032 B( 33-C , 35-H ) :   0.8963 
B( 33-C , 36-H ) :   0.9086 


------------------
HIRSHFELD ANALYSIS
------------------

Total integrated alpha density =     82.000093679
Total integrated beta density  =     82.000093679

  ATOM     CHARGE      SPIN    
   0 Ir   0.202668    0.000000
   1 C    0.006432    0.000000
   2 C   -0.000260    0.000000
   3 C    0.001352    0.000000
   4 C    0.000398    0.000000
   5 C    0.018899    0.000000
   6 N   -0.073063    0.000000
   7 C    0.053037    0.000000
   8 C   -0.071259    0.000000
   9 H    0.053332    0.000000
  10 H    0.037865    0.000000
  11 H    0.043074    0.000000
  12 C   -0.071058    0.000000
  13 H    0.045354    0.000000
  14 H    0.051029    0.000000
  15 H    0.036804    0.000000
  16 H    0.030019    0.000000
  17 C    0.099412    0.000000
  18 C   -0.015853    0.000000
  19 H    0.076143    0.000000
  20 C   -0.077089    0.000000
  21 C   -0.037959    0.000000
  22 S    0.115830    0.000000
  23 C   -0.026756    0.000000
  24 H    0.069542    0.000000
  25 H    0.066884    0.000000
  26 H    0.076872    0.000000
  27 H    0.084192    0.000000
  28 H    0.084914    0.000000
  29 H    0.094443    0.000000
  30 O   -0.240311    0.000000
  31 O   -0.252834    0.000000
  32 C    0.248786    0.000000
  33 C   -0.065778    0.000000
  34 H    0.055995    0.000000
  35 H    0.061276    0.000000
  36 H    0.049699    0.000000
  37 H    0.086608    0.000000
  38 H    0.081174    0.000000

  TOTAL   0.999813    0.000000

-------
TIMINGS
-------

Total SCF time: 0 days 0 hours 4 min 50 sec 

Total time                  ....     290.258 sec
Sum of individual times     ....     289.727 sec  ( 99.8%)

Fock matrix formation       ....     281.576 sec  ( 97.0%)
  Split-RI-J                ....      21.809 sec  (  7.7% of F)
  Chain of spheres X        ....     243.945 sec  ( 86.6% of F)
  XC integration            ....      15.746 sec  (  5.6% of F)
    Basis function eval.    ....       7.356 sec  ( 46.7% of XC)
    Density eval.           ....       4.129 sec  ( 26.2% of XC)
    XC-Functional eval.     ....       1.162 sec  (  7.4% of XC)
    XC-Potential eval.      ....       2.519 sec  ( 16.0% of XC)
Diagonalization             ....       0.243 sec  (  0.1%)
Density matrix formation    ....       0.039 sec  (  0.0%)
Population analysis         ....       1.462 sec  (  0.5%)
Initial guess               ....       0.029 sec  (  0.0%)
Orbital Transformation      ....       0.000 sec  (  0.0%)
Orbital Orthonormalization  ....       0.022 sec  (  0.0%)
DIIS solution               ....       0.094 sec  (  0.0%)
Grid generation             ....       6.285 sec  (  2.2%)

Maximum memory used throughout the entire SCF-calculation: 172.7 MB


-------------------------------------------------------------------------------
                          DFT DISPERSION CORRECTION                            
                                                                               
                              DFTD3 V3.1  Rev 1                                
                          USING Becke-Johnson damping                          
-------------------------------------------------------------------------------
The PBEh-3c composite method is recognized
Using three-body term ABC
Active option DFTDOPT                   ...         4   

molecular C6(AA) [au] = 19571.719866 


            DFT-D V3
 parameters
 s6 scaling factor         :     1.0000 
 a1 scaling factor         :     0.4860 
 s8 scaling factor         :     0.0000 
 a2 scaling factor         :     4.5000 
 Damping factor alpha9(ATM):    16.0000 
 ad hoc parameters k1-k3   :    16.0000     1.3333    -4.0000 

 Edisp/kcal,au: -19.171958295039  -0.030552457042 
 E6   /kcal   : -19.514110692 
 E8   /kcal   :  -0.000000000 
 E6(ABC)      :   0.342152397 
 % E8         :   0.000000000 
 % E6(ABC)    :  -1.784650224 

-------------------------   ----------------
Dispersion correction           -0.030552457
-------------------------   ----------------

 ** NOTE ** -> element ir will be treated as co
NOTIFICATION: Different basis set in ORCA and otool_gcp:
ORCA: 358  gCP: 357 
If you are NOT using ECPs, check your basis set inputs!
------------------   -----------------
gCP correction             0.077323237
------------------   -----------------

-------------------------   --------------------
FINAL SINGLE POINT ENERGY     -1288.393866076101
-------------------------   --------------------

                                *** OPTIMIZATION RUN DONE ***

                            ***************************************
                            *     ORCA property calculations      *
                            ***************************************

                                    ---------------------
                                    Active property flags
                                    ---------------------
   (+) Dipole Moment


------------------------------------------------------------------------------
                       ORCA ELECTRIC PROPERTIES CALCULATION
------------------------------------------------------------------------------

Dipole Moment Calculation                       ... on
Quadrupole Moment Calculation                   ... off
Polarizability Calculation                      ... off
GBWName                                         ... reaction4-IEIP_ts_guess_scan_2-12_orca.gbw
Electron density                                ... reaction4-IEIP_ts_guess_scan_2-12_orca.scfp
The origin for moment calculation is the CENTER OF MASS  = ( 0.839411, -0.625752 -0.095273)

-------------
DIPOLE MOMENT
-------------
                                X             Y             Z
Electronic contribution:     34.17346     -70.77929      79.84103
Nuclear contribution   :    -34.79417      69.73267     -79.90888
                        -----------------------------------------
Total Dipole Moment    :     -0.62071      -1.04663      -0.06785
                        -----------------------------------------
Magnitude (a.u.)       :      1.21873
Magnitude (Debye)      :      3.09777



--------------------
Rotational spectrum 
--------------------
 
Rotational constants in cm-1:     0.010558     0.008831     0.008105 
Rotational constants in MHz :   316.511427   264.755541   242.994018 

 Dipole components along the rotational axes: 
x,y,z [a.u.] :     0.105423     0.435520    -1.133365 
x,y,z [Debye]:     0.267964     1.107003    -2.880784 

 

Timings for individual modules:

Sum of individual times         ...     5712.401 sec (=  95.207 min)
GTO integral calculation        ...       18.856 sec (=   0.314 min)   0.3 %
SCF iterations                  ...     4509.283 sec (=  75.155 min)  78.9 %
SCF Gradient evaluation         ...     1181.665 sec (=  19.694 min)  20.7 %
Geometry relaxation             ...        2.598 sec (=   0.043 min)   0.0 %
                             ****ORCA TERMINATED NORMALLY****
TOTAL RUN TIME: 0 days 1 hours 35 minutes 16 seconds 583 msec
