
                                 *****************
                                 * O   R   C   A *
                                 *****************

                                            #,                                       
                                            ###                                      
                                            ####                                     
                                            #####                                    
                                            ######                                   
                                           ########,                                 
                                     ,,################,,,,,                         
                               ,,#################################,,                 
                          ,,##########################################,,             
                       ,#########################################, ''#####,          
                    ,#############################################,,   '####,        
                  ,##################################################,,,,####,       
                ,###########''''           ''''###############################       
              ,#####''   ,,,,##########,,,,          '''####'''          '####       
            ,##' ,,,,###########################,,,                        '##       
           ' ,,###''''                  '''############,,,                           
         ,,##''                                '''############,,,,        ,,,,,,###''
      ,#''                                            '''#######################'''  
     '                                                          ''''####''''         
             ,#######,   #######,   ,#######,      ##                                
            ,#'     '#,  ##    ##  ,#'     '#,    #''#        ######   ,####,        
            ##       ##  ##   ,#'  ##            #'  '#       #        #'  '#        
            ##       ##  #######   ##           ,######,      #####,   #    #        
            '#,     ,#'  ##    ##  '#,     ,#' ,#      #,         ##   #,  ,#        
             '#######'   ##     ##  '#######'  #'      '#     #####' # '####'        



                  #######################################################
                  #                        -***-                        #
                  #          Department of theory and spectroscopy      #
                  #    Directorship and core code : Frank Neese         #
                  #        Max Planck Institute fuer Kohlenforschung    #
                  #                Kaiser Wilhelm Platz 1               #
                  #                 D-45470 Muelheim/Ruhr               #
                  #                      Germany                        #
                  #                                                     #
                  #                  All rights reserved                #
                  #                        -***-                        #
                  #######################################################


                         Program Version 5.0.3 -  RELEASE  -


 With contributions from (in alphabetic order):
   Daniel Aravena         : Magnetic Suceptibility
   Michael Atanasov       : Ab Initio Ligand Field Theory (pilot matlab implementation)
   Alexander A. Auer      : GIAO ZORA, VPT2 properties, NMR spectrum
   Ute Becker             : Parallelization
   Giovanni Bistoni       : ED, misc. LED, open-shell LED, HFLD
   Martin Brehm           : Molecular dynamics
   Dmytro Bykov           : SCF Hessian
   Vijay G. Chilkuri      : MRCI spin determinant printing, contributions to CSF-ICE
   Dipayan Datta          : RHF DLPNO-CCSD density
   Achintya Kumar Dutta   : EOM-CC, STEOM-CC
   Dmitry Ganyushin       : Spin-Orbit,Spin-Spin,Magnetic field MRCI
   Miquel Garcia          : C-PCM and meta-GGA Hessian, CC/C-PCM, Gaussian charge scheme
   Yang Guo               : DLPNO-NEVPT2, F12-NEVPT2, CIM, IAO-localization
   Andreas Hansen         : Spin unrestricted coupled pair/coupled cluster methods
   Benjamin Helmich-Paris : MC-RPA, TRAH-SCF, COSX integrals
   Lee Huntington         : MR-EOM, pCC
   Robert Izsak           : Overlap fitted RIJCOSX, COSX-SCS-MP3, EOM
   Marcus Kettner         : VPT2
   Christian Kollmar      : KDIIS, OOCD, Brueckner-CCSD(T), CCSD density, CASPT2, CASPT2-K
   Simone Kossmann        : Meta GGA functionals, TD-DFT gradient, OOMP2, MP2 Hessian
   Martin Krupicka        : Initial AUTO-CI
   Lucas Lang             : DCDCAS
   Marvin Lechner         : AUTO-CI (C++ implementation), FIC-MRCC
   Dagmar Lenk            : GEPOL surface, SMD
   Dimitrios Liakos       : Extrapolation schemes; Compound Job, initial MDCI parallelization
   Dimitrios Manganas     : Further ROCIS development; embedding schemes
   Dimitrios Pantazis     : SARC Basis sets
   Anastasios Papadopoulos: AUTO-CI, single reference methods and gradients
   Taras Petrenko         : DFT Hessian,TD-DFT gradient, ASA, ECA, R-Raman, ABS, FL, XAS/XES, NRVS
   Peter Pinski           : DLPNO-MP2, DLPNO-MP2 Gradient
   Christoph Reimann      : Effective Core Potentials
   Marius Retegan         : Local ZFS, SOC
   Christoph Riplinger    : Optimizer, TS searches, QM/MM, DLPNO-CCSD(T), (RO)-DLPNO pert. Triples
   Tobias Risthaus        : Range-separated hybrids, TD-DFT gradient, RPA, STAB
   Michael Roemelt        : Original ROCIS implementation
   Masaaki Saitow         : Open-shell DLPNO-CCSD energy and density
   Barbara Sandhoefer     : DKH picture change effects
   Avijit Sen             : IP-ROCIS
   Kantharuban Sivalingam : CASSCF convergence, NEVPT2, FIC-MRCI
   Bernardo de Souza      : ESD, SOC TD-DFT
   Georgi Stoychev        : AutoAux, RI-MP2 NMR, DLPNO-MP2 response
   Willem Van den Heuvel  : Paramagnetic NMR
   Boris Wezisla          : Elementary symmetry handling
   Frank Wennmohs         : Technical directorship


 We gratefully acknowledge several colleagues who have allowed us to
 interface, adapt or use parts of their codes:
   Stefan Grimme, W. Hujo, H. Kruse, P. Pracht,  : VdW corrections, initial TS optimization,
                  C. Bannwarth, S. Ehlert          DFT functionals, gCP, sTDA/sTD-DF
   Ed Valeev, F. Pavosevic, A. Kumar             : LibInt (2-el integral package), F12 methods
   Garnet Chan, S. Sharma, J. Yang, R. Olivares  : DMRG
   Ulf Ekstrom                                   : XCFun DFT Library
   Mihaly Kallay                                 : mrcc  (arbitrary order and MRCC methods)
   Jiri Pittner, Ondrej Demel                    : Mk-CCSD
   Frank Weinhold                                : gennbo (NPA and NBO analysis)
   Christopher J. Cramer and Donald G. Truhlar   : smd solvation model
   Lars Goerigk                                  : TD-DFT with DH, B97 family of functionals
   V. Asgeirsson, H. Jonsson                     : NEB implementation
   FAccTs GmbH                                   : IRC, NEB, NEB-TS, DLPNO-Multilevel, CI-OPT
                                                   MM, QMMM, 2- and 3-layer-ONIOM, Crystal-QMMM,
                                                   LR-CPCM, SF, NACMEs, symmetry and pop. for TD-DFT,
                                                   nearIR, NL-DFT gradient (VV10), updates on ESD,
                                                   ML-optimized integration grids
   S Lehtola, MJT Oliveira, MAL Marques          : LibXC Library
   Liviu Ungur et al                             : ANISO software


 Your calculation uses the libint2 library for the computation of 2-el integrals
 For citations please refer to: http://libint.valeyev.net

 Your ORCA version has been built with support for libXC version: 5.1.0
 For citations please refer to: https://tddft.org/programs/libxc/

 This ORCA versions uses:
   CBLAS   interface :  Fast vector & matrix operations
   LAPACKE interface :  Fast linear algebra routines
   SCALAPACK package :  Parallel linear algebra routines
   Shared memory     :  Shared parallel matrices
   BLAS/LAPACK       :  OpenBLAS 0.3.15  USE64BITINT DYNAMIC_ARCH NO_AFFINITY SkylakeX SINGLE_THREADED
        Core in use  :  SkylakeX
   Copyright (c) 2011-2014, The OpenBLAS Project


Your calculation utilizes the geometrical counterpoise correction gCP
Please cite in your paper:
H.Kruse, S. Grimme J.Chem.Phys., 136, (2012), 154101 
   

Your calculation utilizes the atom-pairwise dispersion correction
with the Becke-Johnson damping scheme (D3BJ)
Cite in your paper:
S.Grimme, S.Ehrlich, L.Goerigk, J Comput Chem, (2011), 32, 1456–1465 
S.Grimme, J.Antony, S.Ehrlich and H.Krieg, J.Chem.Phys., 132, (2010), 154104 
   

Your calculation employs the composite approach PBEh-3c.
Please cite in your paper:
S. Grimme, J. G. Brandenburg, C. Bannwarth, A. Hansen J.Chem.Phys., 143, (2015), 054107 
   

================================================================================

cite the ECPs for Ir [Def2-ECP] as follows:
Ce-Yb(ecp-28): M. Dolg, H. Stoll, H.Preuss, J. Chem. Phys., 1989, 90, 1730-1734.
Y-Cd(ecp-28), Hf-Hg(ecp-46): D. Andrae,U. Haeussermann, M. Dolg, H. Stoll, H. Preuss, Theor. Chim. Acta, 1990, 77, 123-141.
In-Sb(ecp-28), Tl-Bi(ecp-46): B. Metz, H. Stoll, M. Dolg, J. Chem. Phys., 2000, 113, 2563-2569.
Te-Xe(ecp-28), Po-Rn(ecp-46): K. A. Peterson, D. Figgen, E. Goll, H. Stoll, M. Dolg, J. Chem. Phys., 2003, 119, 11113-11123.
Rb(ecp-28), Cs(ecp-46): T. Leininger, A. Nicklass, W. Kuechle, H. Stoll, M. Dolg, A. Bergner, Chem. Phys. Lett., 1996, 255, 274-280.
Sr(ecp-28), Ba(ecp-46): M. Kaupp, P. V. Schleyer, H. Stoll and H. Preuss, J. Chem. Phys., 1991, 94, 1360-1366.
La(ecp-46): M. Dolg, H. Stoll, A. Savin, H. Preuss, Theor. Chim. Acta, 1989, 75, 173-194.
Lu(ecp-28): X. Cao, M. Dolg, J. Chem. Phys., 2001, 115, 7348-7355.

ECP parameters for Ir [Def2-ECP] have been obtained from:
TURBOMOLE (7.0.2)

----- Orbital basis set information -----
Your calculation utilizes the basis: def2-mSVP

----- AuxJ basis set information -----
Your calculation utilizes the auxiliary basis: def2/J
   F. Weigend, Phys. Chem. Chem. Phys. 8, 1057 (2006).

================================================================================
                                        WARNINGS
                       Please study these warnings very carefully!
================================================================================


WARNING: Geometry Optimization
  ===> : Switching off AutoStart
         For restart on a previous wavefunction, please use MOREAD

WARNING: No Hueckel Guess possible with ECP basis!
  ===> : Switching to HCORE guess!

INFO   : the flag for use of the SHARK integral package has been found!

================================================================================
                                       INPUT FILE
================================================================================
NAME = reaction4-IEIP_ts_guess_scan_3-9_orca.inp
|  1> ! Opt PBEh-3c
|  2> %geom Constraints
|  3> { B 0 20 2.4714285714285715 C }
|  4> { B 24 30 1.3714285714285714 C }
|  5>     end
|  6> end
|  7> %output 
|  8> xyzfile=True 
|  9> end 
| 10> %scf 
| 11> maxiter 250 
| 12> end
| 13> %output
| 14> Print[P_Hirshfeld] = 1
| 15> end
| 16> % maxcore
| 17> 4000
| 18> *xyz 1 1
| 19> Ir   0.57842626  -0.73098331   0.48703073 
| 20> C    0.02176209  -2.80973714   0.36587044 
| 21> C    0.09064004  -2.36453229   1.73602851 
| 22> C    2.18575297  -2.14577115   0.80516435 
| 23> C    1.29240921  -2.64781316  -0.21483551 
| 24> C    1.45619014  -2.00903147   1.99906138 
| 25> N   -1.04209405   0.15648916  -0.51253273 
| 26> C   -2.31979478   0.47662705   0.14477894 
| 27> C   -3.12505103   1.54522951  -0.57730780 
| 28> H   -3.95746620   1.84666824   0.05710978 
| 29> H   -3.56108205   1.19157859  -1.51297340 
| 30> H   -2.53256640   2.43793372  -0.77996989 
| 31> C   -3.12947052  -0.79913142   0.34182287 
| 32> H   -2.03716089   0.86410449   1.12509185 
| 33> H   -4.04964876  -0.56869644   0.87664625 
| 34> H   -3.40358533  -1.24630701  -0.61462025 
| 35> H   -2.59121625  -1.54016429   0.93105786 
| 36> C   -0.83977482   0.36606910  -1.75684892 
| 37> C    0.50852817   0.16574930  -2.23546408 
| 38> H   -1.62752989   0.71576877  -2.41818055 
| 39> C    1.61173121   0.48766212  -1.45431335 
| 40> C    2.81392581   0.10284375  -2.11262519 
| 41> S    0.93244146  -0.53544071  -3.73430518 
| 42> C    2.59961427  -0.45134982  -3.33666203 
| 43> H    1.53635824   1.37641483  -0.63581512 
| 44> H    3.80179353   0.28271749  -1.71391684 
| 45> H    3.33575448  -0.79713191  -4.04664838 
| 46> H   -0.86364588  -3.16770203  -0.13962729 
| 47> H   -0.70597092  -2.39899156   2.46463727 
| 48> H    1.83548572  -1.62123489   2.93357986 
| 49> O    1.35318600   2.42531262   0.25101375 
| 50> O    0.53534966   0.91846475   1.67781341 
| 51> C    0.93284797   2.10305974   1.36334147 
| 52> C    0.88567253   3.10287695   2.48319062 
| 53> H    0.84589224   4.11628633   2.09322114 
| 54> H    1.79550235   3.01072058   3.07968738 
| 55> H    0.04355552   2.92422898   3.14826958 
| 56> H    3.23275744  -1.91753375   0.67149183 
| 57> H    1.55985051  -2.86606372  -1.23852261 
| 58> *
| 59> 
| 60>                          ****END OF INPUT****
================================================================================

                       *****************************
                       * Geometry Optimization Run *
                       *****************************

Geometry optimization settings:
Update method            Update   .... BFGS
Choice of coordinates    CoordSys .... Z-matrix Internals
Initial Hessian          InHess   .... Almoef's Model

Convergence Tolerances:
Energy Change            TolE     ....  5.0000e-06 Eh
Max. Gradient            TolMAXG  ....  3.0000e-04 Eh/bohr
RMS Gradient             TolRMSG  ....  1.0000e-04 Eh/bohr
Max. Displacement        TolMAXD  ....  4.0000e-03 bohr
RMS Displacement         TolRMSD  ....  2.0000e-03 bohr
Strict Convergence                ....  False
------------------------------------------------------------------------------
                        ORCA OPTIMIZATION COORDINATE SETUP
------------------------------------------------------------------------------

The optimization will be done in new redundant internal coordinates
Making redundant internal coordinates   ...  (new redundants) done
Evaluating the initial hessian          ...  (Almloef) done
Evaluating the coordinates              ...  done
Calculating the B-matrix                .... done
Calculating the G-matrix                .... done
Diagonalizing the G-matrix              .... done
Imposing constraints:
 Iter   0:  RMS(Cart)=    0.0240927126 RMS(Int)=    0.0025287724
 Iter   1:  RMS(Cart)=    0.0010217556 RMS(Int)=    0.0001208304
 Iter   2:  RMS(Cart)=    0.0000473823 RMS(Int)=    0.0000055369
 Iter   3:  RMS(Cart)=    0.0000020962 RMS(Int)=    0.0000002422
 Iter   4:  RMS(Cart)=    0.0000000888 RMS(Int)=    0.0000000102
CONVERGED
Small eigenvalue found = 1.264e-02
Small eigenvalue found = 1.605e-02
Small eigenvalue found = 2.235e-02
Small eigenvalue found = 2.322e-02
Small eigenvalue found = 2.885e-02
The first mode is                       ....  227
The number of degrees of freedom        ....  111
Storing new coordinates                 .... done

    -----------------------------------------------------------------
                    Redundant Internal Coordinates


    -----------------------------------------------------------------
         Definition                    Initial Value    Approx d2E/dq
    -----------------------------------------------------------------
      1. B(C   1,Ir  0)                  2.1554         0.087404   
      2. B(C   2,C   1)                  1.4424         0.515545   
      3. B(C   2,Ir  0)                  2.1134         0.101992   
      4. B(C   3,Ir  0)                  2.1648         0.084441   
      5. B(C   4,Ir  0)                  2.1626         0.085140   
      6. B(C   4,C   3)                  1.4459         0.508884   
      7. B(C   4,C   1)                  1.4065         0.588249   
      8. B(C   5,Ir  0)                  2.1657         0.084171   
      9. B(C   5,C   2)                  1.4354         0.528871   
     10. B(C   5,C   3)                  1.4059         0.589505   
     11. B(N   6,Ir  0)                  2.1002         0.095718   
     12. B(C   7,N   6)                  1.4721         0.413901   
     13. B(C   8,C   7)                  1.5205         0.386918   
     14. B(H   9,C   8)                  1.0892         0.361215   
     15. B(H  10,C   8)                  1.0912         0.358549   
     16. B(H  11,C   8)                  1.0904         0.359536   
     17. B(C  12,C   7)                  1.5238         0.382184   
     18. B(H  13,C   7)                  1.0913         0.358325   
     19. B(H  14,C  12)                  1.0890         0.361460   
     20. B(H  15,C  12)                  1.0908         0.359017   
     21. B(H  16,C  12)                  1.0891         0.361350   
     22. B(C  17,N   6)                  1.2763         0.844558   
     23. B(C  18,C  17)                  1.4437         0.511079   
     24. B(H  19,C  17)                  1.0864         0.364929   
     25. B(C  20,C  18)                  1.3894         0.625804   
     26. B(C  20,Ir  0)                  2.4714         0.023386 C 
     27. B(C  21,C  20)                  1.4238         0.552178   
     28. B(S  22,C  18)                  1.7081         0.523435   
     29. B(C  23,C  21)                  1.3609         0.695968   
     30. B(C  23,S  22)                  1.7162         0.508621   
     31. B(H  24,C  20)                  1.2105         0.231231   
     32. B(H  25,C  21)                  1.0805         0.373063   
     33. B(H  26,C  23)                  1.0797         0.374116   
     34. B(H  27,C   1)                  1.0806         0.372804   
     35. B(H  28,C   2)                  1.0801         0.373418   
     36. B(H  29,C   5)                  1.0806         0.372828   
     37. B(O  30,H  24)                  1.3714         0.108835 C 
     38. B(O  31,Ir  0)                  2.0349         0.121914   
     39. B(C  32,O  30)                  1.2320         0.999925   
     40. B(C  32,O  31)                  1.2885         0.812560   
     41. B(C  33,C  32)                  1.5020         0.414089   
     42. B(H  34,C  33)                  1.0866         0.364652   
     43. B(H  35,C  33)                  1.0919         0.357688   
     44. B(H  36,C  33)                  1.0879         0.362962   
     45. B(H  37,C   3)                  1.0799         0.373715   
     46. B(H  38,C   4)                  1.0803         0.373134   
     47. A(C   2,Ir  0,O  31)          106.0077         0.266127   
     48. A(C   1,Ir  0,O  31)          144.0162         0.260046   
     49. A(C   5,Ir  0,N   6)          153.4053         0.249557   
     50. A(C   1,Ir  0,C   3)           64.5154         0.247537   
     51. A(C   1,Ir  0,C   5)           64.8354         0.247422   
     52. A(C   3,Ir  0,O  31)          117.3523         0.258716   
     53. A(C   3,Ir  0,N   6)          156.7527         0.249673   
     54. A(C   2,Ir  0,C   5)           39.1748         0.253054   
     55. A(C   3,Ir  0,C   4)           39.0384         0.246598   
     56. A(C   2,Ir  0,C   4)           65.3492         0.253480   
     57. A(C   5,Ir  0,O  31)           94.4924         0.258593   
     58. A(C   4,Ir  0,N   6)          118.3420         0.249973   
     59. A(C   1,Ir  0,C   2)           39.4802         0.254460   
     60. A(C   4,Ir  0,C   5)           64.5140         0.246483   
     61. A(C   4,Ir  0,O  31)          156.2644         0.259033   
     62. A(C   1,Ir  0,N   6)          100.4545         0.250932   
     63. A(C   2,Ir  0,C   3)           65.1259         0.253173   
     64. A(C   2,Ir  0,N   6)          115.4485         0.256690   
     65. A(C   1,Ir  0,C   4)           38.0183         0.247833   
     66. A(N   6,Ir  0,O  31)           85.3936         0.262351   
     67. A(C   3,Ir  0,C   5)           37.8875         0.246190   
     68. A(Ir  0,C   1,H  27)          123.8765         0.269997   
     69. A(C   2,C   1,C   4)          108.2740         0.416039   
     70. A(Ir  0,C   1,C   4)           71.2666         0.321030   
     71. A(C   4,C   1,H  27)          125.8232         0.351842   
     72. A(Ir  0,C   1,C   2)           68.6899         0.314204   
     73. A(C   2,C   1,H  27)          125.8584         0.344110   
     74. A(C   5,C   2,H  28)          125.8691         0.345683   
     75. A(Ir  0,C   2,C   5)           72.3796         0.323562   
     76. A(C   1,C   2,C   5)          107.2150         0.408257   
     77. A(Ir  0,C   2,C   1)           71.8299         0.322211   
     78. A(Ir  0,C   2,H  28)          126.4099         0.276502   
     79. A(C   1,C   2,H  28)          126.5663         0.344205   
     80. A(Ir  0,C   3,H  37)          124.3027         0.268689   
     81. A(C   4,C   3,C   5)          108.1948         0.415235   
     82. A(C   4,C   3,H  37)          125.8100         0.343500   
     83. A(Ir  0,C   3,C   4)           70.3959         0.311796   
     84. A(Ir  0,C   3,C   5)           71.0902         0.319337   
     85. A(C   5,C   3,H  37)          125.9952         0.352114   
     86. A(Ir  0,C   4,C   1)           70.7151         0.319655   
     87. A(Ir  0,C   4,H  38)          124.6346         0.268961   
     88. A(C   1,C   4,H  38)          126.2755         0.351895   
     89. A(C   3,C   4,H  38)          125.8501         0.343411   
     90. A(Ir  0,C   4,C   3)           70.5656         0.312212   
     91. A(C   1,C   4,C   3)          107.8727         0.415078   
     92. A(Ir  0,C   5,H  29)          122.2981         0.268462   
     93. A(C   3,C   5,H  29)          125.9603         0.351973   
     94. A(C   2,C   5,H  29)          125.5430         0.345591   
     95. A(Ir  0,C   5,C   3)           71.0224         0.319170   
     96. A(C   2,C   5,C   3)          108.3007         0.418092   
     97. A(Ir  0,C   5,C   2)           68.4455         0.313584   
     98. A(Ir  0,N   6,C  17)          113.7714         0.342116   
     99. A(C   7,N   6,C  17)          122.6748         0.421191   
    100. A(Ir  0,N   6,C   7)          123.5305         0.304385   
    101. A(N   6,C   7,C   8)          113.6073         0.369702   
    102. A(N   6,C   7,C  12)          109.6855         0.368921   
    103. A(C   8,C   7,C  12)          111.6178         0.366969   
    104. A(N   6,C   7,H  13)          104.6858         0.327594   
    105. A(C   8,C   7,H  13)          108.3143         0.325930   
    106. A(C  12,C   7,H  13)          108.5846         0.325271   
    107. A(C   7,C   8,H  11)          112.0785         0.326111   
    108. A(H   9,C   8,H  11)          107.2746         0.290909   
    109. A(H  10,C   8,H  11)          108.8496         0.290571   
    110. A(C   7,C   8,H   9)          108.8235         0.326362   
    111. A(C   7,C   8,H  10)          113.0222         0.325964   
    112. A(H   9,C   8,H  10)          106.4852         0.290784   
    113. A(C   7,C  12,H  14)          109.5932         0.325737   
    114. A(C   7,C  12,H  15)          111.3065         0.325374   
    115. A(H  14,C  12,H  15)          107.7600         0.290874   
    116. A(C   7,C  12,H  16)          112.1493         0.325721   
    117. A(H  14,C  12,H  16)          107.2109         0.291170   
    118. A(H  15,C  12,H  16)          108.6424         0.290860   
    119. A(N   6,C  17,C  18)          116.0627         0.440323   
    120. A(N   6,C  17,H  19)          122.3120         0.370552   
    121. A(C  18,C  17,H  19)          121.5803         0.342380   
    122. A(C  17,C  18,C  20)          121.3097         0.420000   
    123. A(C  17,C  18,S  22)          125.5331         0.429201   
    124. A(C  20,C  18,S  22)          113.0937         0.445157   
    125. A(C  18,C  20,C  21)          110.3228         0.425845   
    126. A(C  18,C  20,H  24)          120.0596         0.328237   
    127. A(C  21,C  20,H  24)          124.3281         0.321554   
    128. A(C  20,C  21,H  25)          123.8141         0.348145   
    129. A(C  23,C  21,H  25)          122.9435         0.362081   
    130. A(C  20,C  21,C  23)          113.1477         0.434045   
    131. A(C  18,S  22,C  23)           90.9790         0.452687   
    132. A(C  21,C  23,H  26)          127.9218         0.362256   
    133. A(S  22,C  23,H  26)          119.6246         0.361401   
    134. A(C  21,C  23,S  22)          112.4335         0.451465   
    135. A(Ir  0,O  31,C  32)          126.6274         0.354034   
    136. A(O  30,C  32,O  31)          124.4963         0.491063   
    137. A(O  30,C  32,C  33)          120.6402         0.437032   
    138. A(O  31,C  32,C  33)          114.8463         0.421065   
    139. A(C  32,C  33,H  34)          110.7559         0.330553   
    140. A(C  32,C  33,H  35)          108.9635         0.329501   
    141. A(H  34,C  33,H  35)          107.7775         0.291106   
    142. A(C  32,C  33,H  36)          111.7676         0.330299   
    143. A(H  34,C  33,H  36)          110.1353         0.291777   
    144. A(H  35,C  33,H  36)          107.2896         0.290894   
    145. D(C   2,C   1,Ir  0,C   4)    119.1891         0.001710   
    146. D(C   2,C   1,Ir  0,C   5)     39.0321         0.001710   
    147. D(H  27,C   1,Ir  0,O  31)     98.7136         0.001710   
    148. D(C   4,C   1,Ir  0,C   2)   -119.1891         0.001710   
    149. D(C   2,C   1,Ir  0,O  31)    -20.9855         0.001710   
    150. D(H  27,C   1,Ir  0,C   3)   -159.1737         0.001710   
    151. D(C   4,C   1,Ir  0,O  31)   -140.1747         0.001710   
    152. D(H  27,C   1,Ir  0,C   2)    119.6991         0.001710   
    153. D(C   4,C   1,Ir  0,C   3)    -38.0619         0.001710   
    154. D(H  27,C   1,Ir  0,N   6)      2.1027         0.001710   
    155. D(C   2,C   1,Ir  0,C   3)     81.1273         0.001710   
    156. D(C   4,C   1,Ir  0,N   6)    123.2145         0.001710   
    157. D(H  27,C   1,Ir  0,C   4)   -121.1118         0.001710   
    158. D(H  27,C   1,Ir  0,C   5)    158.7312         0.001710   
    159. D(C   4,C   1,Ir  0,C   5)    -80.1570         0.001710   
    160. D(C   2,C   1,Ir  0,N   6)   -117.5964         0.001710   
    161. D(Ir  0,C   2,C   1,H  27)   -117.1478         0.021081   
    162. D(C   1,C   2,Ir  0,C   5)   -115.5352         0.001785   
    163. D(C   1,C   2,Ir  0,C   4)    -36.2719         0.001785   
    164. D(H  28,C   2,C   1,H  27)      5.1527         0.021081   
    165. D(H  28,C   2,C   1,Ir  0)    122.3004         0.021081   
    166. D(C   5,C   2,C   1,H  27)    178.6521         0.021081   
    167. D(C   1,C   2,Ir  0,C   3)    -79.4504         0.001785   
    168. D(H  28,C   2,Ir  0,C   4)   -158.7547         0.001785   
    169. D(H  28,C   2,Ir  0,C   5)    121.9819         0.001785   
    170. D(C   5,C   2,Ir  0,C   3)     36.0848         0.001785   
    171. D(C   5,C   2,Ir  0,C   1)    115.5352         0.001785   
    172. D(H  28,C   2,C   1,C   4)   -177.1624         0.021081   
    173. D(C   5,C   2,Ir  0,C   4)     79.2633         0.001785   
    174. D(C   5,C   2,C   1,Ir  0)    -64.2002         0.021081   
    175. D(H  28,C   2,Ir  0,N   6)    -47.6496         0.001785   
    176. D(H  28,C   2,Ir  0,O  31)     44.8720         0.001785   
    177. D(Ir  0,C   2,C   1,C   4)     60.5372         0.021081   
    178. D(C   5,C   2,C   1,C   4)     -3.6630         0.021081   
    179. D(C   1,C   2,Ir  0,N   6)     74.8333         0.001785   
    180. D(C   5,C   2,Ir  0,O  31)    -77.1099         0.001785   
    181. D(H  28,C   2,Ir  0,C   1)   -122.4829         0.001785   
    182. D(C   1,C   2,Ir  0,O  31)    167.3549         0.001785   
    183. D(H  28,C   2,Ir  0,C   3)    158.0668         0.001785   
    184. D(C   5,C   2,Ir  0,N   6)   -169.6315         0.001785   
    185. D(C   4,C   3,Ir  0,C   5)    118.1890         0.001696   
    186. D(C   4,C   3,Ir  0,C   1)     37.0763         0.001696   
    187. D(C   4,C   3,Ir  0,O  31)    176.7765         0.001696   
    188. D(C   4,C   3,Ir  0,C   2)     80.8997         0.001696   
    189. D(C   5,C   3,Ir  0,O  31)     58.5875         0.001696   
    190. D(C   5,C   3,Ir  0,C   2)    -37.2893         0.001696   
    191. D(C   4,C   3,Ir  0,N   6)    -16.0332         0.001696   
    192. D(H  37,C   3,Ir  0,C   4)    120.5900         0.001696   
    193. D(H  37,C   3,Ir  0,C   1)    157.6664         0.001696   
    194. D(C   5,C   3,Ir  0,C   1)    -81.1126         0.001696   
    195. D(C   5,C   3,Ir  0,C   4)   -118.1890         0.001696   
    196. D(C   5,C   3,Ir  0,N   6)   -134.2222         0.001696   
    197. D(H  37,C   3,Ir  0,C   5)   -121.2210         0.001696   
    198. D(H  37,C   3,Ir  0,N   6)    104.5568         0.001696   
    199. D(H  37,C   3,Ir  0,O  31)    -62.6335         0.001696   
    200. D(H  37,C   3,Ir  0,C   2)   -158.5103         0.001696   
    201. D(C   1,C   4,Ir  0,C   3)    117.9206         0.001700   
    202. D(H  38,C   4,C   3,H  37)      0.5160         0.020524   
    203. D(C   1,C   4,Ir  0,C   5)     81.0776         0.001700   
    204. D(C   1,C   4,Ir  0,N   6)    -69.1944         0.001700   
    205. D(C   1,C   4,Ir  0,O  31)    110.7929         0.001700   
    206. D(C   1,C   4,Ir  0,C   2)     37.6423         0.001700   
    207. D(C   3,C   4,Ir  0,C   1)   -117.9206         0.001700   
    208. D(H  38,C   4,C   3,C   5)   -179.3838         0.020524   
    209. D(C   3,C   4,Ir  0,C   5)    -36.8430         0.001700   
    210. D(C   3,C   4,Ir  0,N   6)    172.8850         0.001700   
    211. D(C   3,C   4,Ir  0,O  31)     -7.1277         0.001700   
    212. D(Ir  0,C   4,C   1,C   2)    -58.9281         0.027781   
    213. D(H  38,C   4,Ir  0,C   2)    158.9850         0.001700   
    214. D(H  38,C   4,Ir  0,C   3)   -120.7367         0.001700   
    215. D(H  38,C   4,C   1,C   2)   -178.2748         0.027781   
    216. D(H  38,C   4,Ir  0,N   6)     52.1482         0.001700   
    217. D(H  38,C   4,Ir  0,O  31)   -127.8644         0.001700   
    218. D(Ir  0,C   4,C   1,H  27)    118.7579         0.027781   
    219. D(C   3,C   4,C   1,Ir  0)     61.1047         0.027781   
    220. D(C   3,C   4,C   1,H  27)    179.8626         0.027781   
    221. D(H  38,C   4,C   1,Ir  0)   -119.3467         0.027781   
    222. D(H  38,C   4,Ir  0,C   5)   -157.5797         0.001700   
    223. D(H  38,C   4,C   1,H  27)     -0.5888         0.027781   
    224. D(Ir  0,C   4,C   3,C   5)     61.3674         0.020524   
    225. D(Ir  0,C   4,C   3,H  37)   -118.7329         0.020524   
    226. D(C   3,C   4,C   1,C   2)      2.1766         0.027781   
    227. D(C   1,C   4,C   3,C   5)      0.1673         0.020524   
    228. D(C   1,C   4,C   3,H  37)   -179.9330         0.020524   
    229. D(H  38,C   4,C   3,Ir  0)    119.2489         0.020524   
    230. D(H  38,C   4,Ir  0,C   1)    121.3427         0.001700   
    231. D(C   1,C   4,C   3,Ir  0)    -61.2001         0.020524   
    232. D(C   3,C   4,Ir  0,C   2)    -80.2782         0.001700   
    233. D(C   2,C   5,Ir  0,C   1)    -39.3359         0.001695   
    234. D(H  29,C   5,C   3,C   4)   -177.5801         0.027907   
    235. D(C   2,C   5,Ir  0,C   4)    -81.5780         0.001695   
    236. D(C   2,C   5,Ir  0,N   6)     21.2857         0.001695   
    237. D(C   2,C   5,Ir  0,O  31)    109.9671         0.001695   
    238. D(C   3,C   5,Ir  0,C   1)     80.1927         0.001695   
    239. D(C   3,C   5,Ir  0,C   2)    119.5286         0.001695   
    240. D(C   3,C   5,Ir  0,C   4)     37.9506         0.001695   
    241. D(H  29,C   5,C   2,C   1)    178.9137         0.022224   
    242. D(C   3,C   5,Ir  0,O  31)   -130.5043         0.001695   
    243. D(H  29,C   5,Ir  0,C   1)   -158.6588         0.001695   
    244. D(C   3,C   5,C   2,Ir  0)    -60.0715         0.022224   
    245. D(H  29,C   5,Ir  0,C   3)    121.1485         0.001695   
    246. D(H  29,C   5,Ir  0,C   4)    159.0991         0.001695   
    247. D(H  29,C   5,Ir  0,N   6)    -98.0372         0.001695   
    248. D(H  29,C   5,Ir  0,O  31)     -9.3558         0.001695   
    249. D(Ir  0,C   5,C   2,C   1)     63.8360         0.022224   
    250. D(H  29,C   5,Ir  0,C   2)   -119.3229         0.001695   
    251. D(Ir  0,C   5,C   2,H  28)   -122.6067         0.022224   
    252. D(C   3,C   5,C   2,C   1)      3.7645         0.022224   
    253. D(C   3,C   5,C   2,H  28)    177.3218         0.022224   
    254. D(C   3,C   5,Ir  0,N   6)    140.8143         0.001695   
    255. D(H  29,C   5,C   2,Ir  0)    115.0777         0.022224   
    256. D(H  29,C   5,C   2,H  28)     -7.5290         0.022224   
    257. D(Ir  0,C   5,C   3,C   4)    -60.9272         0.027907   
    258. D(Ir  0,C   5,C   3,H  37)    119.1733         0.027907   
    259. D(C   2,C   5,C   3,Ir  0)     58.4707         0.027907   
    260. D(C   2,C   5,C   3,C   4)     -2.4564         0.027907   
    261. D(C   2,C   5,C   3,H  37)    177.6441         0.027907   
    262. D(C   2,C   5,Ir  0,C   3)   -119.5286         0.001695   
    263. D(H  29,C   5,C   3,Ir  0)   -116.6529         0.027907   
    264. D(H  29,C   5,C   3,H  37)      2.5204         0.027907   
    265. D(C  17,N   6,Ir  0,C   1)    -94.4766         0.001771   
    266. D(C   7,N   6,Ir  0,C   2)     45.1964         0.001771   
    267. D(C   7,N   6,Ir  0,C   3)    131.0429         0.001771   
    268. D(C   7,N   6,Ir  0,C   4)    119.6432         0.001771   
    269. D(C   7,N   6,Ir  0,C   5)     30.4847         0.001771   
    270. D(C   7,N   6,Ir  0,C   1)     83.8070         0.001771   
    271. D(C   7,N   6,Ir  0,O  31)    -60.3517         0.001771   
    272. D(C  17,N   6,Ir  0,C   2)   -133.0872         0.001771   
    273. D(C  17,N   6,Ir  0,C   3)    -47.2407         0.001771   
    274. D(C  17,N   6,Ir  0,C   4)    -58.6404         0.001771   
    275. D(C  17,N   6,Ir  0,C   5)   -147.7989         0.001771   
    276. D(C  17,N   6,Ir  0,O  31)    121.3647         0.001771   
    277. D(C   8,C   7,N   6,Ir  0)    158.2910         0.014611   
    278. D(C   8,C   7,N   6,C  17)    -23.5751         0.014611   
    279. D(C  12,C   7,N   6,Ir  0)    -76.0206         0.014611   
    280. D(C  12,C   7,N   6,C  17)    102.1132         0.014611   
    281. D(H  13,C   7,N   6,Ir  0)     40.3184         0.014611   
    282. D(H  13,C   7,N   6,C  17)   -141.5477         0.014611   
    283. D(H   9,C   8,C   7,N   6)   -170.1086         0.011910   
    284. D(H   9,C   8,C   7,C  12)     65.2366         0.011910   
    285. D(H   9,C   8,C   7,H  13)    -54.2538         0.011910   
    286. D(H  10,C   8,C   7,N   6)     71.8182         0.011910   
    287. D(H  10,C   8,C   7,C  12)    -52.8366         0.011910   
    288. D(H  10,C   8,C   7,H  13)   -172.3270         0.011910   
    289. D(H  11,C   8,C   7,N   6)    -51.6301         0.011910   
    290. D(H  11,C   8,C   7,C  12)   -176.2849         0.011910   
    291. D(H  11,C   8,C   7,H  13)     64.2247         0.011910   
    292. D(H  14,C  12,C   7,N   6)    176.9284         0.011634   
    293. D(H  14,C  12,C   7,C   8)    -56.2532         0.011634   
    294. D(H  14,C  12,C   7,H  13)     63.0772         0.011634   
    295. D(H  15,C  12,C   7,N   6)    -63.9702         0.011634   
    296. D(H  15,C  12,C   7,C   8)     62.8482         0.011634   
    297. D(H  15,C  12,C   7,H  13)   -177.8214         0.011634   
    298. D(H  16,C  12,C   7,N   6)     57.9818         0.011634   
    299. D(H  16,C  12,C   7,C   8)   -175.1997         0.011634   
    300. D(H  16,C  12,C   7,H  13)    -55.8693         0.011634   
    301. D(C  18,C  17,N   6,Ir  0)     -9.2386         0.061652   
    302. D(C  18,C  17,N   6,C   7)    172.4612         0.061652   
    303. D(H  19,C  17,N   6,Ir  0)    173.1676         0.061652   
    304. D(H  19,C  17,N   6,C   7)     -5.1327         0.061652   
    305. D(C  20,C  18,C  17,N   6)    -35.7706         0.017802   
    306. D(C  20,C  18,C  17,H  19)    141.8424         0.017802   
    307. D(S  22,C  18,C  17,N   6)    141.1254         0.017802   
    308. D(S  22,C  18,C  17,H  19)    -41.2616         0.017802   
    309. D(C  21,C  20,C  18,C  17)    175.5903         0.029485   
    310. D(C  21,C  20,C  18,S  22)     -1.6639         0.029485   
    311. D(H  24,C  20,C  18,C  17)    -29.0201         0.029485   
    312. D(H  24,C  20,C  18,S  22)    153.7256         0.029485   
    313. D(C  23,C  21,C  20,C  18)      1.2526         0.022642   
    314. D(C  23,C  21,C  20,H  24)   -152.8693         0.022642   
    315. D(H  25,C  21,C  20,C  18)    177.8006         0.022642   
    316. D(H  25,C  21,C  20,H  24)     23.6786         0.022642   
    317. D(C  23,S  22,C  18,C  17)   -175.8279         0.005580   
    318. D(C  23,S  22,C  18,C  20)      1.2893         0.005580   
    319. D(S  22,C  23,C  21,C  20)     -0.3080         0.034081   
    320. D(S  22,C  23,C  21,H  25)   -176.8904         0.034081   
    321. D(H  26,C  23,C  21,C  20)    178.0370         0.034081   
    322. D(H  26,C  23,C  21,H  25)      1.4546         0.034081   
    323. D(C  21,C  23,S  22,C  18)     -0.5471         0.005341   
    324. D(H  26,C  23,S  22,C  18)   -179.0453         0.005341   
    325. D(C  32,O  31,Ir  0,C   1)   -175.6161         0.001916   
    326. D(C  32,O  31,Ir  0,C   2)    170.6808         0.001916   
    327. D(C  32,O  31,Ir  0,C   3)    100.8180         0.001916   
    328. D(C  32,O  31,Ir  0,C   4)    105.8658         0.001916   
    329. D(C  32,O  31,Ir  0,C   5)    132.5348         0.001916   
    330. D(C  32,O  31,Ir  0,N   6)    -74.1453         0.001916   
    331. D(O  30,C  32,O  31,Ir  0)      3.3063         0.051078   
    332. D(C  33,C  32,O  31,Ir  0)   -175.1882         0.051078   
    333. D(H  34,C  33,C  32,O  30)     23.7814         0.012691   
    334. D(H  34,C  33,C  32,O  31)   -157.6607         0.012691   
    335. D(H  35,C  33,C  32,O  30)    -94.6089         0.012691   
    336. D(H  35,C  33,C  32,O  31)     83.9490         0.012691   
    337. D(H  36,C  33,C  32,O  30)    146.9928         0.012691   
    338. D(H  36,C  33,C  32,O  31)    -34.4493         0.012691   
    -----------------------------------------------------------------

Number of atoms                         .... 39
Number of degrees of freedom            .... 338

         *************************************************************
         *                GEOMETRY OPTIMIZATION CYCLE   1            *
         *************************************************************
---------------------------------
CARTESIAN COORDINATES (ANGSTROEM)
---------------------------------
  Ir     0.578985   -0.726564    0.472318
  C      0.025252   -2.806141    0.351937
  C      0.102184   -2.362665    1.722261
  C      2.190901   -2.138895    0.778162
  C      1.291878   -2.641153   -0.236760
  C      1.468798   -2.005075    1.976959
  N     -1.049208    0.159140   -0.515329
  C     -2.325212    0.478648    0.145589
  C     -3.133167    1.546645   -0.574384
  H     -3.963939    1.847711    0.062367
  H     -3.571674    1.192567   -1.508734
  H     -2.541787    2.439660   -0.778908
  C     -3.133573   -0.797550    0.345189
  H     -2.039994    0.866470    1.125020
  H     -4.052353   -0.567558    0.882609
  H     -3.410169   -1.245062   -0.610386
  H     -2.593194   -1.538159    0.933015
  C     -0.846044    0.366666   -1.758164
  C      0.505104    0.160378   -2.223135
  H     -1.629681    0.716858   -2.424141
  C      1.598970    0.479921   -1.428205
  C      2.808082    0.090005   -2.070959
  S      0.944603   -0.545227   -3.715343
  C      2.607147   -0.465656   -3.296867
  H      1.516038    1.370086   -0.612104
  H      3.791585    0.267223   -1.660238
  H      3.351049   -0.815142   -3.997002
  H     -0.862781   -3.165004   -0.148325
  H     -0.689659   -2.399533    2.455968
  H      1.853431   -1.617862    2.909553
  O      1.346401    2.433361    0.237300
  O      0.540636    0.921242    1.665739
  C      0.933697    2.107421    1.351390
  C      0.891382    3.104491    2.473897
  H      0.846999    4.118737    2.086571
  H      1.805137    3.012870    3.064490
  H      0.053803    2.922471    3.143816
  H      3.236633   -1.908600    0.638042
  H      1.553110   -2.857534   -1.262468

----------------------------
CARTESIAN COORDINATES (A.U.)
----------------------------
  NO LB      ZA    FRAG     MASS         X           Y           Z
   0 Ir   17.0000*   0   192.220    1.094123   -1.373007    0.892551
   1 C     6.0000    0    12.011    0.047720   -5.302838    0.665065
   2 C     6.0000    0    12.011    0.193100   -4.464789    3.254601
   3 C     6.0000    0    12.011    4.140202   -4.041926    1.470513
   4 C     6.0000    0    12.011    2.441295   -4.991057   -0.447412
   5 C     6.0000    0    12.011    2.775625   -3.789043    3.735910
   6 N     7.0000    0    14.007   -1.982717    0.300731   -0.973830
   7 C     6.0000    0    12.011   -4.394013    0.904513    0.275123
   8 C     6.0000    0    12.011   -5.920827    2.922736   -1.085428
   9 H     1.0000    0     1.008   -7.490759    3.491668    0.117856
  10 H     1.0000    0     1.008   -6.749485    2.253625   -2.851094
  11 H     1.0000    0     1.008   -4.803282    4.610290   -1.471923
  12 C     6.0000    0    12.011   -5.921595   -1.507151    0.652312
  13 H     1.0000    0     1.008   -3.855029    1.637392    2.125980
  14 H     1.0000    0     1.008   -7.657837   -1.072529    1.667890
  15 H     1.0000    0     1.008   -6.444285   -2.352826   -1.153463
  16 H     1.0000    0     1.008   -4.900426   -2.906700    1.763144
  17 C     6.0000    0    12.011   -1.598792    0.692897   -3.322449
  18 C     6.0000    0    12.011    0.954508    0.303070   -4.201117
  19 H     1.0000    0     1.008   -3.079651    1.354666   -4.580963
  20 C     6.0000    0    12.011    3.021615    0.906919   -2.698915
  21 C     6.0000    0    12.011    5.306506    0.170085   -3.913546
  22 S    16.0000    0    32.060    1.785042   -1.030330   -7.020980
  23 C     6.0000    0    12.011    4.926795   -0.879962   -6.230175
  24 H     1.0000    0     1.008    2.864897    2.589087   -1.156709
  25 H     1.0000    0     1.008    7.165057    0.504979   -3.137395
  26 H     1.0000    0     1.008    6.332565   -1.540395   -7.553239
  27 H     1.0000    0     1.008   -1.630420   -5.980991   -0.280294
  28 H     1.0000    0     1.008   -1.303267   -4.534460    4.641107
  29 H     1.0000    0     1.008    3.502476   -3.057316    5.498258
  30 O     8.0000    0    15.999    2.544330    4.598385    0.448431
  31 O     8.0000    0    15.999    1.021653    1.740895    3.147790
  32 C     6.0000    0    12.011    1.764432    3.982448    2.553758
  33 C     6.0000    0    12.011    1.684469    5.866637    4.674988
  34 H     1.0000    0     1.008    1.600596    7.783284    3.943047
  35 H     1.0000    0     1.008    3.411214    5.693499    5.791048
  36 H     1.0000    0     1.008    0.101674    5.522670    5.940951
  37 H     1.0000    0     1.008    6.116351   -3.606731    1.205725
  38 H     1.0000    0     1.008    2.934952   -5.399956   -2.385719
* core charge reduced due to ECP

--------------------------------
INTERNAL COORDINATES (ANGSTROEM)
--------------------------------
 Ir     0   0   0     0.000000000000     0.00000000     0.00000000
 C      1   0   0     2.155405367854     0.00000000     0.00000000
 C      2   1   0     1.442319197420    68.68906356     0.00000000
 C      1   2   3     2.164793935936    64.51440833    81.12740358
 C      2   1   3     1.406407792651    71.26675570   240.81077230
 C      4   1   2     1.405827080848    71.09008186   278.88713589
 N      1   2   3     2.100671457105   100.45519160   242.40297003
 C      7   1   2     1.472095803803   123.29637225    83.78801060
 C      8   7   1     1.520446679685   113.60732206   158.30123587
 H      9   8   7     1.089158385637   108.82364266   189.89141422
 H      9   8   7     1.091174660007   113.02194044    71.81818654
 H      9   8   7     1.090426873321   112.07866112   308.36977547
 C      8   7   1     1.523798145448   109.68534095   283.98968123
 H      8   7   1     1.091345080072   104.68588978    40.32881514
 H     13   8   7     1.088973976352   109.59303111   176.92838654
 H     13   8   7     1.090820048930   111.30660199   296.02983847
 H     13   8   7     1.089057044894   112.14947179    57.98179970
 C      7   1   2     1.277959155362   114.23367480   265.53356760
 C     18   7   1     1.444687317899   116.58880289   350.65491050
 H     18   7   1     1.086373524322   122.05398669   173.05948188
 C     19  18   7     1.389561540244   121.50634131   324.09906441
 C     21  19  18     1.423633208675   110.35648865   175.62209670
 S     19  18   7     1.708184577442   125.39567307   141.06988538
 C     22  21  19     1.360634460420   113.14641804     1.26973083
 H     21  19  18     1.210579124490   120.04848949   331.01807040
 H     22  21  19     1.080372872169   123.81358451   177.81088047
 H     24  22  21     1.079605613050   127.92783113   178.02981572
 H      2   1   3     1.080561932907   123.87707301   119.69923480
 H      3   2   1     1.080114432840   126.56601957   122.30076772
 H      6   4   1     1.080544360000   125.96018855   243.34832140
 O     25  21  19     1.385714288026   175.30371133   346.36458380
 O      1   2   3     2.034821340338   144.01897715   339.01347624
 C     31  25  21     1.231991856634   115.14595680   102.59366204
 C     33  31  25     1.501972734209   120.64805129   170.71122916
 H     34  33  31     1.086580525445   110.75697379    23.78178117
 H     34  33  31     1.091829420094   108.96403762   265.39177026
 H     34  33  31     1.087844740186   111.76666452   146.99353571
 H      4   1   2     1.079897686618   124.30174000   157.66646537
 H      5   2   1     1.080320986833   126.27457544   240.65245237

---------------------------
INTERNAL COORDINATES (A.U.)
---------------------------
 Ir     0   0   0     0.000000000000     0.00000000     0.00000000
 C      1   0   0     4.073125852828     0.00000000     0.00000000
 C      2   1   0     2.725588280821    68.68906356     0.00000000
 C      1   2   3     4.090867675293    64.51440833    81.12740358
 C      2   1   3     2.657725560723    71.26675570   240.81077230
 C      4   1   2     2.656628174454    71.09008186   278.88713589
 N      1   2   3     3.969693751275   100.45519160   242.40297003
 C      7   1   2     2.781857912082   123.29637225    83.78801060
 C      8   7   1     2.873227825835   113.60732206   158.30123587
 H      9   8   7     2.058211065318   108.82364266   189.89141422
 H      9   8   7     2.062021271689   113.02194044    71.81818654
 H      9   8   7     2.060608159645   112.07866112   308.36977547
 C      8   7   1     2.879561178274   109.68534095   283.98968123
 H      8   7   1     2.062343318939   104.68588978    40.32881514
 H     13   8   7     2.057862582272   109.59303111   176.92838654
 H     13   8   7     2.061351153869   111.30660199   296.02983847
 H     13   8   7     2.058019559068   112.14947179    57.98179970
 C      7   1   2     2.414992813972   114.23367480   265.53356760
 C     18   7   1     2.730063379977   116.58880289   350.65491050
 H     18   7   1     2.052948440111   122.05398669   173.05948188
 C     19  18   7     2.625890757291   121.50634131   324.09906441
 C     21  19  18     2.690276879552   110.35648865   175.62209670
 S     19  18   7     3.228001037554   125.39567307   141.06988538
 C     22  21  19     2.571226498570   113.14641804     1.26973083
 H     21  19  18     2.287663008729   120.04848949   331.01807040
 H     22  21  19     2.041608850918   123.81358451   177.81088047
 H     24  22  21     2.040158941309   127.92783113   178.02981572
 H      2   1   3     2.041966123935   123.87707301   119.69923480
 H      3   2   1     2.041120471364   126.56601957   122.30076772
 H      6   4   1     2.041932915954   125.96018855   243.34832140
 O     25  21  19     2.618620504231   175.30371133   346.36458380
 O      1   2   3     3.845255064697   144.01897715   339.01347624
 C     31  25  21     2.328127208260   115.14595680   102.59366204
 C     33  31  25     2.838317128272   120.64805129   170.71122916
 H     34  33  31     2.053339615543   110.75697379    23.78178117
 H     34  33  31     2.063258588936   108.96403762   265.39177026
 H     34  33  31     2.055728635179   111.76666452   146.99353571
 H      4   1   2     2.040710880362   124.30174000   157.66646537
 H      5   2   1     2.041510801842   126.27457544   240.65245237

---------------------
BASIS SET INFORMATION
---------------------
There are 6 groups of distinct atoms

 Group   1 Type Ir  : 7s6p5d1f contracted to 6s3p2d1f pattern {211111/411/41/1}
 Group   2 Type C   : 8s4p1d contracted to 4s2p1d pattern {5111/31/1}
 Group   3 Type N   : 8s4p1d contracted to 4s2p1d pattern {5111/31/1}
 Group   4 Type H   : 4s contracted to 2s pattern {31}
 Group   5 Type S   : 10s7p1d contracted to 4s3p1d pattern {5311/511/1}
 Group   6 Type O   : 8s4p1d contracted to 4s2p1d pattern {5111/31/1}

Atom   0Ir   basis set group =>   1
Atom   1C    basis set group =>   2
Atom   2C    basis set group =>   2
Atom   3C    basis set group =>   2
Atom   4C    basis set group =>   2
Atom   5C    basis set group =>   2
Atom   6N    basis set group =>   3
Atom   7C    basis set group =>   2
Atom   8C    basis set group =>   2
Atom   9H    basis set group =>   4
Atom  10H    basis set group =>   4
Atom  11H    basis set group =>   4
Atom  12C    basis set group =>   2
Atom  13H    basis set group =>   4
Atom  14H    basis set group =>   4
Atom  15H    basis set group =>   4
Atom  16H    basis set group =>   4
Atom  17C    basis set group =>   2
Atom  18C    basis set group =>   2
Atom  19H    basis set group =>   4
Atom  20C    basis set group =>   2
Atom  21C    basis set group =>   2
Atom  22S    basis set group =>   5
Atom  23C    basis set group =>   2
Atom  24H    basis set group =>   4
Atom  25H    basis set group =>   4
Atom  26H    basis set group =>   4
Atom  27H    basis set group =>   4
Atom  28H    basis set group =>   4
Atom  29H    basis set group =>   4
Atom  30O    basis set group =>   6
Atom  31O    basis set group =>   6
Atom  32C    basis set group =>   2
Atom  33C    basis set group =>   2
Atom  34H    basis set group =>   4
Atom  35H    basis set group =>   4
Atom  36H    basis set group =>   4
Atom  37H    basis set group =>   4
Atom  38H    basis set group =>   4
---------------------------------
AUXILIARY/J BASIS SET INFORMATION
---------------------------------
There are 6 groups of distinct atoms

 Group   1 Type Ir  : 11s5p5d3f3g contracted to 8s5p5d2f3g pattern {41111111/11111/11111/21/111}
 Group   2 Type C   : 12s5p4d2f1g contracted to 6s4p3d1f1g pattern {711111/2111/211/2/1}
 Group   3 Type N   : 12s5p4d2f1g contracted to 6s4p3d1f1g pattern {711111/2111/211/2/1}
 Group   4 Type H   : 5s2p1d contracted to 3s1p1d pattern {311/2/1}
 Group   5 Type S   : 14s5p5d2f1g contracted to 8s4p3d1f1g pattern {71111111/2111/311/2/1}
 Group   6 Type O   : 12s5p4d2f1g contracted to 6s4p3d1f1g pattern {711111/2111/211/2/1}

Atom   0Ir   basis set group =>   1
Atom   1C    basis set group =>   2
Atom   2C    basis set group =>   2
Atom   3C    basis set group =>   2
Atom   4C    basis set group =>   2
Atom   5C    basis set group =>   2
Atom   6N    basis set group =>   3
Atom   7C    basis set group =>   2
Atom   8C    basis set group =>   2
Atom   9H    basis set group =>   4
Atom  10H    basis set group =>   4
Atom  11H    basis set group =>   4
Atom  12C    basis set group =>   2
Atom  13H    basis set group =>   4
Atom  14H    basis set group =>   4
Atom  15H    basis set group =>   4
Atom  16H    basis set group =>   4
Atom  17C    basis set group =>   2
Atom  18C    basis set group =>   2
Atom  19H    basis set group =>   4
Atom  20C    basis set group =>   2
Atom  21C    basis set group =>   2
Atom  22S    basis set group =>   5
Atom  23C    basis set group =>   2
Atom  24H    basis set group =>   4
Atom  25H    basis set group =>   4
Atom  26H    basis set group =>   4
Atom  27H    basis set group =>   4
Atom  28H    basis set group =>   4
Atom  29H    basis set group =>   4
Atom  30O    basis set group =>   6
Atom  31O    basis set group =>   6
Atom  32C    basis set group =>   2
Atom  33C    basis set group =>   2
Atom  34H    basis set group =>   4
Atom  35H    basis set group =>   4
Atom  36H    basis set group =>   4
Atom  37H    basis set group =>   4
Atom  38H    basis set group =>   4
-------------------------
ECP PARAMETER INFORMATION
-------------------------

 Group 1, Type Ir ECP Def2-ECP (replacing 60 core electrons, lmax=3)

Atom   0Ir   ECP group =>   1

------------------------------------------------------------------------------
                           ORCA GTO INTEGRAL CALCULATION
                           -- RI-GTO INTEGRALS CHOSEN --
------------------------------------------------------------------------------
------------------------------------------------------------------------------
                   ___                                                        
                  /   \      - P O W E R E D   B Y -                         
                 /     \                                                     
                 |  |  |   _    _      __       _____    __    __             
                 |  |  |  | |  | |    /  \     |  _  \  |  |  /  |          
                  \  \/   | |  | |   /    \    | | | |  |  | /  /          
                 / \  \   | |__| |  /  /\  \   | |_| |  |  |/  /          
                |  |  |   |  __  | /  /__\  \  |    /   |      \           
                |  |  |   | |  | | |   __   |  |    \   |  |\   \          
                \     /   | |  | | |  |  |  |  | |\  \  |  | \   \       
                 \___/    |_|  |_| |__|  |__|  |_| \__\ |__|  \__/        
                                                                              
                      - O R C A' S   B I G   F R I E N D -                    
                                      &                                       
                       - I N T E G R A L  F E E D E R -                       
                                                                              
 v1 FN, 2020, v2 2021                                                         
------------------------------------------------------------------------------


Reading SHARK input file reaction4-IEIP_ts_guess_scan_3-9_orca.SHARKINP.tmp ... ok
----------------------
SHARK INTEGRAL PACKAGE
----------------------

Number of atoms                             ...     39
Number of basis functions                   ...    358
Number of shells                            ...    184
Maximum angular momentum                    ...      3
Integral batch strategy                     ... SHARK/LIBINT Hybrid
RI-J (if used) integral strategy            ... SPLIT-RIJ (Revised 2003 algorithm where possible)
Printlevel                                  ...      1
Contraction scheme used                     ... SEGMENTED contraction
Coulomb Range Separation                    ... NOT USED
Exchange Range Separation                   ... NOT USED
Finite Nucleus Model                        ... NOT USED
Auxiliary Coulomb fitting basis             ... AVAILABLE
   # of basis functions in Aux-J            ...   1231
   # of shells in Aux-J                     ...    405
   Maximum angular momentum in Aux-J        ...      4
Auxiliary J/K fitting basis                 ... NOT available
Auxiliary Correlation fitting basis         ... NOT available
Auxiliary 'external' fitting basis          ... NOT available
Integral threshold                          ...     2.500000e-11
Primitive cut-off                           ...     2.500000e-12
Primitive pair pre-selection threshold      ...     2.500000e-12

Calculating pre-screening integrals         ... done (  0.1 sec) Dimension = 184
Organizing shell pair data                  ... done (  0.1 sec)
Shell pair information
Total number of shell pairs                 ...     17020
Shell pairs after pre-screening             ...     12970
Total number of primitive shell pairs       ...     60705
Primitive shell pairs kept                  ...     29156
          la=0 lb=0:   4972 shell pairs
          la=1 lb=0:   4257 shell pairs
          la=1 lb=1:    856 shell pairs
          la=2 lb=0:   1743 shell pairs
          la=2 lb=1:    785 shell pairs
          la=2 lb=2:    180 shell pairs
          la=3 lb=0:    113 shell pairs
          la=3 lb=1:     42 shell pairs
          la=3 lb=2:     21 shell pairs
          la=3 lb=3:      1 shell pairs

Calculating one electron integrals          ... done (  0.1 sec)
Calculating ECP integrals                   ... done (  0.8 sec)
Calculating RI/J V-Matrix + Cholesky decomp.... done (  0.1 sec)
Calculating Nuclear repulsion               ... done (  0.0 sec) ENN=   2037.661113487855 Eh

SHARK setup successfully completed in   1.4 seconds

Maximum memory used throughout the entire GTOINT-calculation: 90.8 MB
-------------------------------------------------------------------------------
                                 ORCA SCF
-------------------------------------------------------------------------------

------------
SCF SETTINGS
------------
Hamiltonian:
 Density Functional     Method          .... DFT(GTOs)
 Exchange Functional    Exchange        .... PBE
   PBE kappa parameter   XKappa         ....  1.024500
   PBE mue parameter    XMuePBE         ....  0.123457
 Correlation Functional Correlation     .... PBE
   PBE beta parameter  CBetaPBE         ....  0.030000
 LDA part of GGA corr.  LDAOpt          .... PW91-LDA
 Gradients option       PostSCFGGA      .... off
 Hybrid DFT is turned on
   Fraction HF Exchange ScalHFX         ....  0.420000
   Scaling of DF-GGA-X  ScalDFX         ....  0.580000
   Scaling of DF-GGA-C  ScalDFC         ....  1.000000
   Scaling of DF-LDA-C  ScalLDAC        ....  1.000000
   Perturbative correction              ....  0.000000
   Density functional embedding theory  .... OFF
 RI-approximation to the Coulomb term is turned on
   Number of AuxJ basis functions       .... 1231
   RIJ-ON(X) (HFX calculated with O(N)) .... on
   Number of AuxJ basis functions       .... 1231
   RIJ-COSX (HFX calculated with COS-X)).... on


General Settings:
 Integral files         IntName         .... reaction4-IEIP_ts_guess_scan_3-9_orca
 Hartree-Fock type      HFTyp           .... RHF
 Total Charge           Charge          ....    1
 Multiplicity           Mult            ....    1
 Number of Electrons    NEL             ....  164
 Basis Dimension        Dim             ....  358
 Nuclear Repulsion      ENuc            ....   2037.6611134879 Eh

Convergence Acceleration:
 DIIS                   CNVDIIS         .... on
   Start iteration      DIISMaxIt       ....    12
   Startup error        DIISStart       ....  0.200000
   # of expansion vecs  DIISMaxEq       ....     5
   Bias factor          DIISBfac        ....   1.050
   Max. coefficient     DIISMaxC        ....  10.000
 Trust-Rad. Augm. Hess. CNVTRAH         .... auto
   Auto Start mean grad. ratio tolernc. ....  1.125000
   Auto Start start iteration           ....    20
   Auto Start num. interpolation iter.  ....    10
   Max. Number of Micro iterations      ....    16
   Max. Number of Macro iterations      .... Maxiter - #DIIS iter
   Number of Davidson start vectors     ....     2
   Converg. threshold I  (grad. norm)   ....   1.000e-05
   Converg. threshold II (energy diff.) ....   1.000e-08
   Grad. Scal. Fac. for Micro threshold ....   0.100
   Minimum threshold for Micro iter.    ....   0.010
   NR start threshold (gradient norm)   ....   0.001
   Initial trust radius                 ....   0.400
   Minimum AH scaling param. (alpha)    ....   1.000
   Maximum AH scaling param. (alpha)    .... 1000.000
   Orbital update algorithm             .... Taylor
   White noise on init. David. guess    .... on
   Maximum white noise                  ....   0.010
   Quad. conv. algorithm                .... NR
   COSX micro iterations for RIJONX calc.... off
 SOSCF                  CNVSOSCF        .... off
 Level Shifting         CNVShift        .... on
   Level shift para.    LevelShift      ....    0.2500
   Turn off err/grad.   ShiftErr        ....    0.0010
 Zerner damping         CNVZerner       .... off
 Static damping         CNVDamp         .... on
   Fraction old density DampFac         ....    0.7000
   Max. Damping (<1)    DampMax         ....    0.9800
   Min. Damping (>=0)   DampMin         ....    0.0000
   Turn off err/grad.   DampErr         ....    0.1000
 Fernandez-Rico         CNVRico         .... off

SCF Procedure:
 Maximum # iterations   MaxIter         ....   250
 SCF integral mode      SCFMode         .... Direct
   Integral package                     .... SHARK and LIBINT hybrid scheme
 Reset frequency        DirectResetFreq ....    20
 Integral Threshold     Thresh          ....  2.500e-11 Eh
 Primitive CutOff       TCut            ....  2.500e-12 Eh

Convergence Tolerance:
 Convergence Check Mode ConvCheckMode   .... Total+1el-Energy
 Convergence forced     ConvForced      .... 0
 Energy Change          TolE            ....  1.000e-08 Eh
 1-El. energy change                    ....  1.000e-05 Eh
 DIIS Error             TolErr          ....  5.000e-07


Diagonalization of the overlap matrix:
Smallest eigenvalue                        ... 1.129e-03
Time for diagonalization                   ...    0.017 sec
Threshold for overlap eigenvalues          ... 1.000e-08
Number of eigenvalues below threshold      ... 0
Time for construction of square roots      ...    0.006 sec
Total time needed                          ...    0.023 sec

--------------------
INITIAL GUESS: HCORE
--------------------
                      -----------------
                      INTIAL GUESS DONE 
                      -----------------
-------------------
DFT GRID GENERATION
-------------------

General Integration Accuracy     IntAcc      ... 4.159
Radial Grid Type                 RadialGrid  ... OptM3 with GC (2021)
Angular Grid (max. ang.)         AngularGrid ... 3 (Lebedev-194)
Angular grid pruning method      GridPruning ... 4 (adaptive)
Weight generation scheme         WeightScheme... Becke
Basis function cutoff            BFCut       ... 1.0000e-11
Integration weight cutoff        WCut        ... 1.0000e-14
Angular grids for H and He will be reduced by one unit
Partially contracted basis set               ... off
Rotationally invariant grid construction     ... off

Total number of grid points                  ...    93296
Total number of batches                      ...     1481
Average number of points per batch           ...       62
Average number of grid points per atom       ...     2392
Time for grid setup =    1.696 sec

--------------------
COSX GRID GENERATION
--------------------

GRIDX 1
-------
General Integration Accuracy     IntAcc      ... 3.816
Radial Grid Type                 RadialGrid  ... OptM3 with GC (2021)
Angular Grid (max. ang.)         AngularGrid ... 1 (Lebedev-50)
Angular grid pruning method      GridPruning ... 4 (adaptive)
Weight generation scheme         WeightScheme... Becke
Basis function cutoff            BFCut       ... 1.0000e-11
Integration weight cutoff        WCut        ... 1.0000e-14
Angular grids for H and He will be reduced by one unit
Partially contracted basis set               ... on
Rotationally invariant grid construction     ... off

Total number of grid points                  ...    23166
Total number of batches                      ...      382
Average number of points per batch           ...       60
Average number of grid points per atom       ...      594
UseSFitting                                  ... on

GRIDX 2
-------
General Integration Accuracy     IntAcc      ... 4.020
Radial Grid Type                 RadialGrid  ... OptM3 with GC (2021)
Angular Grid (max. ang.)         AngularGrid ... 2 (Lebedev-110)
Angular grid pruning method      GridPruning ... 4 (adaptive)
Weight generation scheme         WeightScheme... Becke
Basis function cutoff            BFCut       ... 1.0000e-11
Integration weight cutoff        WCut        ... 1.0000e-14
Angular grids for H and He will be reduced by one unit
Partially contracted basis set               ... on
Rotationally invariant grid construction     ... off

Total number of grid points                  ...    50300
Total number of batches                      ...      805
Average number of points per batch           ...       62
Average number of grid points per atom       ...     1290
UseSFitting                                  ... on

GRIDX 3
-------
General Integration Accuracy     IntAcc      ... 4.338
Radial Grid Type                 RadialGrid  ... OptM3 with GC (2021)
Angular Grid (max. ang.)         AngularGrid ... 3 (Lebedev-194)
Angular grid pruning method      GridPruning ... 4 (adaptive)
Weight generation scheme         WeightScheme... Becke
Basis function cutoff            BFCut       ... 1.0000e-11
Integration weight cutoff        WCut        ... 1.0000e-14
Angular grids for H and He will be reduced by one unit
Partially contracted basis set               ... on
Rotationally invariant grid construction     ... off

Total number of grid points                  ...   108792
Total number of batches                      ...     1719
Average number of points per batch           ...       63
Average number of grid points per atom       ...     2790
UseSFitting                                  ... on

Time for X-Grid setup             =    4.518 sec

--------------
SCF ITERATIONS
--------------
ITER       Energy         Delta-E        Max-DP      RMS-DP      [F,P]     Damp
               ***  Starting incremental Fock matrix formation  ***
  0   -871.7224222595   0.00000000000019.51934163  0.14979097  2.6262387 0.7000
  1  -1101.7701055560-230.047683296489 8.95963737  0.11396922  1.4876414 0.7000
  2  -1167.6149540872 -65.844848531256 5.43561447  0.06504391  1.0258400 0.7000
  3  -1192.7694879719 -25.154533884702 3.77413708  0.04511876  0.7297869 0.7000
  4  -1210.1325100643 -17.363022092393 2.66460044  0.03557478  0.4478157 0.7000
  5  -1225.5853657272 -15.452855662867 2.20003768  0.03079281  0.3389956 0.7000
  6  -1235.2052695969  -9.619903869703 1.81443094  0.02936389  0.3306953 0.7000
  7  -1242.2841241506  -7.078854553742 1.67808888  0.02627870  0.3299995 0.7000
  8  -1246.4179736938  -4.133849543173 1.61099434  0.02603736  0.3871398 0.7000
  9  -1250.5442135925  -4.126239898746 1.47281758  0.02425676  0.3457466 0.7000
 10  -1253.9402582708  -3.396044678259 1.57841941  0.02626493  0.3686462 0.7000
 11  -1255.3772271847  -1.436968913905 1.50617607  0.02305726  0.3277559 0.7000
                               ***Turning on DIIS***
 12  -1258.9775684115  -3.600341226813 1.49163388  0.02390474  0.3389995 0.7000
 13  -1259.3080007778  -0.330432366268 1.38922762  0.01937919  0.2948959 0.7000
 14  -1268.4563787836  -9.148378005807 0.96737052  0.01372371  0.2091311 0.7000
 15  -1274.7940679104  -6.337689126834 0.67320881  0.00970394  0.1529143 0.7000
 16  -1279.0834992080  -4.289431297580 1.55926759  0.02281167  0.0927566 0.0000
 17  -1288.3381615388  -9.254662330744 0.05811616  0.00094178  0.0574438 0.0000
 18  -1288.4069334761  -0.068771937336 0.05590982  0.00085790  0.0339325 0.0000
 19  -1288.4283371429  -0.021403666810 0.03451567  0.00050107  0.0295547 0.0000
               *** Restarting incremental Fock matrix formation ***
                                   *** Resetting DIIS ***
 20  -1288.4397136900  -0.011376547073 0.00976434  0.00031984  0.0062755 0.0000
 21  -1288.4411189761  -0.001405286160 0.00427245  0.00009863  0.0066951 0.0000
 22  -1288.4417046604  -0.000585684275 0.00390579  0.00006771  0.0015775 0.0000
 23  -1288.4417997462  -0.000095085746 0.00293099  0.00003429  0.0013177 0.0000
 24  -1288.4418385164  -0.000038770239 0.00278553  0.00003477  0.0006912 0.0000
               *** Restarting incremental Fock matrix formation ***
                                   *** Resetting DIIS ***
 25  -1288.4430120738  -0.001173557379 0.00450503  0.00008298  0.0007801 0.0000
 26  -1288.4430259688  -0.000013895064 0.00148020  0.00001522  0.0010910 0.0000
 27  -1288.4430309288  -0.000004959968 0.00053513  0.00000737  0.0004274 0.0000
 28  -1288.4430320398  -0.000001111013 0.00014221  0.00000220  0.0001417 0.0000
 29  -1288.4430321159  -0.000000076059 0.00008292  0.00000125  0.0000904 0.0000
 30  -1288.4430321584  -0.000000042535 0.00005585  0.00000066  0.0000298 0.0000
 31  -1288.4430321678  -0.000000009405 0.00003774  0.00000039  0.0000090 0.0000
 32  -1288.4430321694  -0.000000001626 0.00001662  0.00000022  0.0000053 0.0000
 33  -1288.4430321597   0.000000009778 0.00000855  0.00000009  0.0000019 0.0000
 34  -1288.4430321603  -0.000000000647 0.00000432  0.00000004  0.0000020 0.0000
                            ***DIIS convergence achieved***

               *****************************************************
               *                     SUCCESS                       *
               *           SCF CONVERGED AFTER  35 CYCLES          *
               *****************************************************

Old exchange energy                            =    -59.658295744 Eh
New exchange energy                            =    -59.658247165 Eh
Exchange energy change after final integration =      0.000048578 Eh
Total energy after final integration           =  -1288.442983578 Eh
Final COS-X integration done in                =    57.633 sec

----------------
TOTAL SCF ENERGY
----------------

Total Energy       :        -1288.44298358 Eh          -35060.31602 eV

Components:
Nuclear Repulsion  :         2037.66111349 Eh           55447.57780 eV
Electronic Energy  :        -3326.10409707 Eh          -90507.89381 eV
One Electron Energy:        -5830.79985693 Eh         -158664.13044 eV
Two Electron Energy:         2504.69575986 Eh           68156.23662 eV
Max COSX asymmetry :            0.00001923 Eh               0.00052 eV

Virial components:
Potential Energy   :        -2501.56594137 Eh          -68071.06993 eV
Kinetic Energy     :         1213.12295779 Eh           33010.75392 eV
Virial Ratio       :            2.06208771


DFT components:
N(Alpha)           :       82.000490871313 electrons
N(Beta)            :       82.000490871313 electrons
N(Total)           :      164.000981742626 electrons
E(X)               :      -79.592785316775 Eh       
E(C)               :       -7.454868505579 Eh       
E(XC)              :      -87.047653822354 Eh       
DFET-embed. en.    :        0.000000000000 Eh       

---------------
SCF CONVERGENCE
---------------

  Last Energy change         ...    4.0468e-09  Tolerance :   1.0000e-08
  Last MAX-Density change    ...    0.0000e+00  Tolerance :   1.0000e-07
  Last RMS-Density change    ...    0.0000e+00  Tolerance :   5.0000e-09
  Last DIIS Error            ...    9.2261e-07  Tolerance :   5.0000e-07

             **** THE GBW FILE WAS UPDATED (reaction4-IEIP_ts_guess_scan_3-9_orca.gbw) ****
             **** DENSITY reaction4-IEIP_ts_guess_scan_3-9_orca.scfp WAS UPDATED ****
             **** ENERGY FILE WAS UPDATED (reaction4-IEIP_ts_guess_scan_3-9_orca.en.tmp) ****
             **** THE GBW FILE WAS UPDATED (reaction4-IEIP_ts_guess_scan_3-9_orca.gbw) ****
             **** DENSITY reaction4-IEIP_ts_guess_scan_3-9_orca.scfp WAS UPDATED ****
----------------
ORBITAL ENERGIES
----------------

  NO   OCC          E(Eh)            E(eV) 
   0   2.0000     -89.759717     -2442.4861 
   1   2.0000     -19.626337      -534.0598 
   2   2.0000     -19.593562      -533.1679 
   3   2.0000     -14.839668      -403.8079 
   4   2.0000     -10.684801      -290.7482 
   5   2.0000     -10.660773      -290.0944 
   6   2.0000     -10.637186      -289.4525 
   7   2.0000     -10.633737      -289.3587 
   8   2.0000     -10.632699      -289.3304 
   9   2.0000     -10.631711      -289.3036 
  10   2.0000     -10.630882      -289.2810 
  11   2.0000     -10.628969      -289.2290 
  12   2.0000     -10.616025      -288.8767 
  13   2.0000     -10.608285      -288.6661 
  14   2.0000     -10.582102      -287.9536 
  15   2.0000     -10.579227      -287.8754 
  16   2.0000     -10.556876      -287.2672 
  17   2.0000     -10.551976      -287.1339 
  18   2.0000     -10.534957      -286.6708 
  19   2.0000      -8.399050      -228.5498 
  20   2.0000      -6.289104      -171.1352 
  21   2.0000      -6.285479      -171.0366 
  22   2.0000      -6.283806      -170.9911 
  23   2.0000      -4.029992      -109.6616 
  24   2.0000      -2.349221       -63.9256 
  25   2.0000      -2.315091       -62.9968 
  26   2.0000      -2.313262       -62.9471 
  27   2.0000      -1.310382       -35.6573 
  28   2.0000      -1.214475       -33.0475 
  29   2.0000      -1.211728       -32.9728 
  30   2.0000      -1.173504       -31.9327 
  31   2.0000      -1.124091       -30.5881 
  32   2.0000      -1.026448       -27.9311 
  33   2.0000      -0.988384       -26.8953 
  34   2.0000      -0.978380       -26.6231 
  35   2.0000      -0.963640       -26.2220 
  36   2.0000      -0.958021       -26.0691 
  37   2.0000      -0.929695       -25.2983 
  38   2.0000      -0.903148       -24.5759 
  39   2.0000      -0.872664       -23.7464 
  40   2.0000      -0.797341       -21.6967 
  41   2.0000      -0.789393       -21.4805 
  42   2.0000      -0.787819       -21.4376 
  43   2.0000      -0.780080       -21.2271 
  44   2.0000      -0.772619       -21.0240 
  45   2.0000      -0.759098       -20.6561 
  46   2.0000      -0.744240       -20.2518 
  47   2.0000      -0.723702       -19.6929 
  48   2.0000      -0.694019       -18.8852 
  49   2.0000      -0.675571       -18.3832 
  50   2.0000      -0.665111       -18.0986 
  51   2.0000      -0.651957       -17.7407 
  52   2.0000      -0.649572       -17.6758 
  53   2.0000      -0.640541       -17.4300 
  54   2.0000      -0.638384       -17.3713 
  55   2.0000      -0.632105       -17.2005 
  56   2.0000      -0.623466       -16.9654 
  57   2.0000      -0.611139       -16.6299 
  58   2.0000      -0.609057       -16.5733 
  59   2.0000      -0.607776       -16.5384 
  60   2.0000      -0.596522       -16.2322 
  61   2.0000      -0.587734       -15.9931 
  62   2.0000      -0.576481       -15.6869 
  63   2.0000      -0.570110       -15.5135 
  64   2.0000      -0.563167       -15.3246 
  65   2.0000      -0.556756       -15.1501 
  66   2.0000      -0.552815       -15.0429 
  67   2.0000      -0.548685       -14.9305 
  68   2.0000      -0.539848       -14.6900 
  69   2.0000      -0.535390       -14.5687 
  70   2.0000      -0.528286       -14.3754 
  71   2.0000      -0.520789       -14.1714 
  72   2.0000      -0.516234       -14.0474 
  73   2.0000      -0.507050       -13.7975 
  74   2.0000      -0.491574       -13.3764 
  75   2.0000      -0.481089       -13.0911 
  76   2.0000      -0.465531       -12.6677 
  77   2.0000      -0.451254       -12.2792 
  78   2.0000      -0.442682       -12.0460 
  79   2.0000      -0.422044       -11.4844 
  80   2.0000      -0.416980       -11.3466 
  81   2.0000      -0.402558       -10.9542 
  82   0.0000      -0.199354        -5.4247 
  83   0.0000      -0.162857        -4.4316 
  84   0.0000      -0.141144        -3.8407 
  85   0.0000      -0.097666        -2.6576 
  86   0.0000      -0.075807        -2.0628 
  87   0.0000      -0.068087        -1.8527 
  88   0.0000      -0.058715        -1.5977 
  89   0.0000      -0.054893        -1.4937 
  90   0.0000      -0.044218        -1.2032 
  91   0.0000      -0.035103        -0.9552 
  92   0.0000      -0.004570        -0.1244 
  93   0.0000      -0.003253        -0.0885 
  94   0.0000       0.011400         0.3102 
  95   0.0000       0.021680         0.5899 
  96   0.0000       0.027223         0.7408 
  97   0.0000       0.036107         0.9825 
  98   0.0000       0.044598         1.2136 
  99   0.0000       0.056908         1.5485 
 100   0.0000       0.068947         1.8761 
 101   0.0000       0.071130         1.9355 
 102   0.0000       0.072751         1.9797 
 103   0.0000       0.078569         2.1380 
 104   0.0000       0.082851         2.2545 
 105   0.0000       0.089356         2.4315 
 106   0.0000       0.093704         2.5498 
 107   0.0000       0.100509         2.7350 
 108   0.0000       0.107397         2.9224 
 109   0.0000       0.113256         3.0818 
 110   0.0000       0.115303         3.1375 
 111   0.0000       0.120731         3.2852 
 112   0.0000       0.122598         3.3361 
 113   0.0000       0.125669         3.4196 
 114   0.0000       0.130626         3.5545 
 115   0.0000       0.136634         3.7180 
 116   0.0000       0.142154         3.8682 
 117   0.0000       0.154136         4.1943 
 118   0.0000       0.156651         4.2627 
 119   0.0000       0.158729         4.3192 
 120   0.0000       0.166895         4.5415 
 121   0.0000       0.179791         4.8923 
 122   0.0000       0.189411         5.1541 
 123   0.0000       0.200211         5.4480 
 124   0.0000       0.224377         6.1056 
 125   0.0000       0.232193         6.3183 
 126   0.0000       0.258576         7.0362 
 127   0.0000       0.269198         7.3252 
 128   0.0000       0.279402         7.6029 
 129   0.0000       0.292123         7.9491 
 130   0.0000       0.302437         8.2297 
 131   0.0000       0.310177         8.4403 
 132   0.0000       0.322462         8.7746 
 133   0.0000       0.336890         9.1673 
 134   0.0000       0.342076         9.3084 
 135   0.0000       0.356785         9.7086 
 136   0.0000       0.362008         9.8507 
 137   0.0000       0.371561        10.1107 
 138   0.0000       0.383563        10.4373 
 139   0.0000       0.397275        10.8104 
 140   0.0000       0.402015        10.9394 
 141   0.0000       0.418693        11.3932 
 142   0.0000       0.422932        11.5086 
 143   0.0000       0.436936        11.8896 
 144   0.0000       0.443282        12.0623 
 145   0.0000       0.449297        12.2260 
 146   0.0000       0.457156        12.4399 
 147   0.0000       0.458829        12.4854 
 148   0.0000       0.468161        12.7393 
 149   0.0000       0.478472        13.0199 
 150   0.0000       0.482707        13.1351 
 151   0.0000       0.488094        13.2817 
 152   0.0000       0.493938        13.4407 
 153   0.0000       0.498990        13.5782 
 154   0.0000       0.509450        13.8629 
 155   0.0000       0.515197        14.0192 
 156   0.0000       0.529253        14.4017 
 157   0.0000       0.532176        14.4813 
 158   0.0000       0.544357        14.8127 
 159   0.0000       0.547430        14.8963 
 160   0.0000       0.557913        15.1816 
 161   0.0000       0.564574        15.3628 
 162   0.0000       0.572842        15.5878 
 163   0.0000       0.583825        15.8867 
 164   0.0000       0.587594        15.9892 
 165   0.0000       0.596465        16.2306 
 166   0.0000       0.609211        16.5775 
 167   0.0000       0.617375        16.7996 
 168   0.0000       0.631239        17.1769 
 169   0.0000       0.638270        17.3682 
[...]

----------------------
LOEWDIN ATOMIC CHARGES
----------------------
   0 Ir:   -0.219926
   1 C :   -0.039906
   2 C :   -0.064420
   3 C :   -0.052385
   4 C :   -0.054292
   5 C :   -0.024840
   6 N :   -0.010268
   7 C :   -0.068736
   8 C :   -0.364377
   9 H :    0.157048
  10 H :    0.133651
  11 H :    0.146358
  12 C :   -0.343717
  13 H :    0.155899
  14 H :    0.152746
  15 H :    0.137314
  16 H :    0.133434
  17 C :    0.035235
  18 C :   -0.191680
  19 H :    0.161809
  20 C :   -0.199038
  21 C :   -0.141538
  22 S :    0.466341
  23 C :   -0.261820
  24 H :    0.302371
  25 H :    0.160922
  26 H :    0.167440
  27 H :    0.185371
  28 H :    0.185682
  29 H :    0.193090
  30 O :   -0.275802
  31 O :   -0.202688
  32 C :    0.159239
  33 C :   -0.375040
  34 H :    0.160503
  35 H :    0.168054
  36 H :    0.154019
  37 H :    0.187177
  38 H :    0.186769

-------------------------------
LOEWDIN REDUCED ORBITAL CHARGES
-------------------------------
  0 Irs       :     2.453150  s :     2.453150
      pz      :     2.239719  p :     6.746501
      px      :     2.238388
      py      :     2.268394
      dz2     :     1.842837  d :     7.931283
      dxz     :     1.730151
      dyz     :     1.276866
      dx2y2   :     1.641453
      dxy     :     1.439975
      f0      :     0.011353  f :     0.088993
      f+1     :     0.003253
      f-1     :     0.012952
      f+2     :     0.017131
      f-2     :     0.016397
      f+3     :     0.011245
      f-3     :     0.016661
  1 C s       :     2.875429  s :     2.875429
      pz      :     1.048040  p :     3.059983
      px      :     1.087707
      py      :     0.924235
      dz2     :     0.026403  d :     0.104493
      dxz     :     0.027099
      dyz     :     0.017485
      dx2y2   :     0.018536
      dxy     :     0.014971
  2 C s       :     2.874477  s :     2.874477
      pz      :     1.045593  p :     3.087665
      px      :     1.075852
      py      :     0.966219
      dz2     :     0.025581  d :     0.102278
      dxz     :     0.027742
      dyz     :     0.017558
      dx2y2   :     0.018245
      dxy     :     0.013153
  3 C s       :     2.875035  s :     2.875035
      pz      :     1.035530  p :     3.075425
      px      :     1.077934
      py      :     0.961961
      dz2     :     0.024073  d :     0.101925
      dxz     :     0.032172
      dyz     :     0.016065
      dx2y2   :     0.015254
      dxy     :     0.014362
  4 C s       :     2.874157  s :     2.874157
      pz      :     1.092489  p :     3.077909
      px      :     1.035796
      py      :     0.949623
      dz2     :     0.022496  d :     0.102226
      dxz     :     0.031658
      dyz     :     0.012919
      dx2y2   :     0.017715
      dxy     :     0.017438
  5 C s       :     2.877398  s :     2.877398
      pz      :     1.063138  p :     3.043215
      px      :     1.033781
      py      :     0.946296
      dz2     :     0.024996  d :     0.104227
      dxz     :     0.030255
      dyz     :     0.015656
      dx2y2   :     0.015567
      dxy     :     0.017753
  6 N s       :     3.122636  s :     3.122636
      pz      :     1.268090  p :     3.789653
      px      :     1.290802
      py      :     1.230760
      dz2     :     0.030070  d :     0.097980
      dxz     :     0.027573
      dyz     :     0.018792
      dx2y2   :     0.011542
      dxy     :     0.010004
  7 C s       :     2.862303  s :     2.862303
      pz      :     1.062310  p :     3.072119
      px      :     0.935595
      py      :     1.074215
      dz2     :     0.024025  d :     0.134314
      dxz     :     0.028437
      dyz     :     0.019489
      dx2y2   :     0.029409
      dxy     :     0.032954
  8 C s       :     2.953287  s :     2.953287
      pz      :     1.130310  p :     3.343630
      px      :     1.123884
      py      :     1.089436
      dz2     :     0.011862  d :     0.067460
      dxz     :     0.017856
      dyz     :     0.010487
      dx2y2   :     0.008893
      dxy     :     0.018362
  9 H s       :     0.842952  s :     0.842952
 10 H s       :     0.866349  s :     0.866349
 11 H s       :     0.853642  s :     0.853642
 12 C s       :     2.953006  s :     2.953006
      pz      :     1.139790  p :     3.322778
      px      :     1.111856
      py      :     1.071132
      dz2     :     0.010094  d :     0.067934
      dxz     :     0.013204
      dyz     :     0.015904
      dx2y2   :     0.011168
      dxy     :     0.017564
 13 H s       :     0.844101  s :     0.844101
 14 H s       :     0.847254  s :     0.847254
 15 H s       :     0.862686  s :     0.862686
 16 H s       :     0.866566  s :     0.866566
 17 C s       :     2.878297  s :     2.878297
      pz      :     1.021109  p :     2.945728
      px      :     1.065416
      py      :     0.859203
      dz2     :     0.040435  d :     0.140740
      dxz     :     0.051314
      dyz     :     0.024632
      dx2y2   :     0.011746
      dxy     :     0.012612
 18 C s       :     2.895748  s :     2.895748
      pz      :     1.042626  p :     3.184033
      px      :     1.089283
      py      :     1.052125
      dz2     :     0.031507  d :     0.111899
      dxz     :     0.030224
      dyz     :     0.016852
      dx2y2   :     0.020327
      dxy     :     0.012989
 19 H s       :     0.838191  s :     0.838191
 20 C s       :     2.923816  s :     2.923816
      pz      :     1.108939  p :     3.186592
      px      :     1.047496
      py      :     1.030158
      dz2     :     0.010665  d :     0.088630
      dxz     :     0.033701
      dyz     :     0.008983
      dx2y2   :     0.016905
      dxy     :     0.018375
 21 C s       :     2.898554  s :     2.898554
      pz      :     1.069043  p :     3.148619
      px      :     1.090287
      py      :     0.989288
      dz2     :     0.025394  d :     0.094365
      dxz     :     0.028711
      dyz     :     0.014338
      dx2y2   :     0.016278
      dxy     :     0.009643
 22 S s       :     5.504677  s :     5.504677
      pz      :     3.281831  p :     9.876202
      px      :     3.083990
      py      :     3.510382
      dz2     :     0.041221  d :     0.152780
      dxz     :     0.031854
      dyz     :     0.022621
      dx2y2   :     0.032427
      dxy     :     0.024657
 23 C s       :     2.965368  s :     2.965368
      pz      :     1.117058  p :     3.210520
      px      :     1.022449
      py      :     1.071013
      dz2     :     0.021314  d :     0.085933
      dxz     :     0.027749
      dyz     :     0.012346
      dx2y2   :     0.013606
      dxy     :     0.010918
 24 H s       :     0.697629  s :     0.697629
 25 H s       :     0.839078  s :     0.839078
 26 H s       :     0.832560  s :     0.832560
 27 H s       :     0.814629  s :     0.814629
 28 H s       :     0.814318  s :     0.814318
 29 H s       :     0.806910  s :     0.806910
 30 O s       :     3.505667  s :     3.505667
      pz      :     1.456980  p :     4.715341
      px      :     1.537415
      py      :     1.720946
      dz2     :     0.017540  d :     0.054794
      dxz     :     0.013013
      dyz     :     0.016541
      dx2y2   :     0.004298
      dxy     :     0.003402
 31 O s       :     3.444588  s :     3.444588
      pz      :     1.696617  p :     4.698859
      px      :     1.621303
      py      :     1.380939
      dz2     :     0.009308  d :     0.059242
      dxz     :     0.003667
      dyz     :     0.016305
      dx2y2   :     0.015400
      dxy     :     0.014562
 32 C s       :     2.813132  s :     2.813132
      pz      :     0.999062  p :     2.705646
      px      :     0.754413
      py      :     0.952172
      dz2     :     0.075743  d :     0.321983
      dxz     :     0.045857
      dyz     :     0.107069
      dx2y2   :     0.045262
      dxy     :     0.048052
 33 C s       :     2.959388  s :     2.959388
      pz      :     1.097122  p :     3.352961
      px      :     1.150238
      py      :     1.105601
      dz2     :     0.005481  d :     0.062690
      dxz     :     0.017214
      dyz     :     0.019568
      dx2y2   :     0.018226
      dxy     :     0.002201
 34 H s       :     0.839497  s :     0.839497
 35 H s       :     0.831946  s :     0.831946
 36 H s       :     0.845981  s :     0.845981
 37 H s       :     0.812823  s :     0.812823
 38 H s       :     0.813231  s :     0.813231


                      *****************************
                      * MAYER POPULATION ANALYSIS *
                      *****************************

  NA   - Mulliken gross atomic population
  ZA   - Total nuclear charge
  QA   - Mulliken gross atomic charge
  VA   - Mayer's total valence
  BVA  - Mayer's bonded valence
  FA   - Mayer's free valence

  ATOM       NA         ZA         QA         VA         BVA        FA
  0 Ir    16.3840    17.0000     0.6160     3.7508     3.7508     0.0000
  1 C      6.2102     6.0000    -0.2102     3.6984     3.6984    -0.0000
  2 C      6.2915     6.0000    -0.2915     3.7422     3.7422     0.0000
  3 C      6.2345     6.0000    -0.2345     3.7318     3.7318     0.0000
  4 C      6.2447     6.0000    -0.2447     3.7238     3.7238    -0.0000
  5 C      6.1670     6.0000    -0.1670     3.6925     3.6925     0.0000
  6 N      7.4330     7.0000    -0.4330     3.2161     3.2161     0.0000
  7 C      6.1201     6.0000    -0.1201     3.7005     3.7005    -0.0000
  8 C      6.6920     6.0000    -0.6920     3.6874     3.6874    -0.0000
  9 H      0.7283     1.0000     0.2717     0.8967     0.8967    -0.0000
 10 H      0.7741     1.0000     0.2259     0.9096     0.9096     0.0000
 11 H      0.7403     1.0000     0.2597     0.8979     0.8979    -0.0000
 12 C      6.6378     6.0000    -0.6378     3.6733     3.6733     0.0000
 13 H      0.7194     1.0000     0.2806     0.8750     0.8750     0.0000
 14 H      0.7362     1.0000     0.2638     0.8968     0.8968     0.0000
 15 H      0.7689     1.0000     0.2311     0.9095     0.9095    -0.0000
 16 H      0.7684     1.0000     0.2316     0.9058     0.9058     0.0000
 17 C      5.9306     6.0000     0.0694     3.6408     3.6408     0.0000
 18 C      6.1915     6.0000    -0.1915     3.7124     3.7124     0.0000
 19 H      0.7103     1.0000     0.2897     0.8862     0.8862     0.0000
 20 C      6.4379     6.0000    -0.4379     3.4581     3.4581     0.0000
 21 C      6.1405     6.0000    -0.1405     3.7589     3.7589     0.0000
 22 S     15.6953    16.0000     0.3047     2.5703     2.5703    -0.0000
 23 C      6.4282     6.0000    -0.4282     3.7465     3.7465     0.0000
 24 H      0.4995     1.0000     0.5005     0.7291     0.7291    -0.0000
 25 H      0.7360     1.0000     0.2640     0.9040     0.9040     0.0000
 26 H      0.7038     1.0000     0.2962     0.8978     0.8978     0.0000
 27 H      0.7081     1.0000     0.2919     0.9017     0.9017    -0.0000
 28 H      0.7076     1.0000     0.2924     0.9050     0.9050     0.0000
 29 H      0.6944     1.0000     0.3056     0.8923     0.8923    -0.0000
 30 O      8.4877     8.0000    -0.4877     2.1092     2.1092    -0.0000
 31 O      8.5361     8.0000    -0.5361     2.0806     2.0806     0.0000
 32 C      5.3789     6.0000     0.6211     3.9106     3.9106    -0.0000
 33 C      6.7455     6.0000    -0.7455     3.6666     3.6666    -0.0000
 34 H      0.7295     1.0000     0.2705     0.8949     0.8949    -0.0000
 35 H      0.7323     1.0000     0.2677     0.8948     0.8948    -0.0000
 36 H      0.7453     1.0000     0.2547     0.9004     0.9004     0.0000
 37 H      0.7062     1.0000     0.2938     0.9012     0.9012    -0.0000
 38 H      0.7044     1.0000     0.2956     0.9021     0.9021     0.0000

  Mayer bond orders larger than 0.100000
B(  0-Ir,  1-C ) :   0.4218 B(  0-Ir,  2-C ) :   0.5348 B(  0-Ir,  3-C ) :   0.4598 
B(  0-Ir,  4-C ) :   0.4542 B(  0-Ir,  5-C ) :   0.4034 B(  0-Ir,  6-N ) :   0.4675 
B(  0-Ir, 20-C ) :   0.2602 B(  0-Ir, 31-O ) :   0.5714 B(  1-C ,  2-C ) :   1.1176 
B(  1-C ,  4-C ) :   1.2421 B(  1-C , 27-H ) :   0.9030 B(  2-C ,  5-C ) :   1.1339 
B(  2-C , 28-H ) :   0.9074 B(  3-C ,  4-C ) :   1.1070 B(  3-C ,  5-C ) :   1.2330 
B(  3-C , 37-H ) :   0.9045 B(  4-C , 38-H ) :   0.8999 B(  5-C , 29-H ) :   0.8982 
B(  6-N ,  7-C ) :   0.8919 B(  6-N , 17-C ) :   1.6810 B(  7-C ,  8-C ) :   0.9920 
B(  7-C , 12-C ) :   0.9688 B(  7-C , 13-H ) :   0.8733 B(  8-C ,  9-H ) :   0.9037 
B(  8-C , 10-H ) :   0.9126 B(  8-C , 11-H ) :   0.9088 B( 12-C , 14-H ) :   0.9066 
B( 12-C , 15-H ) :   0.9155 B( 12-C , 16-H ) :   0.9118 B( 17-C , 18-C ) :   1.0680 
B( 17-C , 19-H ) :   0.8744 B( 18-C , 20-C ) :   1.2953 B( 18-C , 22-S ) :   1.2195 
B( 20-C , 21-C ) :   1.2757 B( 20-C , 24-H ) :   0.4463 B( 21-C , 23-C ) :   1.5433 
B( 21-C , 25-H ) :   0.9052 B( 22-S , 23-C ) :   1.2081 B( 23-C , 26-H ) :   0.8924 
B( 24-H , 30-O ) :   0.2547 B( 30-O , 32-C ) :   1.6623 B( 31-O , 32-C ) :   1.2954 
B( 32-C , 33-C ) :   0.9477 B( 33-C , 34-H ) :   0.9043 B( 33-C , 35-H ) :   0.8977 
B( 33-C , 36-H ) :   0.9090 


------------------
HIRSHFELD ANALYSIS
------------------

Total integrated alpha density =     82.000376463
Total integrated beta density  =     82.000376463

  ATOM     CHARGE      SPIN    
   0 Ir   0.202407    0.000000
   1 C    0.007543    0.000000
   2 C   -0.000214    0.000000
   3 C    0.002207    0.000000
   4 C   -0.002832    0.000000
   5 C    0.018141    0.000000
   6 N   -0.069733    0.000000
   7 C    0.053620    0.000000
   8 C   -0.071121    0.000000
   9 H    0.053726    0.000000
  10 H    0.037873    0.000000
  11 H    0.043460    0.000000
  12 C   -0.070676    0.000000
  13 H    0.046312    0.000000
  14 H    0.051341    0.000000
  15 H    0.036659    0.000000
  16 H    0.030401    0.000000
  17 C    0.100160    0.000000
  18 C   -0.010096    0.000000
  19 H    0.077265    0.000000
  20 C   -0.072971    0.000000
  21 C   -0.034697    0.000000
  22 S    0.120361    0.000000
  23 C   -0.027034    0.000000
  24 H    0.065953    0.000000
  25 H    0.068289    0.000000
  26 H    0.077265    0.000000
  27 H    0.084093    0.000000
  28 H    0.085177    0.000000
  29 H    0.094443    0.000000
  30 O   -0.248986    0.000000
  31 O   -0.256327    0.000000
  32 C    0.245167    0.000000
  33 C   -0.066850    0.000000
  34 H    0.055000    0.000000
  35 H    0.060047    0.000000
  36 H    0.049011    0.000000
  37 H    0.085930    0.000000
  38 H    0.078937    0.000000

  TOTAL   0.999247    0.000000

-------
TIMINGS
-------

Total SCF time: 0 days 0 hours 4 min 40 sec 

Total time                  ....     280.792 sec
Sum of individual times     ....     280.265 sec  ( 99.8%)

Fock matrix formation       ....     271.760 sec  ( 96.8%)
  Split-RI-J                ....      21.812 sec  (  8.0% of F)
  Chain of spheres X        ....     236.919 sec  ( 87.2% of F)
  XC integration            ....      13.012 sec  (  4.8% of F)
    Basis function eval.    ....       5.963 sec  ( 45.8% of XC)
    Density eval.           ....       3.420 sec  ( 26.3% of XC)
    XC-Functional eval.     ....       0.951 sec  (  7.3% of XC)
    XC-Potential eval.      ....       2.148 sec  ( 16.5% of XC)
Diagonalization             ....       0.202 sec  (  0.1%)
Density matrix formation    ....       0.033 sec  (  0.0%)
Population analysis         ....       1.128 sec  (  0.4%)
Initial guess               ....       0.024 sec  (  0.0%)
Orbital Transformation      ....       0.000 sec  (  0.0%)
Orbital Orthonormalization  ....       0.018 sec  (  0.0%)
DIIS solution               ....       0.088 sec  (  0.0%)
Grid generation             ....       7.031 sec  (  2.5%)

Maximum memory used throughout the entire SCF-calculation: 173.4 MB


-------------------------------------------------------------------------------
                          DFT DISPERSION CORRECTION                            
                                                                               
                              DFTD3 V3.1  Rev 1                                
                          USING Becke-Johnson damping                          
-------------------------------------------------------------------------------
The PBEh-3c composite method is recognized
Using three-body term ABC
Active option DFTDOPT                   ...         4   

molecular C6(AA) [au] = 19561.926172 


            DFT-D V3
 parameters
 s6 scaling factor         :     1.0000 
 a1 scaling factor         :     0.4860 
 s8 scaling factor         :     0.0000 
 a2 scaling factor         :     4.5000 
 Damping factor alpha9(ATM):    16.0000 
 ad hoc parameters k1-k3   :    16.0000     1.3333    -4.0000 

 Edisp/kcal,au: -19.274473832025  -0.030715825932 
 E6   /kcal   : -19.619920531 
 E8   /kcal   :  -0.000000000 
 E6(ABC)      :   0.345446698 
 % E8         :   0.000000000 
 % E6(ABC)    :  -1.792249695 

-------------------------   ----------------
Dispersion correction           -0.030715826
-------------------------   ----------------

 ** NOTE ** -> element ir will be treated as co
NOTIFICATION: Different basis set in ORCA and otool_gcp:
ORCA: 358  gCP: 357 
If you are NOT using ECPs, check your basis set inputs!
------------------   -----------------
gCP correction             0.077779333
------------------   -----------------

-------------------------   --------------------
FINAL SINGLE POINT ENERGY     -1288.396269352321
-------------------------   --------------------

                                *** OPTIMIZATION RUN DONE ***

                            ***************************************
                            *     ORCA property calculations      *
                            ***************************************

                                    ---------------------
                                    Active property flags
                                    ---------------------
   (+) Dipole Moment


------------------------------------------------------------------------------
                       ORCA ELECTRIC PROPERTIES CALCULATION
------------------------------------------------------------------------------

Dipole Moment Calculation                       ... on
Quadrupole Moment Calculation                   ... off
Polarizability Calculation                      ... off
GBWName                                         ... reaction4-IEIP_ts_guess_scan_3-9_orca.gbw
Electron density                                ... reaction4-IEIP_ts_guess_scan_3-9_orca.scfp
The origin for moment calculation is the CENTER OF MASS  = ( 0.844598, -0.623577 -0.114978)

-------------
DIPOLE MOMENT
-------------
                                X             Y             Z
Electronic contribution:     34.55298     -69.34426      76.63561
Nuclear contribution   :    -35.17481      68.22166     -76.82039
                        -----------------------------------------
Total Dipole Moment    :     -0.62182      -1.12259      -0.18478
                        -----------------------------------------
Magnitude (a.u.)       :      1.29654
Magnitude (Debye)      :      3.29555



--------------------
Rotational spectrum 
--------------------
 
Rotational constants in cm-1:     0.010608     0.008971     0.008181 
Rotational constants in MHz :   318.028368   268.934498   245.275079 

 Dipole components along the rotational axes: 
x,y,z [a.u.] :    -0.071877    -0.450030     1.213807 
x,y,z [Debye]:    -0.182698    -1.143886     3.085253 

 

Timings for individual modules:

Sum of individual times         ...     5549.157 sec (=  92.486 min)
GTO integral calculation        ...       18.146 sec (=   0.302 min)   0.3 %
SCF iterations                  ...     4464.105 sec (=  74.402 min)  80.4 %
SCF Gradient evaluation         ...     1064.430 sec (=  17.740 min)  19.2 %
Geometry relaxation             ...        2.477 sec (=   0.041 min)   0.0 %
                             ****ORCA TERMINATED NORMALLY****
TOTAL RUN TIME: 0 days 1 hours 32 minutes 32 seconds 860 msec
