
                                 *****************
                                 * O   R   C   A *
                                 *****************

                                            #,                                       
                                            ###                                      
                                            ####                                     
                                            #####                                    
                                            ######                                   
                                           ########,                                 
                                     ,,################,,,,,                         
                               ,,#################################,,                 
                          ,,##########################################,,             
                       ,#########################################, ''#####,          
                    ,#############################################,,   '####,        
                  ,##################################################,,,,####,       
                ,###########''''           ''''###############################       
              ,#####''   ,,,,##########,,,,          '''####'''          '####       
            ,##' ,,,,###########################,,,                        '##       
           ' ,,###''''                  '''############,,,                           
         ,,##''                                '''############,,,,        ,,,,,,###''
      ,#''                                            '''#######################'''  
     '                                                          ''''####''''         
             ,#######,   #######,   ,#######,      ##                                
            ,#'     '#,  ##    ##  ,#'     '#,    #''#        ######   ,####,        
            ##       ##  ##   ,#'  ##            #'  '#       #        #'  '#        
            ##       ##  #######   ##           ,######,      #####,   #    #        
            '#,     ,#'  ##    ##  '#,     ,#' ,#      #,         ##   #,  ,#        
             '#######'   ##     ##  '#######'  #'      '#     #####' # '####'        



                  #######################################################
                  #                        -***-                        #
                  #          Department of theory and spectroscopy      #
                  #    Directorship and core code : Frank Neese         #
                  #        Max Planck Institute fuer Kohlenforschung    #
                  #                Kaiser Wilhelm Platz 1               #
                  #                 D-45470 Muelheim/Ruhr               #
                  #                      Germany                        #
                  #                                                     #
                  #                  All rights reserved                #
                  #                        -***-                        #
                  #######################################################


                         Program Version 5.0.3 -  RELEASE  -


 With contributions from (in alphabetic order):
   Daniel Aravena         : Magnetic Suceptibility
   Michael Atanasov       : Ab Initio Ligand Field Theory (pilot matlab implementation)
   Alexander A. Auer      : GIAO ZORA, VPT2 properties, NMR spectrum
   Ute Becker             : Parallelization
   Giovanni Bistoni       : ED, misc. LED, open-shell LED, HFLD
   Martin Brehm           : Molecular dynamics
   Dmytro Bykov           : SCF Hessian
   Vijay G. Chilkuri      : MRCI spin determinant printing, contributions to CSF-ICE
   Dipayan Datta          : RHF DLPNO-CCSD density
   Achintya Kumar Dutta   : EOM-CC, STEOM-CC
   Dmitry Ganyushin       : Spin-Orbit,Spin-Spin,Magnetic field MRCI
   Miquel Garcia          : C-PCM and meta-GGA Hessian, CC/C-PCM, Gaussian charge scheme
   Yang Guo               : DLPNO-NEVPT2, F12-NEVPT2, CIM, IAO-localization
   Andreas Hansen         : Spin unrestricted coupled pair/coupled cluster methods
   Benjamin Helmich-Paris : MC-RPA, TRAH-SCF, COSX integrals
   Lee Huntington         : MR-EOM, pCC
   Robert Izsak           : Overlap fitted RIJCOSX, COSX-SCS-MP3, EOM
   Marcus Kettner         : VPT2
   Christian Kollmar      : KDIIS, OOCD, Brueckner-CCSD(T), CCSD density, CASPT2, CASPT2-K
   Simone Kossmann        : Meta GGA functionals, TD-DFT gradient, OOMP2, MP2 Hessian
   Martin Krupicka        : Initial AUTO-CI
   Lucas Lang             : DCDCAS
   Marvin Lechner         : AUTO-CI (C++ implementation), FIC-MRCC
   Dagmar Lenk            : GEPOL surface, SMD
   Dimitrios Liakos       : Extrapolation schemes; Compound Job, initial MDCI parallelization
   Dimitrios Manganas     : Further ROCIS development; embedding schemes
   Dimitrios Pantazis     : SARC Basis sets
   Anastasios Papadopoulos: AUTO-CI, single reference methods and gradients
   Taras Petrenko         : DFT Hessian,TD-DFT gradient, ASA, ECA, R-Raman, ABS, FL, XAS/XES, NRVS
   Peter Pinski           : DLPNO-MP2, DLPNO-MP2 Gradient
   Christoph Reimann      : Effective Core Potentials
   Marius Retegan         : Local ZFS, SOC
   Christoph Riplinger    : Optimizer, TS searches, QM/MM, DLPNO-CCSD(T), (RO)-DLPNO pert. Triples
   Tobias Risthaus        : Range-separated hybrids, TD-DFT gradient, RPA, STAB
   Michael Roemelt        : Original ROCIS implementation
   Masaaki Saitow         : Open-shell DLPNO-CCSD energy and density
   Barbara Sandhoefer     : DKH picture change effects
   Avijit Sen             : IP-ROCIS
   Kantharuban Sivalingam : CASSCF convergence, NEVPT2, FIC-MRCI
   Bernardo de Souza      : ESD, SOC TD-DFT
   Georgi Stoychev        : AutoAux, RI-MP2 NMR, DLPNO-MP2 response
   Willem Van den Heuvel  : Paramagnetic NMR
   Boris Wezisla          : Elementary symmetry handling
   Frank Wennmohs         : Technical directorship


 We gratefully acknowledge several colleagues who have allowed us to
 interface, adapt or use parts of their codes:
   Stefan Grimme, W. Hujo, H. Kruse, P. Pracht,  : VdW corrections, initial TS optimization,
                  C. Bannwarth, S. Ehlert          DFT functionals, gCP, sTDA/sTD-DF
   Ed Valeev, F. Pavosevic, A. Kumar             : LibInt (2-el integral package), F12 methods
   Garnet Chan, S. Sharma, J. Yang, R. Olivares  : DMRG
   Ulf Ekstrom                                   : XCFun DFT Library
   Mihaly Kallay                                 : mrcc  (arbitrary order and MRCC methods)
   Jiri Pittner, Ondrej Demel                    : Mk-CCSD
   Frank Weinhold                                : gennbo (NPA and NBO analysis)
   Christopher J. Cramer and Donald G. Truhlar   : smd solvation model
   Lars Goerigk                                  : TD-DFT with DH, B97 family of functionals
   V. Asgeirsson, H. Jonsson                     : NEB implementation
   FAccTs GmbH                                   : IRC, NEB, NEB-TS, DLPNO-Multilevel, CI-OPT
                                                   MM, QMMM, 2- and 3-layer-ONIOM, Crystal-QMMM,
                                                   LR-CPCM, SF, NACMEs, symmetry and pop. for TD-DFT,
                                                   nearIR, NL-DFT gradient (VV10), updates on ESD,
                                                   ML-optimized integration grids
   S Lehtola, MJT Oliveira, MAL Marques          : LibXC Library
   Liviu Ungur et al                             : ANISO software


 Your calculation uses the libint2 library for the computation of 2-el integrals
 For citations please refer to: http://libint.valeyev.net

 Your ORCA version has been built with support for libXC version: 5.1.0
 For citations please refer to: https://tddft.org/programs/libxc/

 This ORCA versions uses:
   CBLAS   interface :  Fast vector & matrix operations
   LAPACKE interface :  Fast linear algebra routines
   SCALAPACK package :  Parallel linear algebra routines
   Shared memory     :  Shared parallel matrices
   BLAS/LAPACK       :  OpenBLAS 0.3.15  USE64BITINT DYNAMIC_ARCH NO_AFFINITY SkylakeX SINGLE_THREADED
        Core in use  :  SkylakeX
   Copyright (c) 2011-2014, The OpenBLAS Project


Your calculation utilizes the geometrical counterpoise correction gCP
Please cite in your paper:
H.Kruse, S. Grimme J.Chem.Phys., 136, (2012), 154101 
   

Your calculation utilizes the atom-pairwise dispersion correction
with the Becke-Johnson damping scheme (D3BJ)
Cite in your paper:
S.Grimme, S.Ehrlich, L.Goerigk, J Comput Chem, (2011), 32, 1456–1465 
S.Grimme, J.Antony, S.Ehrlich and H.Krieg, J.Chem.Phys., 132, (2010), 154104 
   

Your calculation employs the composite approach PBEh-3c.
Please cite in your paper:
S. Grimme, J. G. Brandenburg, C. Bannwarth, A. Hansen J.Chem.Phys., 143, (2015), 054107 
   

================================================================================

cite the ECPs for Ir [Def2-ECP] as follows:
Ce-Yb(ecp-28): M. Dolg, H. Stoll, H.Preuss, J. Chem. Phys., 1989, 90, 1730-1734.
Y-Cd(ecp-28), Hf-Hg(ecp-46): D. Andrae,U. Haeussermann, M. Dolg, H. Stoll, H. Preuss, Theor. Chim. Acta, 1990, 77, 123-141.
In-Sb(ecp-28), Tl-Bi(ecp-46): B. Metz, H. Stoll, M. Dolg, J. Chem. Phys., 2000, 113, 2563-2569.
Te-Xe(ecp-28), Po-Rn(ecp-46): K. A. Peterson, D. Figgen, E. Goll, H. Stoll, M. Dolg, J. Chem. Phys., 2003, 119, 11113-11123.
Rb(ecp-28), Cs(ecp-46): T. Leininger, A. Nicklass, W. Kuechle, H. Stoll, M. Dolg, A. Bergner, Chem. Phys. Lett., 1996, 255, 274-280.
Sr(ecp-28), Ba(ecp-46): M. Kaupp, P. V. Schleyer, H. Stoll and H. Preuss, J. Chem. Phys., 1991, 94, 1360-1366.
La(ecp-46): M. Dolg, H. Stoll, A. Savin, H. Preuss, Theor. Chim. Acta, 1989, 75, 173-194.
Lu(ecp-28): X. Cao, M. Dolg, J. Chem. Phys., 2001, 115, 7348-7355.

ECP parameters for Ir [Def2-ECP] have been obtained from:
TURBOMOLE (7.0.2)

----- Orbital basis set information -----
Your calculation utilizes the basis: def2-mSVP

----- AuxJ basis set information -----
Your calculation utilizes the auxiliary basis: def2/J
   F. Weigend, Phys. Chem. Chem. Phys. 8, 1057 (2006).

================================================================================
                                        WARNINGS
                       Please study these warnings very carefully!
================================================================================


WARNING: Geometry Optimization
  ===> : Switching off AutoStart
         For restart on a previous wavefunction, please use MOREAD

WARNING: No Hueckel Guess possible with ECP basis!
  ===> : Switching to HCORE guess!

INFO   : the flag for use of the SHARK integral package has been found!

================================================================================
                                       INPUT FILE
================================================================================
NAME = reaction4-IEIP_ts_guess_scan_5-10_orca.inp
|  1> ! Opt PBEh-3c
|  2> %geom Constraints
|  3> { B 0 20 2.3857142857142857 C }
|  4> { B 24 30 1.3571428571428572 C }
|  5>     end
|  6> end
|  7> %output 
|  8> xyzfile=True 
|  9> end 
| 10> %scf 
| 11> maxiter 250 
| 12> end
| 13> %output
| 14> Print[P_Hirshfeld] = 1
| 15> end
| 16> % maxcore
| 17> 4000
| 18> *xyz 1 1
| 19> Ir   0.59385342  -0.72951425   0.48469690 
| 20> C    0.05629789  -2.81803859   0.37011028 
| 21> C    0.04161718  -2.35857743   1.73572865 
| 22> C    2.18829690  -2.12874072   0.92358642 
| 23> C    1.35894674  -2.65459165  -0.13667593 
| 24> C    1.38283335  -1.98161775   2.06918059 
| 25> N   -1.04059952   0.13816960  -0.50874285 
| 26> C   -2.31880285   0.42371821   0.16446560 
| 27> C   -3.10199025   1.56048196  -0.47429670 
| 28> H   -3.93262032   1.82689280   0.17790128 
| 29> H   -3.53863817   1.28761914  -1.43605070 
| 30> H   -2.49109292   2.45390877  -0.60535350 
| 31> C   -3.14776455  -0.85263011   0.24840441 
| 32> H   -2.04055822   0.72514413   1.17545215 
| 33> H   -4.06373475  -0.66011824   0.80517497 
| 34> H   -3.42936818  -1.20737814  -0.74391401 
| 35> H   -2.61654544  -1.65204476   0.76279835 
| 36> C   -0.86168814   0.37040990  -1.75415132 
| 37> C    0.47545238   0.18913233  -2.25997504 
| 38> H   -1.66544327   0.72468659  -2.39325566 
| 39> C    1.57741269   0.38436546  -1.43619934 
| 40> C    2.77585199   0.03836383  -2.12169474 
| 41> S    0.89515975  -0.35463302  -3.82033908 
| 42> C    2.55839003  -0.36776227  -3.40287507 
| 43> H    1.54762568   1.30760489  -0.61556588 
| 44> H    3.76431393   0.14177800  -1.69824310 
| 45> H    3.29224007  -0.65397361  -4.14111307 
| 46> H   -0.79294042  -3.19476122  -0.18159863 
| 47> H   -0.79529823  -2.39179309   2.41743910 
| 48> H    1.70144144  -1.57404733   3.01804175 
| 49> O    1.43828013   2.39677978   0.21060476 
| 50> O    0.54051237   0.94856509   1.64745240 
| 51> C    0.97631048   2.11102847   1.32076025 
| 52> C    0.92846758   3.14402120   2.40911117 
| 53> H    0.88803204   4.14576699   1.98993924 
| 54> H    1.84003671   3.07064195   3.00551397 
| 55> H    0.08688771   2.98322322   3.07894979 
| 56> H    3.24231610  -1.90549205   0.85504127 
| 57> H    1.68587867  -2.88739804  -1.13956854 
| 58> *
| 59> 
| 60>                          ****END OF INPUT****
================================================================================

                       *****************************
                       * Geometry Optimization Run *
                       *****************************

Geometry optimization settings:
Update method            Update   .... BFGS
Choice of coordinates    CoordSys .... Z-matrix Internals
Initial Hessian          InHess   .... Almoef's Model

Convergence Tolerances:
Energy Change            TolE     ....  5.0000e-06 Eh
Max. Gradient            TolMAXG  ....  3.0000e-04 Eh/bohr
RMS Gradient             TolRMSG  ....  1.0000e-04 Eh/bohr
Max. Displacement        TolMAXD  ....  4.0000e-03 bohr
RMS Displacement         TolRMSD  ....  2.0000e-03 bohr
Strict Convergence                ....  False
------------------------------------------------------------------------------
                        ORCA OPTIMIZATION COORDINATE SETUP
------------------------------------------------------------------------------

The optimization will be done in new redundant internal coordinates
Making redundant internal coordinates   ...  (new redundants) done
Evaluating the initial hessian          ...  (Almloef) done
Evaluating the coordinates              ...  done
Calculating the B-matrix                .... done
Calculating the G-matrix                .... done
Diagonalizing the G-matrix              .... done
Imposing constraints:
 Iter   0:  RMS(Cart)=    0.0228318128 RMS(Int)=    0.0067229721
 Iter   1:  RMS(Cart)=    0.0026250551 RMS(Int)=    0.0008568809
 Iter   2:  RMS(Cart)=    0.0003311784 RMS(Int)=    0.0001112198
 Iter   3:  RMS(Cart)=    0.0000427112 RMS(Int)=    0.0000144739
 Iter   4:  RMS(Cart)=    0.0000055440 RMS(Int)=    0.0000018845
 Iter   5:  RMS(Cart)=    0.0000007211 RMS(Int)=    0.0000002454
 Iter   6:  RMS(Cart)=    0.0000000939 RMS(Int)=    0.0000000320
CONVERGED
Small eigenvalue found = 1.366e-02
Small eigenvalue found = 2.431e-02
Small eigenvalue found = 2.505e-02
The first mode is                       ....  234
The number of degrees of freedom        ....  111
Storing new coordinates                 .... done

    -----------------------------------------------------------------
                    Redundant Internal Coordinates


    -----------------------------------------------------------------
         Definition                    Initial Value    Approx d2E/dq
    -----------------------------------------------------------------
      1. B(C   1,Ir  0)                  2.1595         0.086056   
      2. B(C   2,C   1)                  1.4411         0.518213   
      3. B(C   2,Ir  0)                  2.1269         0.097038   
      4. B(C   3,Ir  0)                  2.1662         0.083986   
      5. B(C   4,Ir  0)                  2.1626         0.085084   
      6. B(C   4,C   1)                  1.4077         0.586364   
      7. B(C   4,C   3)                  1.4452         0.510186   
      8. B(C   5,C   3)                  1.4084         0.584560   
      9. B(C   5,C   2)                  1.4327         0.534417   
     10. B(C   5,Ir  0)                  2.1681         0.083409   
     11. B(N   6,Ir  0)                  2.0998         0.095851   
     12. B(C   7,N   6)                  1.4726         0.413135   
     13. B(C   8,C   7)                  1.5211         0.386044   
     14. B(H   9,C   8)                  1.0892         0.361205   
     15. B(H  10,C   8)                  1.0909         0.358897   
     16. B(H  11,C   8)                  1.0902         0.359807   
     17. B(C  12,C   7)                  1.5242         0.381573   
     18. B(H  13,C   7)                  1.0910         0.358725   
     19. B(H  14,C  12)                  1.0891         0.361343   
     20. B(H  15,C  12)                  1.0908         0.359044   
     21. B(H  16,C  12)                  1.0890         0.361463   
     22. B(C  17,N   6)                  1.2768         0.839951   
     23. B(C  18,C  17)                  1.4392         0.517929   
     24. B(H  19,C  17)                  1.0863         0.365064   
     25. B(C  20,C  18)                  1.3899         0.625673   
     26. B(C  20,Ir  0)                  2.3857         0.032042 C 
     27. B(C  21,C  20)                  1.4236         0.552786   
     28. B(S  22,C  18)                  1.7049         0.529854   
     29. B(C  23,C  21)                  1.3615         0.693788   
     30. B(C  23,S  22)                  1.7148         0.510734   
     31. B(H  24,C  20)                  1.2351         0.210928   
     32. B(H  25,C  21)                  1.0803         0.373154   
     33. B(H  26,C  23)                  1.0796         0.374180   
     34. B(H  27,C   1)                  1.0805         0.372871   
     35. B(H  28,C   2)                  1.0800         0.373664   
     36. B(H  29,C   5)                  1.0807         0.372584   
     37. B(O  30,H  24)                  1.3571         0.114699 C 
     38. B(O  31,Ir  0)                  2.0425         0.118631   
     39. B(C  32,O  30)                  1.2333         0.985575   
     40. B(C  32,O  31)                  1.2817         0.826835   
     41. B(C  33,C  32)                  1.5013         0.415129   
     42. B(H  34,C  33)                  1.0867         0.364543   
     43. B(H  35,C  33)                  1.0918         0.357720   
     44. B(H  36,C  33)                  1.0876         0.363336   
     45. B(H  37,C   3)                  1.0796         0.374150   
     46. B(H  38,C   4)                  1.0802         0.373272   
     47. A(C   4,Ir  0,N   6)          120.4799         0.250000   
     48. A(C   1,Ir  0,C   2)           39.2820         0.252031   
     49. A(C   5,Ir  0,N   6)          150.1315         0.249277   
     50. A(N   6,Ir  0,O  31)           84.8110         0.261337   
     51. A(C   1,Ir  0,C   3)           64.5022         0.246787   
     52. A(C   4,Ir  0,C   5)           64.3668         0.246136   
     53. A(C   3,Ir  0,N   6)          159.3155         0.249527   
     54. A(C   1,Ir  0,N   6)          100.3946         0.250414   
     55. A(C   3,Ir  0,O  31)          115.7491         0.257464   
     56. A(C   2,Ir  0,C   4)           65.1247         0.251612   
     57. A(C   2,Ir  0,N   6)          113.0849         0.254862   
     58. A(C   1,Ir  0,C   4)           38.0151         0.247251   
     59. A(C   1,Ir  0,O  31)          144.8701         0.258395   
     60. A(C   4,Ir  0,O  31)          154.7073         0.257960   
     61. A(C   5,Ir  0,O  31)           93.8571         0.257201   
     62. A(C   2,Ir  0,C   5)           38.9559         0.250882   
     63. A(C   2,Ir  0,C   3)           65.0030         0.251135   
     64. A(C   3,Ir  0,C   4)           39.0066         0.246382   
     65. A(C   1,Ir  0,C   5)           64.5988         0.246541   
     66. A(C   2,Ir  0,O  31)          106.6660         0.263063   
     67. A(C   3,Ir  0,C   5)           37.9244         0.245675   
     68. A(C   2,C   1,H  27)          125.9479         0.344418   
     69. A(Ir  0,C   1,C   2)           69.1371         0.313675   
     70. A(Ir  0,C   1,H  27)          124.0509         0.269369   
     71. A(C   2,C   1,C   4)          108.2801         0.416183   
     72. A(C   4,C   1,H  27)          125.7465         0.351662   
     73. A(Ir  0,C   1,C   4)           71.1128         0.320047   
     74. A(C   1,C   2,C   5)          107.1575         0.409386   
     75. A(Ir  0,C   2,H  28)          126.5928         0.274428   
     76. A(Ir  0,C   2,C   5)           72.0760         0.321481   
     77. A(Ir  0,C   2,C   1)           71.5809         0.319866   
     78. A(C   1,C   2,H  28)          126.6098         0.344541   
     79. A(C   5,C   2,H  28)          125.9234         0.346328   
     80. A(C   4,C   3,H  37)          126.0773         0.343715   
     81. A(C   4,C   3,C   5)          107.8590         0.414802   
     82. A(Ir  0,C   3,C   4)           70.3631         0.311652   
     83. A(Ir  0,C   3,H  37)          124.9063         0.268516   
     84. A(Ir  0,C   3,C   5)           71.1102         0.318617   
     85. A(C   5,C   3,H  37)          126.0550         0.351682   
     86. A(C   3,C   4,H  38)          125.8588         0.343579   
     87. A(Ir  0,C   4,C   1)           70.8721         0.319454   
     88. A(C   1,C   4,H  38)          126.1284         0.351726   
     89. A(Ir  0,C   4,H  38)          124.4507         0.268949   
     90. A(Ir  0,C   4,C   3)           70.6303         0.312308   
     91. A(C   1,C   4,C   3)          108.0115         0.415029   
     92. A(Ir  0,C   5,H  29)          122.0861         0.268066   
     93. A(C   3,C   5,H  29)          125.8089         0.351433   
     94. A(C   2,C   5,H  29)          125.4211         0.346160   
     95. A(Ir  0,C   5,C   3)           70.9654         0.318259   
     96. A(C   2,C   5,C   3)          108.5849         0.418242   
     97. A(Ir  0,C   5,C   2)           68.9681         0.313652   
     98. A(Ir  0,N   6,C  17)          114.7223         0.341882   
     99. A(C   7,N   6,C  17)          122.3407         0.420641   
    100. A(Ir  0,N   6,C   7)          122.9104         0.304362   
    101. A(N   6,C   7,C   8)          113.5694         0.369440   
    102. A(N   6,C   7,C  12)          109.5644         0.368702   
    103. A(C   8,C   7,C  12)          111.6481         0.366726   
    104. A(N   6,C   7,H  13)          104.8223         0.327554   
    105. A(C   8,C   7,H  13)          108.2989         0.325869   
    106. A(C  12,C   7,H  13)          108.6030         0.325245   
    107. A(C   7,C   8,H  11)          111.9878         0.326030   
    108. A(H   9,C   8,H  11)          107.3898         0.290942   
    109. A(H  10,C   8,H  11)          108.8611         0.290649   
    110. A(C   7,C   8,H   9)          108.9056         0.326238   
    111. A(C   7,C   8,H  10)          112.9166         0.325895   
    112. A(H   9,C   8,H  10)          106.4895         0.290826   
    113. A(C   7,C  12,H  14)          109.7278         0.325634   
    114. A(C   7,C  12,H  15)          111.2618         0.325293   
    115. A(H  14,C  12,H  15)          107.7846         0.290863   
    116. A(C   7,C  12,H  16)          112.0506         0.325652   
    117. A(H  14,C  12,H  16)          107.3711         0.291170   
    118. A(H  15,C  12,H  16)          108.4765         0.290878   
    119. A(N   6,C  17,C  18)          116.0805         0.440947   
    120. A(N   6,C  17,H  19)          122.1883         0.370227   
    121. A(C  18,C  17,H  19)          121.6962         0.343166   
    122. A(C  17,C  18,C  20)          120.6808         0.420983   
    123. A(C  17,C  18,S  22)          126.0920         0.431170   
    124. A(C  20,C  18,S  22)          113.1227         0.446125   
    125. A(C  18,C  20,C  21)          110.3072         0.425913   
    126. A(C  18,C  20,H  24)          118.7921         0.323301   
    127. A(C  21,C  20,H  24)          121.2566         0.316824   
    128. A(C  20,C  21,H  25)          123.9275         0.348224   
    129. A(C  23,C  21,H  25)          122.9025         0.361903   
    130. A(C  20,C  21,C  23)          113.0682         0.433886   
    131. A(C  18,S  22,C  23)           91.0479         0.454034   
    132. A(C  21,C  23,H  26)          127.8809         0.362072   
    133. A(S  22,C  23,H  26)          119.6624         0.361668   
    134. A(C  21,C  23,S  22)          112.4356         0.451547   
    135. A(C  20,H  24,O  30)          174.5119         0.225421   
    136. A(H  24,O  30,C  32)          112.3859         0.310757   
    137. A(Ir  0,O  31,C  32)          126.1147         0.353442   
    138. A(O  30,C  32,O  31)          124.0480         0.491332   
    139. A(O  30,C  32,C  33)          120.4333         0.436092   
    140. A(O  31,C  32,C  33)          115.4985         0.422566   
    141. A(C  32,C  33,H  34)          110.8453         0.330674   
    142. A(C  32,C  33,H  35)          108.8537         0.329642   
    143. A(H  34,C  33,H  35)          107.6823         0.291097   
    144. A(C  32,C  33,H  36)          111.6802         0.330492   
    145. A(H  34,C  33,H  36)          110.1870         0.291811   
    146. A(H  35,C  33,H  36)          107.4395         0.290945   
    147. D(H  27,C   1,Ir  0,C   5)    158.8652         0.001704   
    148. D(C   2,C   1,Ir  0,C   5)     38.8197         0.001704   
    149. D(C   4,C   1,Ir  0,C   5)    -80.2036         0.001704   
    150. D(C   2,C   1,Ir  0,O  31)    -18.1215         0.001704   
    151. D(H  27,C   1,Ir  0,C   2)    120.0455         0.001704   
    152. D(C   2,C   1,Ir  0,C   4)    119.0233         0.001704   
    153. D(C   2,C   1,Ir  0,N   6)   -113.9138         0.001704   
    154. D(C   4,C   1,Ir  0,O  31)   -137.1448         0.001704   
    155. D(C   4,C   1,Ir  0,C   3)    -38.0200         0.001704   
    156. D(H  27,C   1,Ir  0,C   3)   -158.9513         0.001704   
    157. D(C   2,C   1,Ir  0,C   3)     81.0032         0.001704   
    158. D(H  27,C   1,Ir  0,O  31)    101.9239         0.001704   
    159. D(C   4,C   1,Ir  0,C   2)   -119.0233         0.001704   
    160. D(H  27,C   1,Ir  0,N   6)      6.1317         0.001704   
    161. D(C   4,C   1,Ir  0,N   6)    127.0629         0.001704   
    162. D(H  27,C   1,Ir  0,C   4)   -120.9312         0.001704   
    163. D(C   5,C   2,Ir  0,N   6)   -166.4447         0.001758   
    164. D(C   5,C   2,C   1,H  27)    178.6172         0.021307   
    165. D(H  28,C   2,Ir  0,C   4)   -158.7983         0.001758   
    166. D(C   5,C   2,Ir  0,C   3)     36.1338         0.001758   
    167. D(C   5,C   2,Ir  0,O  31)    -75.0137         0.001758   
    168. D(C   5,C   2,Ir  0,C   1)    115.7539         0.001758   
    169. D(H  28,C   2,Ir  0,N   6)    -44.5840         0.001758   
    170. D(C   1,C   2,Ir  0,C   3)    -79.6201         0.001758   
    171. D(C   5,C   2,Ir  0,C   4)     79.3409         0.001758   
    172. D(H  28,C   2,C   1,H  27)      4.7320         0.021307   
    173. D(C   5,C   2,C   1,C   4)     -3.1378         0.021307   
    174. D(Ir  0,C   2,C   1,C   4)     60.6116         0.021307   
    175. D(H  28,C   2,Ir  0,C   1)   -122.3853         0.001758   
    176. D(H  28,C   2,C   1,C   4)   -177.0230         0.021307   
    177. D(C   1,C   2,Ir  0,O  31)    169.2323         0.001758   
    178. D(H  28,C   2,Ir  0,C   5)    121.8608         0.001758   
    179. D(H  28,C   2,C   1,Ir  0)    122.3654         0.021307   
    180. D(Ir  0,C   2,C   1,H  27)   -117.6334         0.021307   
    181. D(C   1,C   2,Ir  0,N   6)     77.8013         0.001758   
    182. D(H  28,C   2,Ir  0,C   3)    157.9946         0.001758   
    183. D(H  28,C   2,Ir  0,O  31)     46.8470         0.001758   
    184. D(C   1,C   2,Ir  0,C   5)   -115.7539         0.001758   
    185. D(C   1,C   2,Ir  0,C   4)    -36.4130         0.001758   
    186. D(C   5,C   2,C   1,Ir  0)    -63.7494         0.021307   
    187. D(C   5,C   3,Ir  0,C   4)   -117.7905         0.001694   
    188. D(C   4,C   3,Ir  0,C   5)    117.7905         0.001694   
    189. D(C   4,C   3,Ir  0,O  31)    177.9546         0.001694   
    190. D(C   4,C   3,Ir  0,N   6)     -8.7297         0.001694   
    191. D(C   4,C   3,Ir  0,C   1)     37.0625         0.001694   
    192. D(C   5,C   3,Ir  0,O  31)     60.1641         0.001694   
    193. D(H  37,C   3,Ir  0,C   4)    120.8927         0.001694   
    194. D(C   4,C   3,Ir  0,C   2)     80.6909         0.001694   
    195. D(H  37,C   3,Ir  0,C   1)    157.9553         0.001694   
    196. D(C   5,C   3,Ir  0,C   1)    -80.7279         0.001694   
    197. D(C   5,C   3,Ir  0,N   6)   -126.5202         0.001694   
    198. D(H  37,C   3,Ir  0,C   2)   -158.4163         0.001694   
    199. D(H  37,C   3,Ir  0,O  31)    -61.1527         0.001694   
    200. D(C   5,C   3,Ir  0,C   2)    -37.0995         0.001694   
    201. D(H  37,C   3,Ir  0,C   5)   -121.3168         0.001694   
    202. D(H  37,C   3,Ir  0,N   6)    112.1630         0.001694   
    203. D(C   1,C   4,Ir  0,C   3)    117.9592         0.001699   
    204. D(H  38,C   4,C   3,H  37)     -0.3939         0.020632   
    205. D(C   1,C   4,Ir  0,C   5)     80.8681         0.001699   
    206. D(C   1,C   4,Ir  0,N   6)    -65.6072         0.001699   
    207. D(C   1,C   4,Ir  0,O  31)    113.6440         0.001699   
    208. D(C   1,C   4,Ir  0,C   2)     37.6072         0.001699   
    209. D(C   3,C   4,Ir  0,C   1)   -117.9592         0.001699   
    210. D(H  38,C   4,C   3,C   5)   -179.3687         0.020632   
    211. D(C   3,C   4,Ir  0,C   5)    -37.0911         0.001699   
    212. D(C   3,C   4,Ir  0,N   6)    176.4335         0.001699   
    213. D(C   3,C   4,Ir  0,O  31)     -4.3153         0.001699   
    214. D(Ir  0,C   4,C   1,C   2)    -59.3748         0.027593   
    215. D(H  38,C   4,Ir  0,C   2)    158.8625         0.001699   
    216. D(H  38,C   4,Ir  0,C   3)   -120.7855         0.001699   
    217. D(H  38,C   4,C   1,C   2)   -178.5930         0.027593   
    218. D(H  38,C   4,Ir  0,N   6)     55.6480         0.001699   
    219. D(H  38,C   4,Ir  0,O  31)   -125.1007         0.001699   
    220. D(Ir  0,C   4,C   1,H  27)    118.8746         0.027593   
    221. D(C   3,C   4,C   1,Ir  0)     61.1903         0.027593   
    222. D(C   3,C   4,C   1,H  27)   -179.9350         0.027593   
    223. D(H  38,C   4,C   1,Ir  0)   -119.2182         0.027593   
    224. D(H  38,C   4,Ir  0,C   5)   -157.8766         0.001699   
    225. D(H  38,C   4,C   1,H  27)     -0.3436         0.027593   
    226. D(Ir  0,C   4,C   3,C   5)     61.5685         0.020632   
    227. D(Ir  0,C   4,C   3,H  37)   -119.4566         0.020632   
    228. D(C   3,C   4,C   1,C   2)      1.8155         0.027593   
    229. D(C   1,C   4,C   3,C   5)      0.2242         0.020632   
    230. D(C   1,C   4,C   3,H  37)    179.1990         0.020632   
    231. D(H  38,C   4,C   3,Ir  0)    119.0627         0.020632   
    232. D(H  38,C   4,Ir  0,C   1)    121.2553         0.001699   
    233. D(C   1,C   4,C   3,Ir  0)    -61.3444         0.020632   
    234. D(C   3,C   4,Ir  0,C   2)    -80.3520         0.001699   
    235. D(C   2,C   5,Ir  0,C   1)    -39.1442         0.001692   
    236. D(H  29,C   5,C   3,C   4)   -177.4497         0.027413   
    237. D(C   2,C   5,Ir  0,C   4)    -81.4539         0.001692   
    238. D(C   2,C   5,Ir  0,N   6)     25.6551         0.001692   
    239. D(C   2,C   5,Ir  0,O  31)    111.9500         0.001692   
    240. D(C   3,C   5,Ir  0,C   1)     80.4505         0.001692   
    241. D(C   3,C   5,Ir  0,C   2)    119.5947         0.001692   
    242. D(C   3,C   5,Ir  0,C   4)     38.1408         0.001692   
    243. D(H  29,C   5,C   2,C   1)    178.5664         0.022711   
    244. D(C   3,C   5,Ir  0,O  31)   -128.4553         0.001692   
    245. D(H  29,C   5,Ir  0,C   1)   -158.6050         0.001692   
    246. D(C   3,C   5,C   2,Ir  0)    -60.1370         0.022711   
    247. D(H  29,C   5,Ir  0,C   3)    120.9444         0.001692   
    248. D(H  29,C   5,Ir  0,C   4)    159.0852         0.001692   
    249. D(H  29,C   5,Ir  0,N   6)    -93.8058         0.001692   
    250. D(H  29,C   5,Ir  0,O  31)     -7.5108         0.001692   
    251. D(Ir  0,C   5,C   2,C   1)     63.4222         0.022711   
    252. D(H  29,C   5,Ir  0,C   2)   -119.4609         0.001692   
    253. D(Ir  0,C   5,C   2,H  28)   -122.6389         0.022711   
    254. D(C   3,C   5,C   2,C   1)      3.2852         0.022711   
    255. D(C   3,C   5,C   2,H  28)    177.2241         0.022711   
    256. D(C   3,C   5,Ir  0,N   6)    145.2498         0.001692   
    257. D(H  29,C   5,C   2,Ir  0)    115.1442         0.022711   
    258. D(H  29,C   5,C   2,H  28)     -7.4947         0.022711   
    259. D(Ir  0,C   5,C   3,C   4)    -61.0911         0.027413   
    260. D(Ir  0,C   5,C   3,H  37)    119.9338         0.027413   
    261. D(C   2,C   5,C   3,Ir  0)     58.8997         0.027413   
    262. D(C   2,C   5,C   3,C   4)     -2.1914         0.027413   
    263. D(C   2,C   5,C   3,H  37)    178.8335         0.027413   
    264. D(C   2,C   5,Ir  0,C   3)   -119.5947         0.001692   
    265. D(H  29,C   5,C   3,Ir  0)   -116.3586         0.027413   
    266. D(H  29,C   5,C   3,H  37)      3.5752         0.027413   
    267. D(C  17,N   6,Ir  0,C   1)    -95.1443         0.001772   
    268. D(C   7,N   6,Ir  0,C   2)     44.0308         0.001772   
    269. D(C   7,N   6,Ir  0,C   3)    124.1515         0.001772   
    270. D(C   7,N   6,Ir  0,C   4)    117.7874         0.001772   
    271. D(C   7,N   6,Ir  0,C   5)     26.8193         0.001772   
    272. D(C   7,N   6,Ir  0,C   1)     83.0195         0.001772   
    273. D(C   7,N   6,Ir  0,O  31)    -61.8914         0.001772   
    274. D(C  17,N   6,Ir  0,C   2)   -134.1330         0.001772   
    275. D(C  17,N   6,Ir  0,C   3)    -54.0123         0.001772   
    276. D(C  17,N   6,Ir  0,C   4)    -60.3764         0.001772   
    277. D(C  17,N   6,Ir  0,C   5)   -151.3446         0.001772   
    278. D(C  17,N   6,Ir  0,O  31)    119.9448         0.001772   
    279. D(C   8,C   7,N   6,Ir  0)    153.8093         0.014558   
    280. D(C   8,C   7,N   6,C  17)    -28.1649         0.014558   
    281. D(C  12,C   7,N   6,Ir  0)    -80.5868         0.014558   
    282. D(C  12,C   7,N   6,C  17)     97.4391         0.014558   
    283. D(H  13,C   7,N   6,Ir  0)     35.7888         0.014558   
    284. D(H  13,C   7,N   6,C  17)   -146.1853         0.014558   
    285. D(H   9,C   8,C   7,N   6)   -169.8554         0.011859   
    286. D(H   9,C   8,C   7,C  12)     65.6578         0.011859   
    287. D(H   9,C   8,C   7,H  13)    -53.8637         0.011859   
    288. D(H  10,C   8,C   7,N   6)     72.0764         0.011859   
    289. D(H  10,C   8,C   7,C  12)    -52.4105         0.011859   
    290. D(H  10,C   8,C   7,H  13)   -171.9320         0.011859   
    291. D(H  11,C   8,C   7,N   6)    -51.2364         0.011859   
    292. D(H  11,C   8,C   7,C  12)   -175.7232         0.011859   
    293. D(H  11,C   8,C   7,H  13)     64.7553         0.011859   
    294. D(H  14,C  12,C   7,N   6)    176.1827         0.011599   
    295. D(H  14,C  12,C   7,C   8)    -57.1181         0.011599   
    296. D(H  14,C  12,C   7,H  13)     62.2236         0.011599   
    297. D(H  15,C  12,C   7,N   6)    -64.6264         0.011599   
    298. D(H  15,C  12,C   7,C   8)     62.0728         0.011599   
    299. D(H  15,C  12,C   7,H  13)   -178.5856         0.011599   
    300. D(H  16,C  12,C   7,N   6)     57.0091         0.011599   
    301. D(H  16,C  12,C   7,C   8)   -176.2917         0.011599   
    302. D(H  16,C  12,C   7,H  13)    -56.9501         0.011599   
    303. D(C  18,C  17,N   6,Ir  0)     -8.2802         0.060894   
    304. D(C  18,C  17,N   6,C   7)    173.5444         0.060894   
    305. D(H  19,C  17,N   6,Ir  0)    173.8371         0.060894   
    306. D(H  19,C  17,N   6,C   7)     -4.3383         0.060894   
    307. D(C  20,C  18,C  17,N   6)    -29.6386         0.018291   
    308. D(C  20,C  18,C  17,H  19)    148.2555         0.018291   
    309. D(S  22,C  18,C  17,N   6)    146.3808         0.018291   
    310. D(S  22,C  18,C  17,H  19)    -35.7252         0.018291   
    311. D(C  21,C  20,C  18,C  17)    175.0189         0.029472   
    312. D(C  21,C  20,C  18,S  22)     -1.4841         0.029472   
    313. D(H  24,C  20,C  18,C  17)    -38.3988         0.029472   
    314. D(H  24,C  20,C  18,S  22)    145.0982         0.029472   
    315. D(C  23,C  21,C  20,C  18)      1.1555         0.022694   
    316. D(C  23,C  21,C  20,H  24)   -144.4697         0.022694   
    317. D(H  25,C  21,C  20,C  18)    177.5744         0.022694   
    318. D(H  25,C  21,C  20,H  24)     31.9492         0.022694   
    319. D(C  23,S  22,C  18,C  17)   -175.1568         0.005686   
    320. D(C  23,S  22,C  18,C  20)      1.1210         0.005686   
    321. D(S  22,C  23,C  21,C  20)     -0.3368         0.033850   
    322. D(S  22,C  23,C  21,H  25)   -176.7978         0.033850   
    323. D(H  26,C  23,C  21,C  20)    177.9678         0.033850   
    324. D(H  26,C  23,C  21,H  25)      1.5068         0.033850   
    325. D(C  21,C  23,S  22,C  18)     -0.4362         0.005374   
    326. D(H  26,C  23,S  22,C  18)   -178.8962         0.005374   
    327. D(O  30,H  24,C  20,C  18)    -30.4573         0.034668   
    328. D(O  30,H  24,C  20,C  21)    112.3708         0.034668   
    329. D(C  32,O  30,H  24,C  20)    123.0568         0.009439   
    330. D(C  32,O  31,Ir  0,C   1)   -178.1337         0.001894   
    331. D(C  32,O  31,Ir  0,C   2)    170.0039         0.001894   
    332. D(C  32,O  31,Ir  0,C   3)    100.2062         0.001894   
    333. D(C  32,O  31,Ir  0,C   4)    103.2203         0.001894   
    334. D(C  32,O  31,Ir  0,C   5)    132.5072         0.001894   
    335. D(C  32,O  31,Ir  0,N   6)    -77.4277         0.001894   
    336. D(O  31,C  32,O  30,H  24)     -5.2737         0.079219   
    337. D(C  33,C  32,O  30,H  24)    173.0135         0.079219   
    338. D(O  30,C  32,O  31,Ir  0)      3.4780         0.053116   
    339. D(C  33,C  32,O  31,Ir  0)   -174.8859         0.053116   
    340. D(H  34,C  33,C  32,O  30)     26.1170         0.012752   
    341. D(H  34,C  33,C  32,O  31)   -155.4552         0.012752   
    342. D(H  35,C  33,C  32,O  30)    -92.1421         0.012752   
    343. D(H  35,C  33,C  32,O  31)     86.2856         0.012752   
    344. D(H  36,C  33,C  32,O  30)    149.3975         0.012752   
    345. D(H  36,C  33,C  32,O  31)    -32.1747         0.012752   
    -----------------------------------------------------------------

Number of atoms                         .... 39
Number of degrees of freedom            .... 345

         *************************************************************
         *                GEOMETRY OPTIMIZATION CYCLE   1            *
         *************************************************************
---------------------------------
CARTESIAN COORDINATES (ANGSTROEM)
---------------------------------
  Ir     0.595439   -0.722069    0.469941
  C      0.062824   -2.811472    0.350920
  C      0.054568   -2.356828    1.718386
  C      2.196326   -2.118144    0.894880
  C      1.362537   -2.642560   -0.162705
  C      1.396703   -1.977291    2.045690
  N     -1.047228    0.144075   -0.510199
  C     -2.324184    0.427517    0.166271
  C     -3.110524    1.563488   -0.470037
  H     -3.939931    1.828428    0.184319
  H     -3.549144    1.290469   -1.430852
  H     -2.501197    2.457831   -0.602166
  C     -3.151155   -0.850030    0.251635
  H     -2.043888    0.728854    1.176720
  H     -4.066033   -0.659063    0.810737
  H     -3.434691   -1.204703   -0.740163
  H     -2.617560   -1.648945    0.764351
  C     -0.866889    0.374194   -1.753064
  C      0.472411    0.183070   -2.244126
  H     -1.666262    0.727800   -2.398051
  C      1.567771    0.377336   -1.410886
  C      2.770102    0.019277   -2.083825
  S      0.902865   -0.373893   -3.796967
  C      2.561964   -0.394434   -3.364123
  H      1.540294    1.308136   -0.599484
  H      3.755470    0.120000   -1.652494
  H      3.300873   -0.690019   -4.093698
  H     -0.788512   -3.188538   -0.197325
  H     -0.778435   -2.394707    2.404673
  H      1.719437   -1.572134    2.994203
  O      1.435283    2.394571    0.207033
  O      0.543216    0.951081    1.640265
  C      0.975210    2.113424    1.316197
  C      0.927088    3.147178    2.403813
  H      0.885330    4.148570    1.983924
  H      1.839158    3.075174    2.999620
  H      0.086151    2.986019    3.074372
  H      3.249327   -1.891673    0.821185
  H      1.684655   -2.870797   -1.168227

----------------------------
CARTESIAN COORDINATES (A.U.)
----------------------------
  NO LB      ZA    FRAG     MASS         X           Y           Z
   0 Ir   17.0000*   0   192.220    1.125217   -1.364512    0.888060
   1 C     6.0000    0    12.011    0.118720   -5.312912    0.663143
   2 C     6.0000    0    12.011    0.103119   -4.453759    3.247279
   3 C     6.0000    0    12.011    4.150454   -4.002713    1.691078
   4 C     6.0000    0    12.011    2.574822   -4.993714   -0.307467
   5 C     6.0000    0    12.011    2.639386   -3.736538    3.865794
   6 N     7.0000    0    14.007   -1.978975    0.272262   -0.964137
   7 C     6.0000    0    12.011   -4.392072    0.807890    0.314208
   8 C     6.0000    0    12.011   -5.878039    2.954564   -0.888241
   9 H     1.0000    0     1.008   -7.445391    3.455228    0.348313
  10 H     1.0000    0     1.008   -6.706909    2.438633   -2.703918
  11 H     1.0000    0     1.008   -4.726578    4.644627   -1.137928
  12 C     6.0000    0    12.011   -5.954821   -1.606325    0.475520
  13 H     1.0000    0     1.008   -3.862388    1.377334    2.223678
  14 H     1.0000    0     1.008   -7.683688   -1.245449    1.532071
  15 H     1.0000    0     1.008   -6.490624   -2.276558   -1.398705
  16 H     1.0000    0     1.008   -4.946471   -3.116055    1.444413
  17 C     6.0000    0    12.011   -1.638183    0.707123   -3.312812
  18 C     6.0000    0    12.011    0.892728    0.345952   -4.240784
  19 H     1.0000    0     1.008   -3.148779    1.375344   -4.531660
  20 C     6.0000    0    12.011    2.962659    0.713062   -2.666189
  21 C     6.0000    0    12.011    5.234734    0.036428   -3.937858
  22 S    16.0000    0    32.060    1.706168   -0.706555   -7.175228
  23 C     6.0000    0    12.011    4.841410   -0.745373   -6.357271
  24 H     1.0000    0     1.008    2.910733    2.472019   -1.132861
  25 H     1.0000    0     1.008    7.096810    0.226766   -3.122761
  26 H     1.0000    0     1.008    6.237746   -1.303948   -7.735967
  27 H     1.0000    0     1.008   -1.490071   -6.025464   -0.372891
  28 H     1.0000    0     1.008   -1.471028   -4.525340    4.544173
  29 H     1.0000    0     1.008    3.249265   -2.970902    5.658223
  30 O     8.0000    0    15.999    2.712292    4.525083    0.391236
  31 O     8.0000    0    15.999    1.026529    1.797282    3.099651
  32 C     6.0000    0    12.011    1.842879    3.993792    2.487251
  33 C     6.0000    0    12.011    1.751943    5.947304    4.542548
  34 H     1.0000    0     1.008    1.673032    7.839661    3.749073
  35 H     1.0000    0     1.008    3.475505    5.811236    5.668459
  36 H     1.0000    0     1.008    0.162801    5.642757    5.809720
  37 H     1.0000    0     1.008    6.140339   -3.574744    1.551814
  38 H     1.0000    0     1.008    3.183537   -5.425020   -2.207629
* core charge reduced due to ECP

--------------------------------
INTERNAL COORDINATES (ANGSTROEM)
--------------------------------
 Ir     0   0   0     0.000000000000     0.00000000     0.00000000
 C      1   0   0     2.159636534255     0.00000000     0.00000000
 C      2   1   0     1.440914158885    69.13802815     0.00000000
 C      1   2   3     2.166266081540    64.48852967    80.99968080
 C      2   1   3     1.407281489698    71.11827321   240.97830721
 C      4   1   2     1.408120272213    71.11450412   279.27156048
 N      1   2   3     2.100293839801   100.41185543   246.05677256
 C      7   1   2     1.472600210053   122.63907488    82.94351318
 C      8   7   1     1.521062655756   113.56944309   153.77926740
 H      9   8   7     1.089166311439   108.90566236   190.14465791
 H      9   8   7     1.090910757622   112.91643530    72.07640247
 H      9   8   7     1.090221490090   111.98785038   308.76351391
 C      8   7   1     1.524233662487   109.56424409   279.38322529
 H      8   7   1     1.091041458265   104.82238050    35.75898074
 H     13   8   7     1.089061836565   109.72763408   176.18270445
 H     13   8   7     1.090799072189   111.26202943   295.37365353
 H     13   8   7     1.088971372889   112.05061527    57.00912351
 C      7   1   2     1.279447965329   115.25105076   264.73645711
 C     18   7   1     1.441063483447   116.65297652   351.46277737
 H     18   7   1     1.086272820007   121.89918086   173.83260762
 C     19  18   7     1.389618258291   120.66748073   330.55586206
 C     21  19  18     1.423333350684   110.36754963   175.07091177
 S     19  18   7     1.704866848061   126.14328177   146.64389037
 C     22  21  19     1.361488579139   113.03114132     1.17505852
 H     21  19  18     1.235596045131   118.65792117   321.91743234
 H     22  21  19     1.080306803091   123.94250970   177.61569780
 H     24  22  21     1.079559242004   127.87966868   177.97308024
 H      2   1   3     1.080513011721   124.04859587   120.04896841
 H      3   2   1     1.079935100459   126.60915967   122.36372261
 H      6   4   1     1.080723027991   125.80761374   243.64412716
 O     25  21  19     1.371428567848   174.52798470   329.26496942
 O      1   2   3     2.042252651297   144.91815674   341.88589819
 C     31  25  21     1.235926769944   112.78628055   122.54661933
 C     33  31  25     1.501289661717   120.26491086   173.09469589
 H     34  33  31     1.086662214112   110.84527339    26.06757909
 H     34  33  31     1.091805428154   108.85363407   267.80840174
 H     34  33  31     1.087564455471   111.68021865   149.34805574
 H      4   1   2     1.079580881738   124.90180706   157.95593906
 H      5   2   1     1.080220759508   126.11851037   240.78118110

---------------------------
INTERNAL COORDINATES (A.U.)
---------------------------
 Ir     0   0   0     0.000000000000     0.00000000     0.00000000
 C      1   0   0     4.081121598553     0.00000000     0.00000000
 C      2   1   0     2.722933142783    69.13802815     0.00000000
 C      1   2   3     4.093649627313    64.48852967    80.99968080
 C      2   1   3     2.659376608867    71.11827321   240.97830721
 C      4   1   2     2.660961678106    71.11450412   279.27156048
 N      1   2   3     3.968980157986   100.41185543   246.05677256
 C      7   1   2     2.782811101755   122.63907488    82.94351318
 C      8   7   1     2.874391851913   113.56944309   153.77926740
 H      9   8   7     2.058226042913   108.90566236   190.14465791
 H      9   8   7     2.061522568453   112.91643530    72.07640247
 H      9   8   7     2.060220041586   111.98785038   308.76351391
 C      8   7   1     2.880384186204   109.56424409   279.38322529
 H      8   7   1     2.061769556875   104.82238050    35.75898074
 H     13   8   7     2.058028614013   109.72763408   176.18270445
 H     13   8   7     2.061311513573   111.26202943   295.37365353
 H     13   8   7     2.057857662441   112.05061527    57.00912351
 C      7   1   2     2.417806257075   115.25105076   264.73645711
 C     18   7   1     2.723215325310   116.65297652   351.46277737
 H     18   7   1     2.052758136535   121.89918086   173.83260762
 C     19  18   7     2.625997938866   120.66748073   330.55586206
 C     21  19  18     2.689710230069   110.36754963   175.07091177
 S     19  18   7     3.221731437637   126.14328177   146.64389037
 C     22  21  19     2.572840549035   113.03114132     1.17505852
 H     21  19  18     2.334938137454   118.65792117   321.91743234
 H     22  21  19     2.041483998453   123.94250970   177.61569780
 H     24  22  21     2.040071312731   127.87966868   177.97308024
 H      2   1   3     2.041873676292   124.04859587   120.04896841
 H      3   2   1     2.040781582277   126.60915967   122.36372261
 H      6   4   1     2.042270549524   125.80761374   243.64412716
 O     25  21  19     2.591624405468   174.52798470   329.26496942
 O      1   2   3     3.859298207226   144.91815674   341.88589819
 C     31  25  21     2.335563116777   112.78628055   122.54661933
 C     33  31  25     2.837026308332   120.26491086   173.09469589
 H     34  33  31     2.053493984751   110.84527339    26.06757909
 H     34  33  31     2.063213250740   108.85363407   267.80840174
 H     34  33  31     2.055198973828   111.68021865   149.34805574
 H      4   1   2     2.040112205902   124.90180706   157.95593906
 H      5   2   1     2.041321399646   126.11851037   240.78118110

---------------------
BASIS SET INFORMATION
---------------------
There are 6 groups of distinct atoms

 Group   1 Type Ir  : 7s6p5d1f contracted to 6s3p2d1f pattern {211111/411/41/1}
 Group   2 Type C   : 8s4p1d contracted to 4s2p1d pattern {5111/31/1}
 Group   3 Type N   : 8s4p1d contracted to 4s2p1d pattern {5111/31/1}
 Group   4 Type H   : 4s contracted to 2s pattern {31}
 Group   5 Type S   : 10s7p1d contracted to 4s3p1d pattern {5311/511/1}
 Group   6 Type O   : 8s4p1d contracted to 4s2p1d pattern {5111/31/1}

Atom   0Ir   basis set group =>   1
Atom   1C    basis set group =>   2
Atom   2C    basis set group =>   2
Atom   3C    basis set group =>   2
Atom   4C    basis set group =>   2
Atom   5C    basis set group =>   2
Atom   6N    basis set group =>   3
Atom   7C    basis set group =>   2
Atom   8C    basis set group =>   2
Atom   9H    basis set group =>   4
Atom  10H    basis set group =>   4
Atom  11H    basis set group =>   4
Atom  12C    basis set group =>   2
Atom  13H    basis set group =>   4
Atom  14H    basis set group =>   4
Atom  15H    basis set group =>   4
Atom  16H    basis set group =>   4
Atom  17C    basis set group =>   2
Atom  18C    basis set group =>   2
Atom  19H    basis set group =>   4
Atom  20C    basis set group =>   2
Atom  21C    basis set group =>   2
Atom  22S    basis set group =>   5
Atom  23C    basis set group =>   2
Atom  24H    basis set group =>   4
Atom  25H    basis set group =>   4
Atom  26H    basis set group =>   4
Atom  27H    basis set group =>   4
Atom  28H    basis set group =>   4
Atom  29H    basis set group =>   4
Atom  30O    basis set group =>   6
Atom  31O    basis set group =>   6
Atom  32C    basis set group =>   2
Atom  33C    basis set group =>   2
Atom  34H    basis set group =>   4
Atom  35H    basis set group =>   4
Atom  36H    basis set group =>   4
Atom  37H    basis set group =>   4
Atom  38H    basis set group =>   4
---------------------------------
AUXILIARY/J BASIS SET INFORMATION
---------------------------------
There are 6 groups of distinct atoms

 Group   1 Type Ir  : 11s5p5d3f3g contracted to 8s5p5d2f3g pattern {41111111/11111/11111/21/111}
 Group   2 Type C   : 12s5p4d2f1g contracted to 6s4p3d1f1g pattern {711111/2111/211/2/1}
 Group   3 Type N   : 12s5p4d2f1g contracted to 6s4p3d1f1g pattern {711111/2111/211/2/1}
 Group   4 Type H   : 5s2p1d contracted to 3s1p1d pattern {311/2/1}
 Group   5 Type S   : 14s5p5d2f1g contracted to 8s4p3d1f1g pattern {71111111/2111/311/2/1}
 Group   6 Type O   : 12s5p4d2f1g contracted to 6s4p3d1f1g pattern {711111/2111/211/2/1}

Atom   0Ir   basis set group =>   1
Atom   1C    basis set group =>   2
Atom   2C    basis set group =>   2
Atom   3C    basis set group =>   2
Atom   4C    basis set group =>   2
Atom   5C    basis set group =>   2
Atom   6N    basis set group =>   3
Atom   7C    basis set group =>   2
Atom   8C    basis set group =>   2
Atom   9H    basis set group =>   4
Atom  10H    basis set group =>   4
Atom  11H    basis set group =>   4
Atom  12C    basis set group =>   2
Atom  13H    basis set group =>   4
Atom  14H    basis set group =>   4
Atom  15H    basis set group =>   4
Atom  16H    basis set group =>   4
Atom  17C    basis set group =>   2
Atom  18C    basis set group =>   2
Atom  19H    basis set group =>   4
Atom  20C    basis set group =>   2
Atom  21C    basis set group =>   2
Atom  22S    basis set group =>   5
Atom  23C    basis set group =>   2
Atom  24H    basis set group =>   4
Atom  25H    basis set group =>   4
Atom  26H    basis set group =>   4
Atom  27H    basis set group =>   4
Atom  28H    basis set group =>   4
Atom  29H    basis set group =>   4
Atom  30O    basis set group =>   6
Atom  31O    basis set group =>   6
Atom  32C    basis set group =>   2
Atom  33C    basis set group =>   2
Atom  34H    basis set group =>   4
Atom  35H    basis set group =>   4
Atom  36H    basis set group =>   4
Atom  37H    basis set group =>   4
Atom  38H    basis set group =>   4
-------------------------
ECP PARAMETER INFORMATION
-------------------------

 Group 1, Type Ir ECP Def2-ECP (replacing 60 core electrons, lmax=3)

Atom   0Ir   ECP group =>   1

------------------------------------------------------------------------------
                           ORCA GTO INTEGRAL CALCULATION
                           -- RI-GTO INTEGRALS CHOSEN --
------------------------------------------------------------------------------
------------------------------------------------------------------------------
                   ___                                                        
                  /   \      - P O W E R E D   B Y -                         
                 /     \                                                     
                 |  |  |   _    _      __       _____    __    __             
                 |  |  |  | |  | |    /  \     |  _  \  |  |  /  |          
                  \  \/   | |  | |   /    \    | | | |  |  | /  /          
                 / \  \   | |__| |  /  /\  \   | |_| |  |  |/  /          
                |  |  |   |  __  | /  /__\  \  |    /   |      \           
                |  |  |   | |  | | |   __   |  |    \   |  |\   \          
                \     /   | |  | | |  |  |  |  | |\  \  |  | \   \       
                 \___/    |_|  |_| |__|  |__|  |_| \__\ |__|  \__/        
                                                                              
                      - O R C A' S   B I G   F R I E N D -                    
                                      &                                       
                       - I N T E G R A L  F E E D E R -                       
                                                                              
 v1 FN, 2020, v2 2021                                                         
------------------------------------------------------------------------------


Reading SHARK input file reaction4-IEIP_ts_guess_scan_5-10_orca.SHARKINP.tmp ... ok
----------------------
SHARK INTEGRAL PACKAGE
----------------------

Number of atoms                             ...     39
Number of basis functions                   ...    358
Number of shells                            ...    184
Maximum angular momentum                    ...      3
Integral batch strategy                     ... SHARK/LIBINT Hybrid
RI-J (if used) integral strategy            ... SPLIT-RIJ (Revised 2003 algorithm where possible)
Printlevel                                  ...      1
Contraction scheme used                     ... SEGMENTED contraction
Coulomb Range Separation                    ... NOT USED
Exchange Range Separation                   ... NOT USED
Finite Nucleus Model                        ... NOT USED
Auxiliary Coulomb fitting basis             ... AVAILABLE
   # of basis functions in Aux-J            ...   1231
   # of shells in Aux-J                     ...    405
   Maximum angular momentum in Aux-J        ...      4
Auxiliary J/K fitting basis                 ... NOT available
Auxiliary Correlation fitting basis         ... NOT available
Auxiliary 'external' fitting basis          ... NOT available
Integral threshold                          ...     2.500000e-11
Primitive cut-off                           ...     2.500000e-12
Primitive pair pre-selection threshold      ...     2.500000e-12

Calculating pre-screening integrals         ... done (  0.1 sec) Dimension = 184
Organizing shell pair data                  ... done (  0.1 sec)
Shell pair information
Total number of shell pairs                 ...     17020
Shell pairs after pre-screening             ...     12968
Total number of primitive shell pairs       ...     60705
Primitive shell pairs kept                  ...     29167
          la=0 lb=0:   4970 shell pairs
          la=1 lb=0:   4250 shell pairs
          la=1 lb=1:    856 shell pairs
          la=2 lb=0:   1748 shell pairs
          la=2 lb=1:    787 shell pairs
          la=2 lb=2:    181 shell pairs
          la=3 lb=0:    112 shell pairs
          la=3 lb=1:     42 shell pairs
          la=3 lb=2:     21 shell pairs
          la=3 lb=3:      1 shell pairs

Calculating one electron integrals          ... done (  0.1 sec)
Calculating ECP integrals                   ... done (  0.7 sec)
Calculating RI/J V-Matrix + Cholesky decomp.... done (  0.1 sec)
Calculating Nuclear repulsion               ... done (  0.0 sec) ENN=   2035.964681892614 Eh

SHARK setup successfully completed in   1.3 seconds

Maximum memory used throughout the entire GTOINT-calculation: 90.8 MB
-------------------------------------------------------------------------------
                                 ORCA SCF
-------------------------------------------------------------------------------

------------
SCF SETTINGS
------------
Hamiltonian:
 Density Functional     Method          .... DFT(GTOs)
 Exchange Functional    Exchange        .... PBE
   PBE kappa parameter   XKappa         ....  1.024500
   PBE mue parameter    XMuePBE         ....  0.123457
 Correlation Functional Correlation     .... PBE
   PBE beta parameter  CBetaPBE         ....  0.030000
 LDA part of GGA corr.  LDAOpt          .... PW91-LDA
 Gradients option       PostSCFGGA      .... off
 Hybrid DFT is turned on
   Fraction HF Exchange ScalHFX         ....  0.420000
   Scaling of DF-GGA-X  ScalDFX         ....  0.580000
   Scaling of DF-GGA-C  ScalDFC         ....  1.000000
   Scaling of DF-LDA-C  ScalLDAC        ....  1.000000
   Perturbative correction              ....  0.000000
   Density functional embedding theory  .... OFF
 RI-approximation to the Coulomb term is turned on
   Number of AuxJ basis functions       .... 1231
   RIJ-ON(X) (HFX calculated with O(N)) .... on
   Number of AuxJ basis functions       .... 1231
   RIJ-COSX (HFX calculated with COS-X)).... on


General Settings:
 Integral files         IntName         .... reaction4-IEIP_ts_guess_scan_5-10_orca
 Hartree-Fock type      HFTyp           .... RHF
 Total Charge           Charge          ....    1
 Multiplicity           Mult            ....    1
 Number of Electrons    NEL             ....  164
 Basis Dimension        Dim             ....  358
 Nuclear Repulsion      ENuc            ....   2035.9646818926 Eh

Convergence Acceleration:
 DIIS                   CNVDIIS         .... on
   Start iteration      DIISMaxIt       ....    12
   Startup error        DIISStart       ....  0.200000
   # of expansion vecs  DIISMaxEq       ....     5
   Bias factor          DIISBfac        ....   1.050
   Max. coefficient     DIISMaxC        ....  10.000
 Trust-Rad. Augm. Hess. CNVTRAH         .... auto
   Auto Start mean grad. ratio tolernc. ....  1.125000
   Auto Start start iteration           ....    20
   Auto Start num. interpolation iter.  ....    10
   Max. Number of Micro iterations      ....    16
   Max. Number of Macro iterations      .... Maxiter - #DIIS iter
   Number of Davidson start vectors     ....     2
   Converg. threshold I  (grad. norm)   ....   1.000e-05
   Converg. threshold II (energy diff.) ....   1.000e-08
   Grad. Scal. Fac. for Micro threshold ....   0.100
   Minimum threshold for Micro iter.    ....   0.010
   NR start threshold (gradient norm)   ....   0.001
   Initial trust radius                 ....   0.400
   Minimum AH scaling param. (alpha)    ....   1.000
   Maximum AH scaling param. (alpha)    .... 1000.000
   Orbital update algorithm             .... Taylor
   White noise on init. David. guess    .... on
   Maximum white noise                  ....   0.010
   Quad. conv. algorithm                .... NR
   COSX micro iterations for RIJONX calc.... off
 SOSCF                  CNVSOSCF        .... off
 Level Shifting         CNVShift        .... on
   Level shift para.    LevelShift      ....    0.2500
   Turn off err/grad.   ShiftErr        ....    0.0010
 Zerner damping         CNVZerner       .... off
 Static damping         CNVDamp         .... on
   Fraction old density DampFac         ....    0.7000
   Max. Damping (<1)    DampMax         ....    0.9800
   Min. Damping (>=0)   DampMin         ....    0.0000
   Turn off err/grad.   DampErr         ....    0.1000
 Fernandez-Rico         CNVRico         .... off

SCF Procedure:
 Maximum # iterations   MaxIter         ....   250
 SCF integral mode      SCFMode         .... Direct
   Integral package                     .... SHARK and LIBINT hybrid scheme
 Reset frequency        DirectResetFreq ....    20
 Integral Threshold     Thresh          ....  2.500e-11 Eh
 Primitive CutOff       TCut            ....  2.500e-12 Eh

Convergence Tolerance:
 Convergence Check Mode ConvCheckMode   .... Total+1el-Energy
 Convergence forced     ConvForced      .... 0
 Energy Change          TolE            ....  1.000e-08 Eh
 1-El. energy change                    ....  1.000e-05 Eh
 DIIS Error             TolErr          ....  5.000e-07


Diagonalization of the overlap matrix:
Smallest eigenvalue                        ... 1.217e-03
Time for diagonalization                   ...    0.016 sec
Threshold for overlap eigenvalues          ... 1.000e-08
Number of eigenvalues below threshold      ... 0
Time for construction of square roots      ...    0.006 sec
Total time needed                          ...    0.023 sec

--------------------
INITIAL GUESS: HCORE
--------------------
                      -----------------
                      INTIAL GUESS DONE 
                      -----------------
-------------------
DFT GRID GENERATION
-------------------

General Integration Accuracy     IntAcc      ... 4.159
Radial Grid Type                 RadialGrid  ... OptM3 with GC (2021)
Angular Grid (max. ang.)         AngularGrid ... 3 (Lebedev-194)
Angular grid pruning method      GridPruning ... 4 (adaptive)
Weight generation scheme         WeightScheme... Becke
Basis function cutoff            BFCut       ... 1.0000e-11
Integration weight cutoff        WCut        ... 1.0000e-14
Angular grids for H and He will be reduced by one unit
Partially contracted basis set               ... off
Rotationally invariant grid construction     ... off

Total number of grid points                  ...    93285
Total number of batches                      ...     1478
Average number of points per batch           ...       63
Average number of grid points per atom       ...     2392
Time for grid setup =    1.672 sec

--------------------
COSX GRID GENERATION
--------------------

GRIDX 1
-------
General Integration Accuracy     IntAcc      ... 3.816
Radial Grid Type                 RadialGrid  ... OptM3 with GC (2021)
Angular Grid (max. ang.)         AngularGrid ... 1 (Lebedev-50)
Angular grid pruning method      GridPruning ... 4 (adaptive)
Weight generation scheme         WeightScheme... Becke
Basis function cutoff            BFCut       ... 1.0000e-11
Integration weight cutoff        WCut        ... 1.0000e-14
Angular grids for H and He will be reduced by one unit
Partially contracted basis set               ... on
Rotationally invariant grid construction     ... off

Total number of grid points                  ...    23180
Total number of batches                      ...      382
Average number of points per batch           ...       60
Average number of grid points per atom       ...      594
UseSFitting                                  ... on

GRIDX 2
-------
General Integration Accuracy     IntAcc      ... 4.020
Radial Grid Type                 RadialGrid  ... OptM3 with GC (2021)
Angular Grid (max. ang.)         AngularGrid ... 2 (Lebedev-110)
Angular grid pruning method      GridPruning ... 4 (adaptive)
Weight generation scheme         WeightScheme... Becke
Basis function cutoff            BFCut       ... 1.0000e-11
Integration weight cutoff        WCut        ... 1.0000e-14
Angular grids for H and He will be reduced by one unit
Partially contracted basis set               ... on
Rotationally invariant grid construction     ... off

Total number of grid points                  ...    50333
Total number of batches                      ...      807
Average number of points per batch           ...       62
Average number of grid points per atom       ...     1291
UseSFitting                                  ... on

GRIDX 3
-------
General Integration Accuracy     IntAcc      ... 4.338
Radial Grid Type                 RadialGrid  ... OptM3 with GC (2021)
Angular Grid (max. ang.)         AngularGrid ... 3 (Lebedev-194)
Angular grid pruning method      GridPruning ... 4 (adaptive)
Weight generation scheme         WeightScheme... Becke
Basis function cutoff            BFCut       ... 1.0000e-11
Integration weight cutoff        WCut        ... 1.0000e-14
Angular grids for H and He will be reduced by one unit
Partially contracted basis set               ... on
Rotationally invariant grid construction     ... off

Total number of grid points                  ...   108766
Total number of batches                      ...     1717
Average number of points per batch           ...       63
Average number of grid points per atom       ...     2789
UseSFitting                                  ... on

Time for X-Grid setup             =    4.229 sec

--------------
SCF ITERATIONS
--------------
ITER       Energy         Delta-E        Max-DP      RMS-DP      [F,P]     Damp
               ***  Starting incremental Fock matrix formation  ***
  0   -860.5656320945   0.00000000000014.62508869  0.14748631  2.9782222 0.7000
  1  -1097.5313323481-236.965700253637 8.65995970  0.11218044  1.4882235 0.7000
  2  -1167.2371244999 -69.705792151778 5.40838792  0.06576316  1.0245186 0.7000
  3  -1193.8317214021 -26.594596902224 3.75047576  0.04426209  0.7277829 0.7000
  4  -1210.9932238300 -17.161502427900 2.65222376  0.03596149  0.4480249 0.7000
  5  -1226.5462029807 -15.552979150684 2.04935468  0.02958794  0.3381359 0.7000
  6  -1236.6197123116 -10.073509330951 1.73311919  0.02924880  0.3226656 0.7000
  7  -1242.7417186054  -6.122006293755 1.79098599  0.02525447  0.3328836 0.7000
  8  -1247.1951294558  -4.453410850399 1.51410388  0.02464505  0.4075671 0.7000
  9  -1250.8759797774  -3.680850321639 1.61176961  0.02417211  0.3612763 0.7000
 10  -1253.3603850322  -2.484405254742 1.46208769  0.02428619  0.4234941 0.7000
 11  -1254.9452745056  -1.584889473465 1.55382993  0.02375369  0.3746612 0.7000
                               ***Turning on DIIS***
 12  -1256.2044937078  -1.259219202134 1.45540994  0.02384156  0.4404631 0.7000
 13  -1256.9742764673  -0.769782759566 1.41230883  0.02036814  0.3803750 0.7000
 14  -1267.6775971935 -10.703320726128 0.98494358  0.01442083  0.2618531 0.7000
 15  -1274.0454849114  -6.367887717886 0.69006192  0.01024824  0.1690700 0.7000
 16  -1278.1071579472  -4.061673035853 0.47986135  0.00725391  0.1211509 0.7000
 17  -1280.8570805558  -2.749922608575 0.32959021  0.00514130  0.1567940 0.7000
 18  -1282.8913311601  -2.034250604329 0.22693914  0.00366809  0.1556015 0.7000
 19  -1284.3995124316  -1.508181271492 0.15329480  0.00271518  0.1460771 0.7000
               *** Restarting incremental Fock matrix formation ***
                                   *** Resetting DIIS ***
 20  -1285.5469881868  -1.147475755213 0.12460998  0.00239856  0.1253575 0.7000
 21  -1286.4455783061  -0.898590119326 0.28728620  0.00541374  0.0453157 0.0000
 22  -1288.4063378300  -1.960759523859 0.03381163  0.00082181  0.0513323 0.0000
 23  -1288.4380241260  -0.031686296043 0.03177453  0.00055312  0.0181353 0.0000
 24  -1288.4424373157  -0.004413189617 0.01878729  0.00022150  0.0132063 0.0000
 25  -1288.4442860621  -0.001848746484 0.00611708  0.00010163  0.0025648 0.0000
 26  -1288.4446284222  -0.000342360105 0.00262941  0.00005446  0.0015354 0.0000
 27  -1288.4447464603  -0.000118038024 0.00423800  0.00007819  0.0009401 0.0000
               *** Restarting incremental Fock matrix formation ***
                                   *** Resetting DIIS ***
 28  -1288.4458568462  -0.001110385967 0.00468141  0.00008616  0.0006892 0.0000
 29  -1288.4458740902  -0.000017243936 0.00096170  0.00001216  0.0011397 0.0000
 30  -1288.4458787704  -0.000004680233 0.00085813  0.00000836  0.0003143 0.0000
 31  -1288.4458798129  -0.000001042479 0.00039664  0.00000322  0.0001595 0.0000
 32  -1288.4458800356  -0.000000222753 0.00032505  0.00000254  0.0001326 0.0000
 33  -1288.4458801540  -0.000000118343 0.00014263  0.00000125  0.0000380 0.0000
 34  -1288.4458801962  -0.000000042183 0.00005716  0.00000061  0.0000203 0.0000
 35  -1288.4458802019  -0.000000005723 0.00004634  0.00000039  0.0000099 0.0000
 36  -1288.4458801968   0.000000005120 0.00001489  0.00000014  0.0000033 0.0000
                 **** Energy Check signals convergence ****

               *****************************************************
               *                     SUCCESS                       *
               *           SCF CONVERGED AFTER  37 CYCLES          *
               *****************************************************

Old exchange energy                            =    -59.656633777 Eh
New exchange energy                            =    -59.656571562 Eh
Exchange energy change after final integration =      0.000062215 Eh
Total energy after final integration           =  -1288.445817980 Eh
Final COS-X integration done in                =    56.296 sec

----------------
TOTAL SCF ENERGY
----------------

Total Energy       :        -1288.44581798 Eh          -35060.39314 eV

Components:
Nuclear Repulsion  :         2035.96468189 Eh           55401.41555 eV
Electronic Energy  :        -3324.41049987 Eh          -90461.80869 eV
One Electron Energy:        -5827.47549675 Eh         -158573.67000 eV
Two Electron Energy:         2503.06499688 Eh           68111.86131 eV
Max COSX asymmetry :            0.00001873 Eh               0.00051 eV

Virial components:
Potential Energy   :        -2501.56001754 Eh          -68070.90874 eV
Kinetic Energy     :         1213.11419956 Eh           33010.51559 eV
Virial Ratio       :            2.06209771


DFT components:
N(Alpha)           :       82.000387996461 electrons
N(Beta)            :       82.000387996461 electrons
N(Total)           :      164.000775992922 electrons
E(X)               :      -79.592870705994 Eh       
E(C)               :       -7.455948210145 Eh       
E(XC)              :      -87.048818916139 Eh       
DFET-embed. en.    :        0.000000000000 Eh       

---------------
SCF CONVERGENCE
---------------

  Last Energy change         ...    1.3310e-09  Tolerance :   1.0000e-08
  Last MAX-Density change    ...    0.0000e+00  Tolerance :   1.0000e-07
  Last RMS-Density change    ...    0.0000e+00  Tolerance :   5.0000e-09
  Last DIIS Error            ...    1.6307e-06  Tolerance :   5.0000e-07

             **** THE GBW FILE WAS UPDATED (reaction4-IEIP_ts_guess_scan_5-10_orca.gbw) ****
             **** DENSITY reaction4-IEIP_ts_guess_scan_5-10_orca.scfp WAS UPDATED ****
             **** ENERGY FILE WAS UPDATED (reaction4-IEIP_ts_guess_scan_5-10_orca.en.tmp) ****
             **** THE GBW FILE WAS UPDATED (reaction4-IEIP_ts_guess_scan_5-10_orca.gbw) ****
             **** DENSITY reaction4-IEIP_ts_guess_scan_5-10_orca.scfp WAS UPDATED ****
----------------
ORBITAL ENERGIES
----------------

  NO   OCC          E(Eh)            E(eV) 
   0   2.0000     -89.760452     -2442.5061 
   1   2.0000     -19.627787      -534.0992 
   2   2.0000     -19.600041      -533.3442 
   3   2.0000     -14.837725      -403.7550 
   4   2.0000     -10.687407      -290.8191 
   5   2.0000     -10.658897      -290.0433 
   6   2.0000     -10.633751      -289.3591 
   7   2.0000     -10.632399      -289.3223 
   8   2.0000     -10.629146      -289.2338 
   9   2.0000     -10.628216      -289.2085 
  10   2.0000     -10.627492      -289.1888 
  11   2.0000     -10.626669      -289.1664 
  12   2.0000     -10.614919      -288.8466 
  13   2.0000     -10.608222      -288.6644 
  14   2.0000     -10.583285      -287.9858 
  15   2.0000     -10.580705      -287.9156 
  16   2.0000     -10.556077      -287.2455 
  17   2.0000     -10.551309      -287.1157 
  18   2.0000     -10.537493      -286.7398 
  19   2.0000      -8.399854      -228.5716 
  20   2.0000      -6.289840      -171.1552 
  21   2.0000      -6.286236      -171.0572 
  22   2.0000      -6.284698      -171.0153 
  23   2.0000      -4.027334      -109.5893 
  24   2.0000      -2.346164       -63.8424 
  25   2.0000      -2.312460       -62.9252 
  26   2.0000      -2.310554       -62.8734 
  27   2.0000      -1.316000       -35.8102 
  28   2.0000      -1.217685       -33.1349 
  29   2.0000      -1.210803       -32.9476 
  30   2.0000      -1.170295       -31.8453 
  31   2.0000      -1.124578       -30.6013 
  32   2.0000      -1.025529       -27.9061 
  33   2.0000      -0.984766       -26.7968 
  34   2.0000      -0.975423       -26.5426 
  35   2.0000      -0.964273       -26.2392 
  36   2.0000      -0.958065       -26.0703 
  37   2.0000      -0.932530       -25.3754 
  38   2.0000      -0.902012       -24.5450 
  39   2.0000      -0.872370       -23.7384 
  40   2.0000      -0.797578       -21.7032 
  41   2.0000      -0.786243       -21.3948 
  42   2.0000      -0.785133       -21.3645 
  43   2.0000      -0.780052       -21.2263 
  44   2.0000      -0.770118       -20.9560 
  45   2.0000      -0.760652       -20.6984 
  46   2.0000      -0.743332       -20.2271 
  47   2.0000      -0.723720       -19.6934 
  48   2.0000      -0.692421       -18.8417 
  49   2.0000      -0.678079       -18.4515 
  50   2.0000      -0.664126       -18.0718 
  51   2.0000      -0.652925       -17.7670 
  52   2.0000      -0.648907       -17.6577 
  53   2.0000      -0.638705       -17.3800 
  54   2.0000      -0.638152       -17.3650 
  55   2.0000      -0.633187       -17.2299 
  56   2.0000      -0.622644       -16.9430 
  57   2.0000      -0.610600       -16.6153 
  58   2.0000      -0.606094       -16.4927 
  59   2.0000      -0.605247       -16.4696 
  60   2.0000      -0.596927       -16.2432 
  61   2.0000      -0.588841       -16.0232 
  62   2.0000      -0.577230       -15.7072 
  63   2.0000      -0.569269       -15.4906 
  64   2.0000      -0.563120       -15.3233 
  65   2.0000      -0.559154       -15.2153 
  66   2.0000      -0.552470       -15.0335 
  67   2.0000      -0.548451       -14.9241 
  68   2.0000      -0.540413       -14.7054 
  69   2.0000      -0.535475       -14.5710 
  70   2.0000      -0.528074       -14.3696 
  71   2.0000      -0.519630       -14.1399 
  72   2.0000      -0.515288       -14.0217 
  73   2.0000      -0.504746       -13.7348 
  74   2.0000      -0.492420       -13.3994 
  75   2.0000      -0.480704       -13.0806 
  76   2.0000      -0.468329       -12.7439 
  77   2.0000      -0.448722       -12.2103 
  78   2.0000      -0.444214       -12.0877 
  79   2.0000      -0.420969       -11.4551 
  80   2.0000      -0.417012       -11.3475 
  81   2.0000      -0.400986       -10.9114 
  82   0.0000      -0.200088        -5.4447 
  83   0.0000      -0.156970        -4.2714 
  84   0.0000      -0.140794        -3.8312 
  85   0.0000      -0.093461        -2.5432 
  86   0.0000      -0.074474        -2.0265 
  87   0.0000      -0.065977        -1.7953 
  88   0.0000      -0.057192        -1.5563 
  89   0.0000      -0.056813        -1.5460 
  90   0.0000      -0.044585        -1.2132 
  91   0.0000      -0.033445        -0.9101 
  92   0.0000      -0.004487        -0.1221 
  93   0.0000      -0.002770        -0.0754 
  94   0.0000       0.013234         0.3601 
  95   0.0000       0.021185         0.5765 
  96   0.0000       0.024617         0.6699 
  97   0.0000       0.035759         0.9730 
  98   0.0000       0.045717         1.2440 
  99   0.0000       0.060693         1.6516 
 100   0.0000       0.069740         1.8977 
 101   0.0000       0.073080         1.9886 
 102   0.0000       0.074370         2.0237 
 103   0.0000       0.080914         2.2018 
 104   0.0000       0.084315         2.2943 
 105   0.0000       0.091352         2.4858 
 106   0.0000       0.095101         2.5878 
 107   0.0000       0.102610         2.7921 
 108   0.0000       0.106706         2.9036 
 109   0.0000       0.111546         3.0353 
 110   0.0000       0.114652         3.1198 
 111   0.0000       0.120691         3.2842 
 112   0.0000       0.123737         3.3671 
 113   0.0000       0.125530         3.4159 
 114   0.0000       0.129699         3.5293 
 115   0.0000       0.135752         3.6940 
 116   0.0000       0.144581         3.9342 
 117   0.0000       0.153795         4.1850 
 118   0.0000       0.157502         4.2858 
 119   0.0000       0.161672         4.3993 
 120   0.0000       0.168723         4.5912 
 121   0.0000       0.183380         4.9900 
 122   0.0000       0.193867         5.2754 
 123   0.0000       0.199489         5.4284 
 124   0.0000       0.227605         6.1934 
 125   0.0000       0.235667         6.4128 
 126   0.0000       0.255820         6.9612 
 127   0.0000       0.261394         7.1129 
 128   0.0000       0.278321         7.5735 
 129   0.0000       0.292161         7.9501 
 130   0.0000       0.304889         8.2964 
 131   0.0000       0.311924         8.4879 
 132   0.0000       0.322228         8.7683 
 133   0.0000       0.339429         9.2363 
 134   0.0000       0.340557         9.2670 
 135   0.0000       0.353068         9.6075 
 136   0.0000       0.357539         9.7291 
 137   0.0000       0.374818        10.1993 
 138   0.0000       0.381054        10.3690 
 139   0.0000       0.398536        10.8447 
 140   0.0000       0.404679        11.0119 
 141   0.0000       0.418657        11.3922 
 142   0.0000       0.425521        11.5790 
 143   0.0000       0.437214        11.8972 
 144   0.0000       0.443279        12.0622 
 145   0.0000       0.451390        12.2829 
 146   0.0000       0.456844        12.4314 
 147   0.0000       0.463227        12.6051 
 148   0.0000       0.467187        12.7128 
 149   0.0000       0.483149        13.1471 
 150   0.0000       0.486799        13.2465 
 151   0.0000       0.490430        13.3453 
 152   0.0000       0.491656        13.3786 
 153   0.0000       0.498856        13.5746 
 154   0.0000       0.506428        13.7806 
[...]

----------------------
LOEWDIN ATOMIC CHARGES
----------------------
   0 Ir:   -0.231829
   1 C :   -0.048297
   2 C :   -0.074266
   3 C :   -0.070211
   4 C :   -0.045434
   5 C :   -0.017517
   6 N :   -0.009861
   7 C :   -0.069539
   8 C :   -0.362673
   9 H :    0.156290
  10 H :    0.132950
  11 H :    0.145579
  12 C :   -0.343785
  13 H :    0.155208
  14 H :    0.151956
  15 H :    0.137420
  16 H :    0.132480
  17 C :    0.034118
  18 C :   -0.191075
  19 H :    0.160550
  20 C :   -0.209154
  21 C :   -0.136774
  22 S :    0.476558
  23 C :   -0.260881
  24 H :    0.319826
  25 H :    0.160932
  26 H :    0.167814
  27 H :    0.184223
  28 H :    0.183750
  29 H :    0.192184
  30 O :   -0.271728
  31 O :   -0.195868
  32 C :    0.162215
  33 C :   -0.373695
  34 H :    0.161798
  35 H :    0.169769
  36 H :    0.154613
  37 H :    0.185644
  38 H :    0.186710

-------------------------------
LOEWDIN REDUCED ORBITAL CHARGES
-------------------------------
  0 Irs       :     2.451742  s :     2.451742
      pz      :     2.243755  p :     6.755318
      px      :     2.243590
      py      :     2.267973
      dz2     :     1.816515  d :     7.936230
      dxz     :     1.703264
      dyz     :     1.319736
      dx2y2   :     1.633035
      dxy     :     1.463680
      f0      :     0.010927  f :     0.088538
      f+1     :     0.003680
      f-1     :     0.013716
      f+2     :     0.016173
      f-2     :     0.016398
      f+3     :     0.011242
      f-3     :     0.016401
  1 C s       :     2.874516  s :     2.874516
      pz      :     1.050854  p :     3.069861
      px      :     1.082157
      py      :     0.936851
      dz2     :     0.026114  d :     0.103920
      dxz     :     0.026370
      dyz     :     0.016895
      dx2y2   :     0.018822
      dxy     :     0.015719
  2 C s       :     2.874231  s :     2.874231
      pz      :     1.040953  p :     3.098646
      px      :     1.082280
      py      :     0.975413
      dz2     :     0.024837  d :     0.101389
      dxz     :     0.028201
      dyz     :     0.017302
      dx2y2   :     0.018012
      dxy     :     0.013037
  3 C s       :     2.873287  s :     2.873287
      pz      :     1.030615  p :     3.096272
      px      :     1.081993
      py      :     0.983665
      dz2     :     0.023192  d :     0.100652
      dxz     :     0.031923
      dyz     :     0.015618
      dx2y2   :     0.015701
      dxy     :     0.014217
  4 C s       :     2.875101  s :     2.875101
      pz      :     1.087625  p :     3.067279
      px      :     1.039538
      py      :     0.940116
      dz2     :     0.022732  d :     0.103054
      dxz     :     0.030619
      dyz     :     0.013025
      dx2y2   :     0.018509
      dxy     :     0.018169
  5 C s       :     2.878208  s :     2.878208
      pz      :     1.058184  p :     3.034285
      px      :     1.035276
      py      :     0.940825
      dz2     :     0.023599  d :     0.105024
      dxz     :     0.031077
      dyz     :     0.015780
      dx2y2   :     0.015753
      dxy     :     0.018816
  6 N s       :     3.122529  s :     3.122529
      pz      :     1.262004  p :     3.789543
      px      :     1.292233
      py      :     1.235306
      dz2     :     0.030374  d :     0.097789
      dxz     :     0.027553
      dyz     :     0.018458
      dx2y2   :     0.011594
      dxy     :     0.009809
  7 C s       :     2.862635  s :     2.862635
      pz      :     1.061244  p :     3.072698
      px      :     0.936195
      py      :     1.075259
      dz2     :     0.026760  d :     0.134206
      dxz     :     0.028118
      dyz     :     0.015970
      dx2y2   :     0.030086
      dxy     :     0.033272
  8 C s       :     2.953427  s :     2.953427
      pz      :     1.134154  p :     3.341782
      px      :     1.125027
      py      :     1.082601
      dz2     :     0.013800  d :     0.067464
      dxz     :     0.017309
      dyz     :     0.007716
      dx2y2   :     0.009764
      dxy     :     0.018874
  9 H s       :     0.843710  s :     0.843710
 10 H s       :     0.867050  s :     0.867050
 11 H s       :     0.854421  s :     0.854421
 12 C s       :     2.953227  s :     2.953227
      pz      :     1.143248  p :     3.322563
      px      :     1.109387
      py      :     1.069928
      dz2     :     0.012822  d :     0.067995
      dxz     :     0.013589
      dyz     :     0.011689
      dx2y2   :     0.011871
      dxy     :     0.018023
 13 H s       :     0.844792  s :     0.844792
 14 H s       :     0.848044  s :     0.848044
 15 H s       :     0.862580  s :     0.862580
 16 H s       :     0.867520  s :     0.867520
 17 C s       :     2.877588  s :     2.877588
      pz      :     1.017221  p :     2.947759
      px      :     1.066578
      py      :     0.863961
      dz2     :     0.039881  d :     0.140534
      dxz     :     0.050851
      dyz     :     0.025309
      dx2y2   :     0.011696
      dxy     :     0.012797
 18 C s       :     2.894055  s :     2.894055
      pz      :     1.045765  p :     3.184785
      px      :     1.090736
      py      :     1.048284
      dz2     :     0.033117  d :     0.112235
      dxz     :     0.032008
      dyz     :     0.017007
      dx2y2   :     0.018062
      dxy     :     0.012041
 19 H s       :     0.839450  s :     0.839450
 20 C s       :     2.917894  s :     2.917894
      pz      :     1.127906  p :     3.201613
      px      :     1.052348
      py      :     1.021359
      dz2     :     0.011230  d :     0.089647
      dxz     :     0.035372
      dyz     :     0.009367
      dx2y2   :     0.016905
      dxy     :     0.016773
 21 C s       :     2.898046  s :     2.898046
      pz      :     1.074663  p :     3.144178
      px      :     1.089796
      py      :     0.979719
      dz2     :     0.027386  d :     0.094551
      dxz     :     0.030710
      dyz     :     0.014071
      dx2y2   :     0.014640
      dxy     :     0.007743
 22 S s       :     5.502925  s :     5.502925
      pz      :     3.261759  p :     9.866904
      px      :     3.089244
      py      :     3.515901
      dz2     :     0.046398  d :     0.153613
      dxz     :     0.031816
      dyz     :     0.020221
      dx2y2   :     0.030872
      dxy     :     0.024307
 23 C s       :     2.965206  s :     2.965206
      pz      :     1.120560  p :     3.209852
      px      :     1.022771
      py      :     1.066521
      dz2     :     0.023075  d :     0.085823
      dxz     :     0.028881
      dyz     :     0.011920
      dx2y2   :     0.012426
      dxy     :     0.009521
 24 H s       :     0.680174  s :     0.680174
 25 H s       :     0.839068  s :     0.839068
 26 H s       :     0.832186  s :     0.832186
 27 H s       :     0.815777  s :     0.815777
 28 H s       :     0.816250  s :     0.816250
 29 H s       :     0.807816  s :     0.807816
 30 O s       :     3.507488  s :     3.507488
      pz      :     1.452039  p :     4.709356
      px      :     1.551036
      py      :     1.706281
      dz2     :     0.017063  d :     0.054883
      dxz     :     0.013739
      dyz     :     0.015740
      dx2y2   :     0.004949
      dxy     :     0.003393
 31 O s       :     3.443854  s :     3.443854
      pz      :     1.693914  p :     4.692311
      px      :     1.613225
      py      :     1.385172
      dz2     :     0.009201  d :     0.059703
      dxz     :     0.003983
      dyz     :     0.016210
      dx2y2   :     0.015096
      dxy     :     0.015213
 32 C s       :     2.812872  s :     2.812872
      pz      :     0.985848  p :     2.704105
      px      :     0.760650
      py      :     0.957607
      dz2     :     0.073964  d :     0.320808
      dxz     :     0.047742
      dyz     :     0.103646
      dx2y2   :     0.046500
      dxy     :     0.048957
 33 C s       :     2.958895  s :     2.958895
      pz      :     1.100319  p :     3.352141
      px      :     1.151406
      py      :     1.100416
      dz2     :     0.004615  d :     0.062658
      dxz     :     0.017167
      dyz     :     0.020392
      dx2y2   :     0.018335
      dxy     :     0.002149
 34 H s       :     0.838202  s :     0.838202
 35 H s       :     0.830231  s :     0.830231
 36 H s       :     0.845387  s :     0.845387
 37 H s       :     0.814356  s :     0.814356
 38 H s       :     0.813290  s :     0.813290


                      *****************************
                      * MAYER POPULATION ANALYSIS *
                      *****************************

  NA   - Mulliken gross atomic population
  ZA   - Total nuclear charge
  QA   - Mulliken gross atomic charge
  VA   - Mayer's total valence
  BVA  - Mayer's bonded valence
  FA   - Mayer's free valence

  ATOM       NA         ZA         QA         VA         BVA        FA
  0 Ir    16.3884    17.0000     0.6116     3.7471     3.7471    -0.0000
  1 C      6.2209     6.0000    -0.2209     3.7069     3.7069    -0.0000
  2 C      6.2843     6.0000    -0.2843     3.7393     3.7393     0.0000
  3 C      6.2475     6.0000    -0.2475     3.7369     3.7369     0.0000
  4 C      6.2353     6.0000    -0.2353     3.7213     3.7213     0.0000
  5 C      6.1631     6.0000    -0.1631     3.6936     3.6936    -0.0000
  6 N      7.4344     7.0000    -0.4344     3.2153     3.2153    -0.0000
  7 C      6.1273     6.0000    -0.1273     3.7038     3.7038     0.0000
  8 C      6.6835     6.0000    -0.6835     3.6869     3.6869     0.0000
  9 H      0.7305     1.0000     0.2695     0.8973     0.8973    -0.0000
 10 H      0.7754     1.0000     0.2246     0.9107     0.9107     0.0000
 11 H      0.7418     1.0000     0.2582     0.8988     0.8988     0.0000
 12 C      6.6346     6.0000    -0.6346     3.6730     3.6730    -0.0000
 13 H      0.7197     1.0000     0.2803     0.8745     0.8745    -0.0000
 14 H      0.7383     1.0000     0.2617     0.8977     0.8977     0.0000
 15 H      0.7685     1.0000     0.2315     0.9097     0.9097     0.0000
 16 H      0.7692     1.0000     0.2308     0.9065     0.9065     0.0000
 17 C      5.9295     6.0000     0.0705     3.6501     3.6501    -0.0000
 18 C      6.1677     6.0000    -0.1677     3.7123     3.7123    -0.0000
 19 H      0.7134     1.0000     0.2866     0.8875     0.8875     0.0000
 20 C      6.4685     6.0000    -0.4685     3.4861     3.4861    -0.0000
 21 C      6.1338     6.0000    -0.1338     3.7643     3.7643     0.0000
 22 S     15.6819    16.0000     0.3181     2.5807     2.5807    -0.0000
 23 C      6.4279     6.0000    -0.4279     3.7509     3.7509    -0.0000
 24 H      0.5078     1.0000     0.4922     0.7327     0.7327    -0.0000
 25 H      0.7362     1.0000     0.2638     0.9042     0.9042     0.0000
 26 H      0.7035     1.0000     0.2965     0.8976     0.8976    -0.0000
 27 H      0.7106     1.0000     0.2894     0.9032     0.9032    -0.0000
 28 H      0.7110     1.0000     0.2890     0.9066     0.9066    -0.0000
 29 H      0.6957     1.0000     0.3043     0.8925     0.8925    -0.0000
 30 O      8.4877     8.0000    -0.4877     2.1155     2.1155     0.0000
 31 O      8.5281     8.0000    -0.5281     2.0908     2.0908     0.0000
 32 C      5.3737     6.0000     0.6263     3.9020     3.9020    -0.0000
 33 C      6.7451     6.0000    -0.7451     3.6642     3.6642    -0.0000
 34 H      0.7286     1.0000     0.2714     0.8943     0.8943    -0.0000
 35 H      0.7295     1.0000     0.2705     0.8935     0.8935    -0.0000
 36 H      0.7432     1.0000     0.2568     0.8995     0.8995    -0.0000
 37 H      0.7097     1.0000     0.2903     0.9035     0.9035    -0.0000
 38 H      0.7044     1.0000     0.2956     0.9016     0.9016     0.0000

  Mayer bond orders larger than 0.100000
B(  0-Ir,  1-C ) :   0.4240 B(  0-Ir,  2-C ) :   0.5081 B(  0-Ir,  3-C ) :   0.4619 
B(  0-Ir,  4-C ) :   0.4475 B(  0-Ir,  5-C ) :   0.4009 B(  0-Ir,  6-N ) :   0.4667 
B(  0-Ir, 20-C ) :   0.3140 B(  0-Ir, 31-O ) :   0.5547 B(  1-C ,  2-C ) :   1.1200 
B(  1-C ,  4-C ) :   1.2406 B(  1-C , 27-H ) :   0.9050 B(  2-C ,  5-C ) :   1.1490 
B(  2-C , 28-H ) :   0.9086 B(  3-C ,  4-C ) :   1.1130 B(  3-C ,  5-C ) :   1.2195 
B(  3-C , 37-H ) :   0.9078 B(  4-C , 38-H ) :   0.8999 B(  5-C , 29-H ) :   0.8983 
B(  6-N ,  7-C ) :   0.8922 B(  6-N , 17-C ) :   1.6686 B(  7-C ,  8-C ) :   0.9910 
B(  7-C , 12-C ) :   0.9679 B(  7-C , 13-H ) :   0.8759 B(  8-C ,  9-H ) :   0.9045 
B(  8-C , 10-H ) :   0.9132 B(  8-C , 11-H ) :   0.9101 B( 12-C , 14-H ) :   0.9071 
B( 12-C , 15-H ) :   0.9156 B( 12-C , 16-H ) :   0.9128 B( 17-C , 18-C ) :   1.0858 
B( 17-C , 19-H ) :   0.8757 B( 18-C , 20-C ) :   1.2796 B( 18-C , 22-S ) :   1.2261 
B( 20-C , 21-C ) :   1.2822 B( 20-C , 24-H ) :   0.4116 B( 21-C , 23-C ) :   1.5420 
B( 21-C , 25-H ) :   0.9051 B( 22-S , 23-C ) :   1.2128 B( 23-C , 26-H ) :   0.8919 
B( 24-H , 30-O ) :   0.2833 B( 30-O , 32-C ) :   1.6277 B( 31-O , 32-C ) :   1.3224 
B( 32-C , 33-C ) :   0.9477 B( 33-C , 34-H ) :   0.9030 B( 33-C , 35-H ) :   0.8960 
B( 33-C , 36-H ) :   0.9086 


------------------
HIRSHFELD ANALYSIS
------------------

Total integrated alpha density =     82.000003770
Total integrated beta density  =     82.000003770

  ATOM     CHARGE      SPIN    
   0 Ir   0.193011    0.000000
   1 C    0.002916    0.000000
   2 C   -0.005313    0.000000
   3 C   -0.006633    0.000000
   4 C    0.001730    0.000000
   5 C    0.020698    0.000000
   6 N   -0.070678    0.000000
   7 C    0.052725    0.000000
   8 C   -0.071319    0.000000
   9 H    0.053242    0.000000
  10 H    0.037604    0.000000
  11 H    0.042578    0.000000
  12 C   -0.071088    0.000000
  13 H    0.045090    0.000000
  14 H    0.050773    0.000000
  15 H    0.036894    0.000000
  16 H    0.030193    0.000000
  17 C    0.098393    0.000000
  18 C   -0.010503    0.000000
  19 H    0.076800    0.000000
  20 C   -0.078971    0.000000
  21 C   -0.032471    0.000000
  22 S    0.127383    0.000000
  23 C   -0.026260    0.000000
  24 H    0.075258    0.000000
  25 H    0.068250    0.000000
  26 H    0.077743    0.000000
  27 H    0.083036    0.000000
  28 H    0.082928    0.000000
  29 H    0.093805    0.000000
  30 O   -0.241636    0.000000
  31 O   -0.251756    0.000000
  32 C    0.247882    0.000000
  33 C   -0.065136    0.000000
  34 H    0.056188    0.000000
  35 H    0.061699    0.000000
  36 H    0.049781    0.000000
  37 H    0.084657    0.000000
  38 H    0.080503    0.000000

  TOTAL   0.999992    0.000000

-------
TIMINGS
-------

Total SCF time: 0 days 0 hours 4 min 16 sec 

Total time                  ....     256.329 sec
Sum of individual times     ....     255.647 sec  ( 99.7%)

Fock matrix formation       ....     247.874 sec  ( 96.7%)
  Split-RI-J                ....      17.647 sec  (  7.1% of F)
  Chain of spheres X        ....     219.672 sec  ( 88.6% of F)
  XC integration            ....      10.554 sec  (  4.3% of F)
    Basis function eval.    ....       4.815 sec  ( 45.6% of XC)
    Density eval.           ....       2.814 sec  ( 26.7% of XC)
    XC-Functional eval.     ....       0.773 sec  (  7.3% of XC)
    XC-Potential eval.      ....       1.729 sec  ( 16.4% of XC)
Diagonalization             ....       0.177 sec  (  0.1%)
Density matrix formation    ....       0.029 sec  (  0.0%)
Population analysis         ....       1.217 sec  (  0.5%)
Initial guess               ....       0.031 sec  (  0.0%)
Orbital Transformation      ....       0.000 sec  (  0.0%)
Orbital Orthonormalization  ....       0.022 sec  (  0.0%)
DIIS solution               ....       0.216 sec  (  0.1%)
Grid generation             ....       6.105 sec  (  2.4%)

Maximum memory used throughout the entire SCF-calculation: 173.1 MB


-------------------------------------------------------------------------------
                          DFT DISPERSION CORRECTION                            
                                                                               
                              DFTD3 V3.1  Rev 1                                
                          USING Becke-Johnson damping                          
-------------------------------------------------------------------------------
The PBEh-3c composite method is recognized
Using three-body term ABC
Active option DFTDOPT                   ...         4   

molecular C6(AA) [au] = 19551.701610 


            DFT-D V3
 parameters
 s6 scaling factor         :     1.0000 
 a1 scaling factor         :     0.4860 
 s8 scaling factor         :     0.0000 
 a2 scaling factor         :     4.5000 
 Damping factor alpha9(ATM):    16.0000 
 ad hoc parameters k1-k3   :    16.0000     1.3333    -4.0000 

 Edisp/kcal,au: -19.207019208319  -0.030608330158 
 E6   /kcal   : -19.549207064 
 E8   /kcal   :  -0.000000000 
 E6(ABC)      :   0.342187855 
 % E8         :   0.000000000 
 % E6(ABC)    :  -1.781577097 

-------------------------   ----------------
Dispersion correction           -0.030608330
-------------------------   ----------------

 ** NOTE ** -> element ir will be treated as co
NOTIFICATION: Different basis set in ORCA and otool_gcp:
ORCA: 358  gCP: 357 
If you are NOT using ECPs, check your basis set inputs!
------------------   -----------------
gCP correction             0.078472248
------------------   -----------------

-------------------------   --------------------
FINAL SINGLE POINT ENERGY     -1288.398410393039
-------------------------   --------------------

                                *** OPTIMIZATION RUN DONE ***

                            ***************************************
                            *     ORCA property calculations      *
                            ***************************************

                                    ---------------------
                                    Active property flags
                                    ---------------------
   (+) Dipole Moment


------------------------------------------------------------------------------
                       ORCA ELECTRIC PROPERTIES CALCULATION
------------------------------------------------------------------------------

Dipole Moment Calculation                       ... on
Quadrupole Moment Calculation                   ... off
Polarizability Calculation                      ... off
GBWName                                         ... reaction4-IEIP_ts_guess_scan_5-10_orca.gbw
Electron density                                ... reaction4-IEIP_ts_guess_scan_5-10_orca.scfp
The origin for moment calculation is the CENTER OF MASS  = ( 0.854824, -0.606359 -0.127494)

-------------
DIPOLE MOMENT
-------------
                                X             Y             Z
Electronic contribution:     36.71499     -70.72698      76.98467
Nuclear contribution   :    -37.33762      69.78772     -77.16374
                        -----------------------------------------
Total Dipole Moment    :     -0.62263      -0.93926      -0.17907
                        -----------------------------------------
Magnitude (a.u.)       :      1.14102
Magnitude (Debye)      :      2.90025



--------------------
Rotational spectrum 
--------------------
 
Rotational constants in cm-1:     0.010551     0.008896     0.008131 
Rotational constants in MHz :   316.323456   266.708282   243.774623 

 Dipole components along the rotational axes: 
x,y,z [a.u.] :     0.020115     0.313924    -1.096805 
x,y,z [Debye]:     0.051128     0.797932    -2.787858 

 

Timings for individual modules:

Sum of individual times         ...     6737.671 sec (= 112.295 min)
GTO integral calculation        ...       24.512 sec (=   0.409 min)   0.4 %
SCF iterations                  ...     5283.602 sec (=  88.060 min)  78.4 %
SCF Gradient evaluation         ...     1426.161 sec (=  23.769 min)  21.2 %
Geometry relaxation             ...        3.396 sec (=   0.057 min)   0.1 %
                             ****ORCA TERMINATED NORMALLY****
TOTAL RUN TIME: 0 days 1 hours 52 minutes 22 seconds 768 msec
