
                                 *****************
                                 * O   R   C   A *
                                 *****************

                                            #,                                       
                                            ###                                      
                                            ####                                     
                                            #####                                    
                                            ######                                   
                                           ########,                                 
                                     ,,################,,,,,                         
                               ,,#################################,,                 
                          ,,##########################################,,             
                       ,#########################################, ''#####,          
                    ,#############################################,,   '####,        
                  ,##################################################,,,,####,       
                ,###########''''           ''''###############################       
              ,#####''   ,,,,##########,,,,          '''####'''          '####       
            ,##' ,,,,###########################,,,                        '##       
           ' ,,###''''                  '''############,,,                           
         ,,##''                                '''############,,,,        ,,,,,,###''
      ,#''                                            '''#######################'''  
     '                                                          ''''####''''         
             ,#######,   #######,   ,#######,      ##                                
            ,#'     '#,  ##    ##  ,#'     '#,    #''#        ######   ,####,        
            ##       ##  ##   ,#'  ##            #'  '#       #        #'  '#        
            ##       ##  #######   ##           ,######,      #####,   #    #        
            '#,     ,#'  ##    ##  '#,     ,#' ,#      #,         ##   #,  ,#        
             '#######'   ##     ##  '#######'  #'      '#     #####' # '####'        



                  #######################################################
                  #                        -***-                        #
                  #          Department of theory and spectroscopy      #
                  #    Directorship and core code : Frank Neese         #
                  #        Max Planck Institute fuer Kohlenforschung    #
                  #                Kaiser Wilhelm Platz 1               #
                  #                 D-45470 Muelheim/Ruhr               #
                  #                      Germany                        #
                  #                                                     #
                  #                  All rights reserved                #
                  #                        -***-                        #
                  #######################################################


                         Program Version 5.0.3 -  RELEASE  -


 With contributions from (in alphabetic order):
   Daniel Aravena         : Magnetic Suceptibility
   Michael Atanasov       : Ab Initio Ligand Field Theory (pilot matlab implementation)
   Alexander A. Auer      : GIAO ZORA, VPT2 properties, NMR spectrum
   Ute Becker             : Parallelization
   Giovanni Bistoni       : ED, misc. LED, open-shell LED, HFLD
   Martin Brehm           : Molecular dynamics
   Dmytro Bykov           : SCF Hessian
   Vijay G. Chilkuri      : MRCI spin determinant printing, contributions to CSF-ICE
   Dipayan Datta          : RHF DLPNO-CCSD density
   Achintya Kumar Dutta   : EOM-CC, STEOM-CC
   Dmitry Ganyushin       : Spin-Orbit,Spin-Spin,Magnetic field MRCI
   Miquel Garcia          : C-PCM and meta-GGA Hessian, CC/C-PCM, Gaussian charge scheme
   Yang Guo               : DLPNO-NEVPT2, F12-NEVPT2, CIM, IAO-localization
   Andreas Hansen         : Spin unrestricted coupled pair/coupled cluster methods
   Benjamin Helmich-Paris : MC-RPA, TRAH-SCF, COSX integrals
   Lee Huntington         : MR-EOM, pCC
   Robert Izsak           : Overlap fitted RIJCOSX, COSX-SCS-MP3, EOM
   Marcus Kettner         : VPT2
   Christian Kollmar      : KDIIS, OOCD, Brueckner-CCSD(T), CCSD density, CASPT2, CASPT2-K
   Simone Kossmann        : Meta GGA functionals, TD-DFT gradient, OOMP2, MP2 Hessian
   Martin Krupicka        : Initial AUTO-CI
   Lucas Lang             : DCDCAS
   Marvin Lechner         : AUTO-CI (C++ implementation), FIC-MRCC
   Dagmar Lenk            : GEPOL surface, SMD
   Dimitrios Liakos       : Extrapolation schemes; Compound Job, initial MDCI parallelization
   Dimitrios Manganas     : Further ROCIS development; embedding schemes
   Dimitrios Pantazis     : SARC Basis sets
   Anastasios Papadopoulos: AUTO-CI, single reference methods and gradients
   Taras Petrenko         : DFT Hessian,TD-DFT gradient, ASA, ECA, R-Raman, ABS, FL, XAS/XES, NRVS
   Peter Pinski           : DLPNO-MP2, DLPNO-MP2 Gradient
   Christoph Reimann      : Effective Core Potentials
   Marius Retegan         : Local ZFS, SOC
   Christoph Riplinger    : Optimizer, TS searches, QM/MM, DLPNO-CCSD(T), (RO)-DLPNO pert. Triples
   Tobias Risthaus        : Range-separated hybrids, TD-DFT gradient, RPA, STAB
   Michael Roemelt        : Original ROCIS implementation
   Masaaki Saitow         : Open-shell DLPNO-CCSD energy and density
   Barbara Sandhoefer     : DKH picture change effects
   Avijit Sen             : IP-ROCIS
   Kantharuban Sivalingam : CASSCF convergence, NEVPT2, FIC-MRCI
   Bernardo de Souza      : ESD, SOC TD-DFT
   Georgi Stoychev        : AutoAux, RI-MP2 NMR, DLPNO-MP2 response
   Willem Van den Heuvel  : Paramagnetic NMR
   Boris Wezisla          : Elementary symmetry handling
   Frank Wennmohs         : Technical directorship


 We gratefully acknowledge several colleagues who have allowed us to
 interface, adapt or use parts of their codes:
   Stefan Grimme, W. Hujo, H. Kruse, P. Pracht,  : VdW corrections, initial TS optimization,
                  C. Bannwarth, S. Ehlert          DFT functionals, gCP, sTDA/sTD-DF
   Ed Valeev, F. Pavosevic, A. Kumar             : LibInt (2-el integral package), F12 methods
   Garnet Chan, S. Sharma, J. Yang, R. Olivares  : DMRG
   Ulf Ekstrom                                   : XCFun DFT Library
   Mihaly Kallay                                 : mrcc  (arbitrary order and MRCC methods)
   Jiri Pittner, Ondrej Demel                    : Mk-CCSD
   Frank Weinhold                                : gennbo (NPA and NBO analysis)
   Christopher J. Cramer and Donald G. Truhlar   : smd solvation model
   Lars Goerigk                                  : TD-DFT with DH, B97 family of functionals
   V. Asgeirsson, H. Jonsson                     : NEB implementation
   FAccTs GmbH                                   : IRC, NEB, NEB-TS, DLPNO-Multilevel, CI-OPT
                                                   MM, QMMM, 2- and 3-layer-ONIOM, Crystal-QMMM,
                                                   LR-CPCM, SF, NACMEs, symmetry and pop. for TD-DFT,
                                                   nearIR, NL-DFT gradient (VV10), updates on ESD,
                                                   ML-optimized integration grids
   S Lehtola, MJT Oliveira, MAL Marques          : LibXC Library
   Liviu Ungur et al                             : ANISO software


 Your calculation uses the libint2 library for the computation of 2-el integrals
 For citations please refer to: http://libint.valeyev.net

 Your ORCA version has been built with support for libXC version: 5.1.0
 For citations please refer to: https://tddft.org/programs/libxc/

 This ORCA versions uses:
   CBLAS   interface :  Fast vector & matrix operations
   LAPACKE interface :  Fast linear algebra routines
   SCALAPACK package :  Parallel linear algebra routines
   Shared memory     :  Shared parallel matrices
   BLAS/LAPACK       :  OpenBLAS 0.3.15  USE64BITINT DYNAMIC_ARCH NO_AFFINITY SkylakeX SINGLE_THREADED
        Core in use  :  SkylakeX
   Copyright (c) 2011-2014, The OpenBLAS Project


Your calculation utilizes the geometrical counterpoise correction gCP
Please cite in your paper:
H.Kruse, S. Grimme J.Chem.Phys., 136, (2012), 154101 
   

Your calculation utilizes the atom-pairwise dispersion correction
with the Becke-Johnson damping scheme (D3BJ)
Cite in your paper:
S.Grimme, S.Ehrlich, L.Goerigk, J Comput Chem, (2011), 32, 1456–1465 
S.Grimme, J.Antony, S.Ehrlich and H.Krieg, J.Chem.Phys., 132, (2010), 154104 
   

Your calculation employs the composite approach PBEh-3c.
Please cite in your paper:
S. Grimme, J. G. Brandenburg, C. Bannwarth, A. Hansen J.Chem.Phys., 143, (2015), 054107 
   

================================================================================

cite the ECPs for Ir [Def2-ECP] as follows:
Ce-Yb(ecp-28): M. Dolg, H. Stoll, H.Preuss, J. Chem. Phys., 1989, 90, 1730-1734.
Y-Cd(ecp-28), Hf-Hg(ecp-46): D. Andrae,U. Haeussermann, M. Dolg, H. Stoll, H. Preuss, Theor. Chim. Acta, 1990, 77, 123-141.
In-Sb(ecp-28), Tl-Bi(ecp-46): B. Metz, H. Stoll, M. Dolg, J. Chem. Phys., 2000, 113, 2563-2569.
Te-Xe(ecp-28), Po-Rn(ecp-46): K. A. Peterson, D. Figgen, E. Goll, H. Stoll, M. Dolg, J. Chem. Phys., 2003, 119, 11113-11123.
Rb(ecp-28), Cs(ecp-46): T. Leininger, A. Nicklass, W. Kuechle, H. Stoll, M. Dolg, A. Bergner, Chem. Phys. Lett., 1996, 255, 274-280.
Sr(ecp-28), Ba(ecp-46): M. Kaupp, P. V. Schleyer, H. Stoll and H. Preuss, J. Chem. Phys., 1991, 94, 1360-1366.
La(ecp-46): M. Dolg, H. Stoll, A. Savin, H. Preuss, Theor. Chim. Acta, 1989, 75, 173-194.
Lu(ecp-28): X. Cao, M. Dolg, J. Chem. Phys., 2001, 115, 7348-7355.

ECP parameters for Ir [Def2-ECP] have been obtained from:
TURBOMOLE (7.0.2)

----- Orbital basis set information -----
Your calculation utilizes the basis: def2-mSVP

----- AuxJ basis set information -----
Your calculation utilizes the auxiliary basis: def2/J
   F. Weigend, Phys. Chem. Chem. Phys. 8, 1057 (2006).

================================================================================
                                        WARNINGS
                       Please study these warnings very carefully!
================================================================================


WARNING: Geometry Optimization
  ===> : Switching off AutoStart
         For restart on a previous wavefunction, please use MOREAD

WARNING: No Hueckel Guess possible with ECP basis!
  ===> : Switching to HCORE guess!

INFO   : the flag for use of the SHARK integral package has been found!

================================================================================
                                       INPUT FILE
================================================================================
NAME = reaction4-IEIP_ts_guess_scan_10-13_orca.inp
|  1> ! Opt PBEh-3c
|  2> %geom Constraints
|  3> { B 0 20 2.1714285714285713 C }
|  4> { B 24 30 1.3142857142857143 C }
|  5>     end
|  6> end
|  7> %output 
|  8> xyzfile=True 
|  9> end 
| 10> %scf 
| 11> maxiter 250 
| 12> end
| 13> %output
| 14> Print[P_Hirshfeld] = 1
| 15> end
| 16> % maxcore
| 17> 4000
| 18> *xyz 1 1
| 19> Ir   0.60309583  -0.73674553   0.45522770 
| 20> C    0.12126156  -2.84377002   0.36765327 
| 21> C   -0.09746464  -2.37662413   1.71229176 
| 22> C    2.13886035  -2.08001063   1.19760447 
| 23> C    1.48736460  -2.66632851   0.05747059 
| 24> C    1.15485909  -1.93213013   2.20961074 
| 25> N   -1.06451892   0.10761826  -0.50582448 
| 26> C   -2.34652506   0.30187381   0.19069679 
| 27> C   -3.13649545   1.50605230  -0.30255409 
| 28> H   -3.97281879   1.67874653   0.37300296 
| 29> H   -3.56395846   1.35660077  -1.29492623 
| 30> H   -2.53188728   2.41317924  -0.31371986 
| 31> C   -3.17008773  -0.97803258   0.10258870 
| 32> H   -2.07962398   0.47820207   1.23377992 
| 33> H   -4.08449230  -0.87312519   0.68518586 
| 34> H   -3.45432085  -1.19180453  -0.92858803 
| 35> H   -2.63094904  -1.84028526   0.49166098 
| 36> C   -0.90833284   0.45289008  -1.73103962 
| 37> C    0.40833828   0.29998411  -2.27275039 
| 38> H   -1.72372531   0.86672394  -2.31624645 
| 39> C    1.47165370   0.10699911  -1.39862328 
| 40> C    2.67157069  -0.12630126  -2.12951386 
| 41> S    0.86213118   0.23429263  -3.91089920 
| 42> C    2.48799658  -0.07775745  -3.48004089 
| 43> H    1.65134145   1.15867797  -0.58225139 
| 44> H    3.64195589  -0.26634773  -1.67578723 
| 45> H    3.23412251  -0.19138378  -4.25182253 
| 46> H   -0.62239462  -3.27216436  -0.28837886 
| 47> H   -1.02094595  -2.41970757   2.26940686 
| 48> H    1.31818086  -1.48493016   3.18008169 
| 49> O    1.77216612   2.26652260   0.14106296 
| 50> O    0.55772047   1.02933288   1.53490628 
| 51> C    1.15119248   2.10308958   1.21366480 
| 52> C    1.11990641   3.23009569   2.20143877 
| 53> H    0.99947163   4.18280093   1.69041584 
| 54> H    2.07578171   3.26647154   2.72677037 
| 55> H    0.33078558   3.09692005   2.93578640 
| 56> H    3.19017482  -1.85702993   1.29363719 
| 57> H    1.95797933  -2.92340533  -0.88023846 
| 58> *
| 59> 
| 60>                          ****END OF INPUT****
================================================================================

                       *****************************
                       * Geometry Optimization Run *
                       *****************************

Geometry optimization settings:
Update method            Update   .... BFGS
Choice of coordinates    CoordSys .... Z-matrix Internals
Initial Hessian          InHess   .... Almoef's Model

Convergence Tolerances:
Energy Change            TolE     ....  5.0000e-06 Eh
Max. Gradient            TolMAXG  ....  3.0000e-04 Eh/bohr
RMS Gradient             TolRMSG  ....  1.0000e-04 Eh/bohr
Max. Displacement        TolMAXD  ....  4.0000e-03 bohr
RMS Displacement         TolRMSD  ....  2.0000e-03 bohr
Strict Convergence                ....  False
------------------------------------------------------------------------------
                        ORCA OPTIMIZATION COORDINATE SETUP
------------------------------------------------------------------------------

The optimization will be done in new redundant internal coordinates
Making redundant internal coordinates   ...  (new redundants) done
Evaluating the initial hessian          ...  (Almloef) done
Evaluating the coordinates              ...  done
Calculating the B-matrix                .... done
Calculating the G-matrix                .... done
Diagonalizing the G-matrix              .... done
Imposing constraints:
 Iter   0:  RMS(Cart)=    0.0165722271 RMS(Int)=    0.0114338815
 Iter   1:  RMS(Cart)=    0.0032244113 RMS(Int)=    0.0022990104
 Iter   2:  RMS(Cart)=    0.0006507588 RMS(Int)=    0.0004660893
 Iter   3:  RMS(Cart)=    0.0001320021 RMS(Int)=    0.0000946129
 Iter   4:  RMS(Cart)=    0.0000267980 RMS(Int)=    0.0000192106
 Iter   5:  RMS(Cart)=    0.0000054413 RMS(Int)=    0.0000039008
 Iter   6:  RMS(Cart)=    0.0000011049 RMS(Int)=    0.0000007921
 Iter   7:  RMS(Cart)=    0.0000002244 RMS(Int)=    0.0000001608
 Iter   8:  RMS(Cart)=    0.0000000456 RMS(Int)=    0.0000000327
CONVERGED
Small eigenvalue found = 1.439e-02
Small eigenvalue found = 2.379e-02
The first mode is                       ....  288
The number of degrees of freedom        ....  111
Storing new coordinates                 .... done

    -----------------------------------------------------------------
                    Redundant Internal Coordinates


    -----------------------------------------------------------------
         Definition                    Initial Value    Approx d2E/dq
    -----------------------------------------------------------------
      1. B(C   1,Ir  0)                  2.1628         0.084941   
      2. B(C   2,Ir  0)                  2.1813         0.079331   
      3. B(C   2,C   1)                  1.4404         0.519612   
      4. B(C   3,Ir  0)                  2.1707         0.082481   
      5. B(C   4,C   3)                  1.4379         0.523605   
      6. B(C   4,Ir  0)                  2.1592         0.086100   
      7. B(C   4,C   1)                  1.4129         0.576143   
      8. B(C   5,Ir  0)                  2.1927         0.076002   
      9. B(C   5,C   2)                  1.4203         0.561908   
     10. B(C   5,C   3)                  1.4207         0.561131   
     11. B(N   6,Ir  0)                  2.1022         0.095327   
     12. B(C   7,N   6)                  1.4719         0.414237   
     13. B(C   8,C   7)                  1.5223         0.384294   
     14. B(H   9,C   8)                  1.0889         0.361598   
     15. B(H  10,C   8)                  1.0908         0.359032   
     16. B(H  11,C   8)                  1.0902         0.359824   
     17. B(C  12,C   7)                  1.5245         0.381163   
     18. B(H  13,C   7)                  1.0910         0.358738   
     19. B(H  14,C  12)                  1.0893         0.361036   
     20. B(H  15,C  12)                  1.0908         0.359063   
     21. B(H  16,C  12)                  1.0888         0.361665   
     22. B(C  17,N   6)                  1.2767         0.830643   
     23. B(C  18,C  17)                  1.4264         0.535581   
     24. B(H  19,C  17)                  1.0856         0.365929   
     25. B(C  20,Ir  0)                  2.1714         0.070403 C 
     26. B(C  20,C  18)                  1.3906         0.624895   
     27. B(C  21,C  20)                  1.4247         0.550969   
     28. B(S  22,C  18)                  1.7011         0.537218   
     29. B(C  23,C  21)                  1.3637         0.687895   
     30. B(C  23,S  22)                  1.7102         0.518644   
     31. B(H  24,C  20)                  1.3438         0.141941   
     32. B(H  25,C  21)                  1.0804         0.373112   
     33. B(H  26,C  23)                  1.0795         0.374299   
     34. B(H  27,C   1)                  1.0802         0.373242   
     35. B(H  28,C   2)                  1.0794         0.374433   
     36. B(H  29,C   5)                  1.0810         0.372259   
     37. B(O  30,H  24)                  1.3143         0.134256 C 
     38. B(O  31,Ir  0)                  2.0701         0.106954   
     39. B(C  32,O  30)                  1.2463         0.935512   
     40. B(C  32,O  31)                  1.2645         0.875351   
     41. B(C  33,C  32)                  1.4989         0.418729   
     42. B(H  34,C  33)                  1.0878         0.363030   
     43. B(H  35,C  33)                  1.0913         0.358349   
     44. B(H  36,C  33)                  1.0861         0.365234   
     45. B(H  37,C   3)                  1.0790         0.374973   
     46. B(H  38,C   4)                  1.0802         0.373279   
     47. A(C   4,Ir  0,C  20)           91.2915         0.240628   
     48. A(N   6,Ir  0,O  31)           83.0147         0.257134   
     49. A(C   2,Ir  0,C   3)           64.3020         0.243275   
     50. A(C   1,Ir  0,C   3)           64.4974         0.245679   
     51. A(C   5,Ir  0,N   6)          141.5707         0.245744   
     52. A(C   5,Ir  0,O  31)           92.9824         0.249881   
     53. A(C   4,Ir  0,C   5)           63.7738         0.243277   
     54. A(C   1,Ir  0,O  31)          147.8348         0.253981   
     55. A(C   3,Ir  0,C  20)          103.9664         0.239162   
     56. A(C   1,Ir  0,C   5)           63.7900         0.242805   
     57. A(C   3,Ir  0,N   6)          165.0304         0.248673   
     58. A(C   3,Ir  0,C   4)           38.7901         0.246160   
     59. A(C   4,Ir  0,N   6)          126.8399         0.250233   
     60. A(C   2,Ir  0,N   6)          107.9821         0.247272   
     61. A(C   4,Ir  0,O  31)          150.1361         0.254488   
     62. A(C   1,Ir  0,C  20)          115.0093         0.240164   
     63. A(C   5,Ir  0,C  20)          141.0037         0.236407   
     64. A(C   2,Ir  0,C   5)           37.8958         0.240444   
     65. A(C   1,Ir  0,C   4)           38.1632         0.247209   
     66. A(C   2,Ir  0,O  31)          109.4163         0.251449   
     67. A(C  20,Ir  0,O  31)           97.0809         0.247118   
     68. A(C   3,Ir  0,O  31)          111.3991         0.252887   
     69. A(N   6,Ir  0,C  20)           77.2230         0.243052   
     70. A(C   1,Ir  0,C   2)           38.7264         0.244304   
     71. A(C   1,Ir  0,N   6)          101.2438         0.249739   
     72. A(C   2,Ir  0,C  20)          153.3614         0.237844   
     73. A(C   2,Ir  0,C   4)           64.3315         0.244781   
     74. A(C   3,Ir  0,C   5)           37.9986         0.241785   
     75. A(Ir  0,C   1,C   2)           71.3316         0.313149   
     76. A(C   4,C   1,H  27)          125.6110         0.350677   
     77. A(C   2,C   1,C   4)          108.1622         0.415083   
     78. A(Ir  0,C   1,H  27)          124.3630         0.268877   
     79. A(Ir  0,C   1,C   4)           70.7804         0.318451   
     80. A(C   2,C   1,H  27)          126.2194         0.344632   
     81. A(Ir  0,C   2,C   5)           71.4888         0.313654   
     82. A(C   1,C   2,C   5)          107.1208         0.413242   
     83. A(Ir  0,C   2,H  28)          127.0370         0.266245   
     84. A(C   5,C   2,H  28)          125.9528         0.349387   
     85. A(C   1,C   2,H  28)          126.7902         0.344816   
     86. A(Ir  0,C   2,C   1)           69.9420         0.309710   
     87. A(Ir  0,C   3,C   4)           70.1702         0.312050   
     88. A(Ir  0,C   3,H  37)          126.3005         0.267872   
     89. A(C   4,C   3,C   5)          107.0738         0.413702   
     90. A(C   5,C   3,H  37)          126.2154         0.349391   
     91. A(Ir  0,C   3,C   5)           71.8393         0.315572   
     92. A(C   4,C   3,H  37)          126.5875         0.345343   
     93. A(Ir  0,C   4,C   1)           71.0564         0.319156   
     94. A(C   3,C   4,H  38)          125.9768         0.345081   
     95. A(C   1,C   4,H  38)          125.6152         0.350683   
     96. A(Ir  0,C   4,C   3)           71.0397         0.314228   
     97. A(Ir  0,C   4,H  38)          123.4502         0.269434   
     98. A(C   1,C   4,C   3)          108.4070         0.415648   
     99. A(Ir  0,C   5,C   2)           70.6154         0.311485   
    100. A(Ir  0,C   5,H  29)          122.0568         0.264302   
    101. A(C   2,C   5,H  29)          125.2972         0.349044   
    102. A(C   3,C   5,H  29)          125.3524         0.348963   
    103. A(Ir  0,C   5,C   3)           70.1620         0.311415   
    104. A(C   2,C   5,C   3)          109.2108         0.418932   
    105. A(Ir  0,N   6,C  17)          116.5077         0.340932   
    106. A(C   7,N   6,C  17)          121.5756         0.420005   
    107. A(Ir  0,N   6,C   7)          121.9158         0.304225   
    108. A(C   8,C   7,H  13)          107.9921         0.325627   
    109. A(C  12,C   7,H  13)          108.8496         0.325190   
    110. A(N   6,C   7,C   8)          113.7695         0.369321   
    111. A(N   6,C   7,C  12)          109.4129         0.368803   
    112. A(C   8,C   7,C  12)          111.4101         0.366373   
    113. A(N   6,C   7,H  13)          105.1103         0.327700   
    114. A(C   7,C   8,H   9)          108.8446         0.326053   
    115. A(C   7,C   8,H  10)          112.9396         0.325671   
    116. A(H   9,C   8,H  10)          106.5693         0.290893   
    117. A(C   7,C   8,H  11)          111.9449         0.325789   
    118. A(H   9,C   8,H  11)          107.4784         0.290994   
    119. A(H  10,C   8,H  11)          108.7843         0.290669   
    120. A(C   7,C  12,H  14)          109.9813         0.325531   
    121. A(C   7,C  12,H  15)          111.0959         0.325238   
    122. A(H  14,C  12,H  15)          107.8031         0.290826   
    123. A(C   7,C  12,H  16)          112.1297         0.325625   
    124. A(H  14,C  12,H  16)          107.5063         0.291156   
    125. A(H  15,C  12,H  16)          108.1580         0.290906   
    126. A(N   6,C  17,C  18)          115.7015         0.442734   
    127. A(N   6,C  17,H  19)          122.0923         0.369669   
    128. A(C  18,C  17,H  19)          122.1851         0.345239   
    129. A(C  17,C  18,S  22)          127.7610         0.434855   
    130. A(C  20,C  18,S  22)          113.4232         0.447141   
    131. A(C  17,C  18,C  20)          118.7180         0.423416   
    132. A(C  18,C  20,C  21)          110.0037         0.425567   
    133. A(Ir  0,C  20,H  24)           81.3973         0.227513   
    134. A(C  18,C  20,H  24)          112.0905         0.303149   
    135. A(C  21,C  20,H  24)          108.7950         0.297132   
    136. A(Ir  0,C  20,C  18)          106.7925         0.312987   
    137. A(Ir  0,C  20,C  21)          133.7460         0.306694   
    138. A(C  20,C  21,C  23)          112.9807         0.432965   
    139. A(C  20,C  21,H  25)          124.1845         0.348024   
    140. A(C  23,C  21,H  25)          122.7296         0.361369   
    141. A(C  18,S  22,C  23)           91.0152         0.456452   
    142. A(C  21,C  23,S  22)          112.5650         0.452109   
    143. A(C  21,C  23,H  26)          127.6801         0.361565   
    144. A(S  22,C  23,H  26)          119.7416         0.362638   
    145. A(C  20,H  24,O  30)          174.5422         0.218247   
    146. A(H  24,O  30,C  32)          108.0298         0.316106   
    147. A(Ir  0,O  31,C  32)          125.3185         0.350667   
    148. A(O  30,C  32,O  31)          123.6282         0.491778   
    149. A(O  30,C  32,C  33)          118.7499         0.432692   
    150. A(O  31,C  32,C  33)          117.6112         0.427560   
    151. A(C  32,C  33,H  34)          110.5627         0.330919   
    152. A(C  32,C  33,H  35)          108.9047         0.330209   
    153. A(H  34,C  33,H  35)          107.0926         0.290987   
    154. A(C  32,C  33,H  36)          111.6241         0.331250   
    155. A(H  34,C  33,H  36)          110.1555         0.291859   
    156. A(H  35,C  33,H  36)          108.3600         0.291264   
    157. D(H  27,C   1,Ir  0,C  20)    -64.1713         0.001699   
    158. D(C   2,C   1,Ir  0,C   3)     80.0323         0.001699   
    159. D(C   2,C   1,Ir  0,O  31)    -10.0146         0.001699   
    160. D(H  27,C   1,Ir  0,C   4)   -120.5736         0.001699   
    161. D(H  27,C   1,Ir  0,O  31)    111.6221         0.001699   
    162. D(C   4,C   1,Ir  0,N   6)    137.4234         0.001699   
    163. D(C   4,C   1,Ir  0,C   5)    -80.1687         0.001699   
    164. D(C   4,C   1,Ir  0,C  20)     56.4024         0.001699   
    165. D(C   4,C   1,Ir  0,C   2)   -117.7896         0.001699   
    166. D(C   2,C   1,Ir  0,C   5)     37.6209         0.001699   
    167. D(C   2,C   1,Ir  0,C  20)    174.1920         0.001699   
    168. D(H  27,C   1,Ir  0,C   5)    159.2577         0.001699   
    169. D(C   2,C   1,Ir  0,N   6)   -104.7870         0.001699   
    170. D(H  27,C   1,Ir  0,C   3)   -158.3309         0.001699   
    171. D(H  27,C   1,Ir  0,C   2)    121.6367         0.001699   
    172. D(C   4,C   1,Ir  0,O  31)   -127.8042         0.001699   
    173. D(C   4,C   1,Ir  0,C   3)    -37.7573         0.001699   
    174. D(C   2,C   1,Ir  0,C   4)    117.7896         0.001699   
    175. D(H  27,C   1,Ir  0,N   6)     16.8497         0.001699   
    176. D(H  28,C   2,Ir  0,C   5)    121.5338         0.001674   
    177. D(H  28,C   2,C   1,C   4)   -176.6121         0.021426   
    178. D(C   5,C   2,C   1,H  27)    178.3754         0.021426   
    179. D(Ir  0,C   2,C   1,C   4)     61.5411         0.021426   
    180. D(C   5,C   2,Ir  0,O  31)    -68.7136         0.001674   
    181. D(H  28,C   2,Ir  0,C   1)   -121.5465         0.001674   
    182. D(C   1,C   2,Ir  0,C   3)    -80.5804         0.001674   
    183. D(H  28,C   2,Ir  0,O  31)     52.8203         0.001674   
    184. D(H  28,C   2,C   1,H  27)      2.4387         0.021426   
    185. D(C   1,C   2,Ir  0,C   5)   -116.9196         0.001674   
    186. D(C   5,C   2,Ir  0,C   3)     36.3392         0.001674   
    187. D(C   1,C   2,Ir  0,C  20)    -11.8024         0.001674   
    188. D(Ir  0,C   2,C   1,H  27)   -119.4081         0.021426   
    189. D(H  28,C   2,Ir  0,N   6)    -35.9669         0.001674   
    190. D(H  28,C   2,C   1,Ir  0)    121.8468         0.021426   
    191. D(C   5,C   2,Ir  0,C   1)    116.9196         0.001674   
    192. D(C   1,C   2,Ir  0,C   4)    -37.3361         0.001674   
    193. D(H  28,C   2,Ir  0,C  20)   -133.3490         0.001674   
    194. D(C   5,C   2,Ir  0,C  20)    105.1172         0.001674   
    195. D(C   1,C   2,Ir  0,N   6)     85.5796         0.001674   
    196. D(C   5,C   2,C   1,Ir  0)    -62.2165         0.021426   
    197. D(C   5,C   2,Ir  0,C   4)     79.5836         0.001674   
    198. D(H  28,C   2,Ir  0,C   3)    157.8731         0.001674   
    199. D(C   5,C   2,Ir  0,N   6)   -157.5007         0.001674   
    200. D(C   5,C   2,C   1,C   4)     -0.6754         0.021426   
    201. D(C   1,C   2,Ir  0,O  31)    174.3668         0.001674   
    202. D(H  28,C   2,Ir  0,C   4)   -158.8826         0.001674   
    203. D(C   4,C   3,Ir  0,C   2)     80.2937         0.001688   
    204. D(H  37,C   3,Ir  0,C   1)    158.5729         0.001688   
    205. D(C   5,C   3,Ir  0,C  20)    169.2689         0.001688   
    206. D(H  37,C   3,Ir  0,C   5)   -122.0441         0.001688   
    207. D(H  37,C   3,Ir  0,C   2)   -158.2864         0.001688   
    208. D(C   5,C   3,Ir  0,C   1)    -79.3830         0.001688   
    209. D(C   4,C   3,Ir  0,N   6)     18.5500         0.001688   
    210. D(C   4,C   3,Ir  0,C  20)    -74.1951         0.001688   
    211. D(H  37,C   3,Ir  0,C   4)    121.4199         0.001688   
    212. D(C   4,C   3,Ir  0,O  31)   -177.7215         0.001688   
    213. D(C   5,C   3,Ir  0,C   4)   -116.5360         0.001688   
    214. D(H  37,C   3,Ir  0,N   6)    139.9699         0.001688   
    215. D(C   4,C   3,Ir  0,C   1)     37.1530         0.001688   
    216. D(C   5,C   3,Ir  0,C   2)    -36.2423         0.001688   
    217. D(C   5,C   3,Ir  0,O  31)     65.7425         0.001688   
    218. D(C   4,C   3,Ir  0,C   5)    116.5360         0.001688   
    219. D(C   5,C   3,Ir  0,N   6)    -97.9860         0.001688   
    220. D(H  37,C   3,Ir  0,C  20)     47.2248         0.001688   
    221. D(H  37,C   3,Ir  0,O  31)    -56.3016         0.001688   
    222. D(C   1,C   4,Ir  0,C  20)   -130.9713         0.001704   
    223. D(C   1,C   4,Ir  0,C   2)     37.8826         0.001704   
    224. D(C   3,C   4,Ir  0,C   2)    -80.2112         0.001704   
    225. D(C   1,C   4,Ir  0,C   5)     80.2149         0.001704   
    226. D(C   1,C   4,Ir  0,N   6)    -56.0127         0.001704   
    227. D(C   3,C   4,Ir  0,C   5)    -37.8788         0.001704   
    228. D(C   3,C   4,Ir  0,C   1)   -118.0938         0.001704   
    229. D(C   1,C   4,Ir  0,O  31)    122.3571         0.001704   
    230. D(C   1,C   4,Ir  0,C   3)    118.0938         0.001704   
    231. D(H  38,C   4,C   1,Ir  0)   -118.0995         0.026586   
    232. D(C   3,C   4,Ir  0,C  20)    110.9349         0.001704   
    233. D(C   3,C   4,Ir  0,O  31)      4.2633         0.001704   
    234. D(Ir  0,C   4,C   1,C   2)    -61.8927         0.026586   
    235. D(H  38,C   4,Ir  0,C   1)    120.7411         0.001704   
    236. D(H  38,C   4,Ir  0,C   3)   -121.1651         0.001704   
    237. D(H  38,C   4,Ir  0,C   5)   -159.0440         0.001704   
    238. D(H  38,C   4,Ir  0,N   6)     64.7284         0.001704   
    239. D(H  38,C   4,Ir  0,C  20)    -10.2302         0.001704   
    240. D(H  38,C   4,Ir  0,C   2)    158.6237         0.001704   
    241. D(Ir  0,C   4,C   1,H  27)    119.0492         0.026586   
    242. D(H  38,C   4,Ir  0,O  31)   -116.9018         0.001704   
    243. D(C   3,C   4,C   1,Ir  0)     61.5583         0.026586   
    244. D(C   3,C   4,C   1,C   2)     -0.3344         0.026586   
    245. D(H  38,C   4,C   1,C   2)   -179.9922         0.026586   
    246. D(C   3,C   4,Ir  0,N   6)   -174.1065         0.001704   
    247. D(C   3,C   4,C   1,H  27)   -179.3925         0.026586   
    248. D(Ir  0,C   4,C   3,H  37)   -121.0705         0.021768   
    249. D(Ir  0,C   4,C   3,C   5)     62.7829         0.021768   
    250. D(H  38,C   4,C   3,C   5)   -179.1297         0.021768   
    251. D(C   1,C   4,C   3,C   5)      1.2141         0.021768   
    252. D(C   1,C   4,C   3,H  37)    177.3606         0.021768   
    253. D(H  38,C   4,C   3,Ir  0)    118.0873         0.021768   
    254. D(H  38,C   4,C   1,H  27)      0.9498         0.026586   
    255. D(H  38,C   4,C   3,H  37)     -2.9832         0.021768   
    256. D(C   1,C   4,C   3,Ir  0)    -61.5688         0.021768   
    257. D(H  29,C   5,C   2,H  28)     -6.6867         0.025221   
    258. D(C   2,C   5,Ir  0,C   4)    -81.1852         0.001660   
    259. D(C   2,C   5,Ir  0,C   3)   -119.8521         0.001660   
    260. D(C   3,C   5,C   2,C   1)      1.4473         0.025221   
    261. D(C   2,C   5,Ir  0,C  20)   -136.5396         0.001660   
    262. D(C   2,C   5,Ir  0,O  31)    118.3604         0.001660   
    263. D(H  29,C   5,Ir  0,O  31)     -1.7982         0.001660   
    264. D(C   3,C   5,Ir  0,C   2)    119.8521         0.001660   
    265. D(C   3,C   5,Ir  0,C   4)     38.6669         0.001660   
    266. D(C   3,C   5,Ir  0,N   6)    155.6975         0.001660   
    267. D(C   3,C   5,Ir  0,C  20)    -16.6875         0.001660   
    268. D(C   3,C   5,Ir  0,O  31)   -121.7875         0.001660   
    269. D(H  29,C   5,Ir  0,C   1)   -158.6019         0.001660   
    270. D(H  29,C   5,Ir  0,C   2)   -120.1586         0.001660   
    271. D(H  29,C   5,Ir  0,C   3)    119.9893         0.001660   
    272. D(H  29,C   5,Ir  0,C   4)    158.6561         0.001660   
    273. D(H  29,C   5,Ir  0,N   6)    -84.3132         0.001660   
    274. D(C   3,C   5,Ir  0,C   1)     81.4088         0.001660   
    275. D(H  29,C   5,Ir  0,C  20)    103.3018         0.001660   
    276. D(Ir  0,C   5,C   2,C   1)     61.2107         0.025221   
    277. D(Ir  0,C   5,C   2,H  28)   -122.8090         0.025221   
    278. D(C   2,C   5,Ir  0,N   6)     35.8454         0.001660   
    279. D(C   3,C   5,C   2,Ir  0)    -59.7634         0.025221   
    280. D(H  29,C   5,C   2,Ir  0)    116.1223         0.025221   
    281. D(C   3,C   5,C   2,H  28)    177.4276         0.025221   
    282. D(C   2,C   5,Ir  0,C   1)    -38.4433         0.001660   
    283. D(H  29,C   5,C   2,C   1)    177.3330         0.025221   
    284. D(H  29,C   5,C   3,H  37)      6.3028         0.025148   
    285. D(Ir  0,C   5,C   3,H  37)    122.1436         0.025148   
    286. D(C   2,C   5,C   3,Ir  0)     60.0421         0.025148   
    287. D(C   2,C   5,C   3,C   4)     -1.6493         0.025148   
    288. D(C   2,C   5,C   3,H  37)   -177.8143         0.025148   
    289. D(H  29,C   5,C   3,Ir  0)   -115.8408         0.025148   
    290. D(Ir  0,C   5,C   3,C   4)    -61.6914         0.025148   
    291. D(H  29,C   5,C   3,C   4)   -177.5322         0.025148   
    292. D(C   7,N   6,Ir  0,C   1)     79.7223         0.001769   
    293. D(C   7,N   6,Ir  0,C   2)     40.2320         0.001769   
    294. D(C   7,N   6,Ir  0,C   3)     96.7936         0.001769   
    295. D(C   7,N   6,Ir  0,C   4)    111.2136         0.001769   
    296. D(C   7,N   6,Ir  0,C   5)     18.0120         0.001769   
    297. D(C   7,N   6,Ir  0,C  20)   -166.8931         0.001769   
    298. D(C   7,N   6,Ir  0,O  31)    -67.9687         0.001769   
    299. D(C  17,N   6,Ir  0,C   1)   -100.6024         0.001769   
    300. D(C  17,N   6,Ir  0,C   2)   -140.0927         0.001769   
    301. D(C  17,N   6,Ir  0,C   3)    -83.5312         0.001769   
    302. D(C  17,N   6,Ir  0,C   4)    -69.1112         0.001769   
    303. D(C  17,N   6,Ir  0,C   5)   -162.3127         0.001769   
    304. D(C  17,N   6,Ir  0,C  20)     12.7822         0.001769   
    305. D(C  17,N   6,Ir  0,O  31)    111.7065         0.001769   
    306. D(C   8,C   7,N   6,Ir  0)    148.8162         0.014635   
    307. D(C   8,C   7,N   6,C  17)    -30.8427         0.014635   
    308. D(C  12,C   7,N   6,Ir  0)    -85.8649         0.014635   
    309. D(C  12,C   7,N   6,C  17)     94.4762         0.014635   
    310. D(H  13,C   7,N   6,Ir  0)     30.8778         0.014635   
    311. D(H  13,C   7,N   6,C  17)   -148.7811         0.014635   
    312. D(H   9,C   8,C   7,N   6)   -170.1396         0.011757   
    313. D(H   9,C   8,C   7,C  12)     65.6115         0.011757   
    314. D(H   9,C   8,C   7,H  13)    -53.8750         0.011757   
    315. D(H  10,C   8,C   7,N   6)     71.7189         0.011757   
    316. D(H  10,C   8,C   7,C  12)    -52.5300         0.011757   
    317. D(H  10,C   8,C   7,H  13)   -172.0165         0.011757   
    318. D(H  11,C   8,C   7,N   6)    -51.4765         0.011757   
    319. D(H  11,C   8,C   7,C  12)   -175.7254         0.011757   
    320. D(H  11,C   8,C   7,H  13)     64.7881         0.011757   
    321. D(H  14,C  12,C   7,N   6)    175.2978         0.011576   
    322. D(H  14,C  12,C   7,C   8)    -58.0318         0.011576   
    323. D(H  14,C  12,C   7,H  13)     60.9443         0.011576   
    324. D(H  15,C  12,C   7,N   6)    -65.4291         0.011576   
    325. D(H  15,C  12,C   7,C   8)     61.2413         0.011576   
    326. D(H  15,C  12,C   7,H  13)   -179.7826         0.011576   
    327. D(H  16,C  12,C   7,N   6)     55.7338         0.011576   
    328. D(H  16,C  12,C   7,C   8)   -177.5958         0.011576   
    329. D(H  16,C  12,C   7,H  13)    -58.6198         0.011576   
    330. D(C  18,C  17,N   6,Ir  0)     -3.6164         0.059381   
    331. D(C  18,C  17,N   6,C   7)    176.0601         0.059381   
    332. D(H  19,C  17,N   6,Ir  0)    178.0237         0.059381   
    333. D(H  19,C  17,N   6,C   7)     -2.2999         0.059381   
    334. D(C  20,C  18,C  17,N   6)    -15.1096         0.019590   
    335. D(C  20,C  18,C  17,H  19)    163.2487         0.019590   
    336. D(S  22,C  18,C  17,N   6)    161.0390         0.019590   
    337. D(S  22,C  18,C  17,H  19)    -20.6027         0.019590   
    338. D(C  18,C  20,Ir  0,C   1)     78.0749         0.001637   
    339. D(H  24,C  20,C  18,C  17)    -63.3101         0.029393   
    340. D(C  18,C  20,Ir  0,C   3)    146.1403         0.001637   
    341. D(C  18,C  20,Ir  0,C   4)    109.0597         0.001637   
    342. D(Ir  0,C  20,C  18,C  17)     24.0451         0.029393   
    343. D(C  18,C  20,Ir  0,N   6)    -18.5188         0.001637   
    344. D(C  18,C  20,Ir  0,O  31)    -99.6699         0.001637   
    345. D(H  24,C  20,Ir  0,C   4)   -140.3528         0.001637   
    346. D(C  21,C  20,Ir  0,C   2)    -55.3867         0.001637   
    347. D(C  21,C  20,Ir  0,C   3)      4.5615         0.001637   
    348. D(C  21,C  20,Ir  0,C   4)    -32.5191         0.001637   
    349. D(C  21,C  20,Ir  0,C   5)     15.0576         0.001637   
    350. D(C  21,C  20,Ir  0,N   6)   -160.0976         0.001637   
    351. D(C  21,C  20,Ir  0,O  31)    118.7513         0.001637   
    352. D(H  24,C  20,Ir  0,C   1)   -171.3376         0.001637   
    353. D(H  24,C  20,Ir  0,C   2)   -163.2204         0.001637   
    354. D(C  21,C  20,Ir  0,C   1)    -63.5039         0.001637   
    355. D(H  24,C  20,Ir  0,C   3)   -103.2722         0.001637   
    356. D(H  24,C  20,Ir  0,C   5)    -92.7761         0.001637   
    357. D(H  24,C  20,Ir  0,N   6)     92.0687         0.001637   
    358. D(C  18,C  20,Ir  0,C   5)    156.6364         0.001637   
    359. D(H  24,C  20,Ir  0,O  31)     10.9176         0.001637   
    360. D(Ir  0,C  20,C  18,S  22)   -152.6374         0.029393   
    361. D(C  21,C  20,C  18,C  17)    175.5061         0.029393   
    362. D(C  18,C  20,Ir  0,C   2)     86.1921         0.001637   
    363. D(C  21,C  20,C  18,S  22)     -1.1764         0.029393   
    364. D(H  24,C  20,C  18,S  22)    120.0074         0.029393   
    365. D(C  23,C  21,C  20,Ir  0)    141.7963         0.022539   
    366. D(C  23,C  21,C  20,C  18)      1.0781         0.022539   
    367. D(C  23,C  21,C  20,H  24)   -122.0596         0.022539   
    368. D(H  25,C  21,C  20,Ir  0)    -41.8525         0.022539   
    369. D(H  25,C  21,C  20,C  18)    177.4293         0.022539   
    370. D(H  25,C  21,C  20,H  24)     54.2916         0.022539   
    371. D(C  23,S  22,C  18,C  17)   -175.5502         0.005809   
    372. D(C  23,S  22,C  18,C  20)      0.7691         0.005809   
    373. D(S  22,C  23,C  21,C  20)     -0.5278         0.033231   
    374. D(S  22,C  23,C  21,H  25)   -176.9397         0.033231   
    375. D(H  26,C  23,C  21,C  20)    178.1253         0.033231   
    376. D(H  26,C  23,C  21,H  25)      1.7134         0.033231   
    377. D(C  21,C  23,S  22,C  18)     -0.1270         0.005502   
    378. D(H  26,C  23,S  22,C  18)   -178.8994         0.005502   
    379. D(O  30,H  24,C  20,Ir  0)   -127.7125         0.014779   
    380. D(O  30,H  24,C  20,C  18)    -23.0016         0.014779   
    381. D(O  30,H  24,C  20,C  21)     98.8759         0.014779   
    382. D(C  32,O  30,H  24,C  20)    118.3757         0.012854   
    383. D(C  32,O  31,Ir  0,C   1)    170.8489         0.001820   
    384. D(C  32,O  31,Ir  0,C   2)    164.2250         0.001820   
    385. D(C  32,O  31,Ir  0,C   3)     95.0609         0.001820   
    386. D(C  32,O  31,Ir  0,C   4)     92.1937         0.001820   
    387. D(C  32,O  31,Ir  0,C   5)    129.2584         0.001820   
    388. D(C  32,O  31,Ir  0,N   6)    -89.1206         0.001820   
    389. D(C  32,O  31,Ir  0,C  20)    -12.9920         0.001820   
    390. D(O  31,C  32,O  30,H  24)      2.0308         0.070286   
    391. D(C  33,C  32,O  30,H  24)   -179.1880         0.070286   
    392. D(O  30,C  32,O  31,Ir  0)      5.1721         0.060414   
    393. D(C  33,C  32,O  31,Ir  0)   -173.6220         0.060414   
    394. D(H  34,C  33,C  32,O  30)     40.0096         0.012967   
    395. D(H  34,C  33,C  32,O  31)   -141.1357         0.012967   
    396. D(H  35,C  33,C  32,O  30)    -77.3960         0.012967   
    397. D(H  35,C  33,C  32,O  31)    101.4588         0.012967   
    398. D(H  36,C  33,C  32,O  30)    163.0060         0.012967   
    399. D(H  36,C  33,C  32,O  31)    -18.1393         0.012967   
    -----------------------------------------------------------------

Number of atoms                         .... 39
Number of degrees of freedom            .... 399

         *************************************************************
         *                GEOMETRY OPTIMIZATION CYCLE   1            *
         *************************************************************
---------------------------------
CARTESIAN COORDINATES (ANGSTROEM)
---------------------------------
  Ir     0.606509   -0.730229    0.443656
  C      0.127517   -2.837253    0.350800
  C     -0.090074   -2.373860    1.697162
  C      2.146702   -2.072078    1.178081
  C      1.493522   -2.656589    0.038205
  C      1.163745   -1.928104    2.193707
  N     -1.066518    0.112859   -0.509906
  C     -2.346886    0.304387    0.190392
  C     -3.140061    1.507910   -0.299327
  H     -3.974772    1.678579    0.378745
  H     -3.570053    1.358910   -1.290678
  H     -2.536867    2.415971   -0.311163
  C     -3.168743   -0.976676    0.103148
  H     -2.077357    0.479963    1.232930
  H     -4.081689   -0.873810    0.688402
  H     -3.455515   -1.189735   -0.927477
  H     -2.627210   -1.838540    0.489765
  C     -0.913597    0.457524   -1.729657
  C      0.401543    0.296165   -2.257863
  H     -1.726156    0.872551   -2.317968
  C      1.456980    0.098840   -1.374158
  C      2.660107   -0.142402   -2.098043
  S      0.865769    0.222965   -3.892775
  C      2.486288   -0.097197   -3.449831
  H      1.642980    1.155574   -0.565065
  H      3.627035   -0.285630   -1.637905
  H      3.237227   -0.217005   -4.216050
  H     -0.616603   -3.265045   -0.305099
  H     -1.012701   -2.419872    2.255468
  H      1.328405   -1.482899    3.164872
  O      1.767123    2.258177    0.139350
  O      0.558945    1.031463    1.529695
  C      1.149410    2.103132    1.210592
  C      1.119153    3.232760    2.195407
  H      0.998970    4.184179    1.681926
  H      2.075287    3.270034    2.720204
  H      0.330301    3.101925    2.930468
  H      3.197892   -1.847546    1.271874
  H      1.962762   -2.910208   -0.901142

----------------------------
CARTESIAN COORDINATES (A.U.)
----------------------------
  NO LB      ZA    FRAG     MASS         X           Y           Z
   0 Ir   17.0000*   0   192.220    1.146137   -1.379932    0.838388
   1 C     6.0000    0    12.011    0.240972   -5.361630    0.662916
   2 C     6.0000    0    12.011   -0.170216   -4.485946    3.207171
   3 C     6.0000    0    12.011    4.056679   -3.915659    2.226250
   4 C     6.0000    0    12.011    2.822347   -5.020227    0.072197
   5 C     6.0000    0    12.011    2.199159   -3.643588    4.145505
   6 N     7.0000    0    14.007   -2.015428    0.213273   -0.963583
   7 C     6.0000    0    12.011   -4.434972    0.575208    0.359788
   8 C     6.0000    0    12.011   -5.933856    2.849537   -0.565645
   9 H     1.0000    0     1.008   -7.511230    3.172055    0.715725
  10 H     1.0000    0     1.008   -6.746422    2.567968   -2.439027
  11 H     1.0000    0     1.008   -4.793983    4.565523   -0.588013
  12 C     6.0000    0    12.011   -5.988057   -1.845651    0.194922
  13 H     1.0000    0     1.008   -3.925635    0.906998    2.329899
  14 H     1.0000    0     1.008   -7.713275   -1.651261    1.300891
  15 H     1.0000    0     1.008   -6.529976   -2.248274   -1.752677
  16 H     1.0000    0     1.008   -4.964707   -3.474337    0.925521
  17 C     6.0000    0    12.011   -1.726448    0.864596   -3.268578
  18 C     6.0000    0    12.011    0.758806    0.559670   -4.266742
  19 H     1.0000    0     1.008   -3.261963    1.648883   -4.380324
  20 C     6.0000    0    12.011    2.753293    0.186780   -2.596783
  21 C     6.0000    0    12.011    5.026873   -0.269100   -3.964727
  22 S    16.0000    0    32.060    1.636067    0.421344   -7.356280
  23 C     6.0000    0    12.011    4.698404   -0.183676   -6.519235
  24 H     1.0000    0     1.008    3.104781    2.183718   -1.067819
  25 H     1.0000    0     1.008    6.854103   -0.539762   -3.095192
  26 H     1.0000    0     1.008    6.117472   -0.410080   -7.967180
  27 H     1.0000    0     1.008   -1.165211   -6.170040   -0.576554
  28 H     1.0000    0     1.008   -1.913727   -4.572896    4.262217
  29 H     1.0000    0     1.008    2.510321   -2.802273    5.980741
  30 O     8.0000    0    15.999    3.339379    4.267336    0.263334
  31 O     8.0000    0    15.999    1.056254    1.949182    2.890705
  32 C     6.0000    0    12.011    2.172070    3.974344    2.287687
  33 C     6.0000    0    12.011    2.114892    6.109032    4.148718
  34 H     1.0000    0     1.008    1.887779    7.906952    3.178379
  35 H     1.0000    0     1.008    3.921725    6.179469    5.140440
  36 H     1.0000    0     1.008    0.624178    5.861789    5.537782
  37 H     1.0000    0     1.008    6.043140   -3.491357    2.403493
  38 H     1.0000    0     1.008    3.709083   -5.499496   -1.702911
* core charge reduced due to ECP

--------------------------------
INTERNAL COORDINATES (ANGSTROEM)
--------------------------------
 Ir     0   0   0     0.000000000000     0.00000000     0.00000000
 C      1   0   0     2.163188791113     0.00000000     0.00000000
 C      2   1   0     1.440180232436    71.34228045     0.00000000
 C      1   2   3     2.171187937145    64.45514132    79.95597698
 C      2   1   3     1.412068093379    70.79208183   242.25526561
 C      3   2   1     1.418878362872   107.14658647   297.75497951
 N      1   2   3     2.101787443336   101.30689027   255.10369544
 C      7   1   2     1.471875280472   121.85116699    79.64162122
 C      8   7   1     1.522299406646   113.76948039   148.80620146
 H      9   8   7     1.088869759847   108.84466988   189.86042510
 H      9   8   7     1.090808346588   112.93935589    71.71903782
 H      9   8   7     1.090208695124   111.94496341   308.52338884
 C      8   7   1     1.524525786631   109.41283296   274.12517676
 H      8   7   1     1.091031740084   105.11031242    30.86811544
 H     13   8   7     1.089293683519   109.98121708   175.29782636
 H     13   8   7     1.090785204156   111.09620838   294.57096353
 H     13   8   7     1.088819291842   112.12983237    55.73381606
 C      7   1   2     1.282481524451   116.63890457   259.29757307
 C     18   7   1     1.431940512814   116.40066908   356.16818922
 H     18   7   1     1.085629023974   121.74464187   177.95314995
 C     19  18   7     1.389957228504   118.70705784   344.93100331
 C     21  19  18     1.424229927177   110.15262738   175.47952495
 S     19  18   7     1.701109899548   127.85867953   161.13409337
 C     22  21  19     1.363810549201   112.88917723     1.16821172
 H     21  19  18     1.343420699131   112.07340153   297.15818358
 H     22  21  19     1.080337125581   124.22617757   177.52977375
 H     24  22  21     1.079472901989   127.67731412   178.11531571
 H      2   1   3     1.080242741326   124.34684463   121.66124629
 H      3   2   1     1.079375350548   126.79090940   121.82913603
 H      6   3   2     1.080960535134   125.28412072   177.34107073
 O     25  21  19     1.328571403432   174.73534252   336.58245240
 O      1   2   3     2.070458333238   147.89461249   349.99742893
 C     31  25  21     1.250117322803   108.23607237   118.06080733
 C     33  31  25     1.498939293622   118.52094938   180.91316600
 H     34  33  31     1.087794211027   110.56270578    39.99087407
 H     34  33  31     1.091326752889   108.90460727   282.58523745
 H     34  33  31     1.086146342403   111.62409796   162.98709087
 H      4   1   2     1.078983220775   126.28322143   158.58943193
 H      5   2   1     1.080215246109   125.61012857   241.91192909

---------------------------
INTERNAL COORDINATES (A.U.)
---------------------------
 Ir     0   0   0     0.000000000000     0.00000000     0.00000000
 C      1   0   0     4.087834391171     0.00000000     0.00000000
 C      2   1   0     2.721546222791    71.34228045     0.00000000
 C      1   2   3     4.102950586478    64.45514132    79.95597698
 C      2   1   3     2.668421978936    70.79208183   242.25526561
 C      3   2   1     2.681291523174   107.14658647   297.75497951
 N      1   2   3     3.971802659619   101.30689027   255.10369544
 C      7   1   2     2.781441183382   121.85116699    79.64162122
 C      8   7   1     2.876728972393   113.76948039   148.80620146
 H      9   8   7     2.057665641619   108.84466988   189.86042510
 H      9   8   7     2.061329039647   112.93935589    71.71903782
 H      9   8   7     2.060195862604   111.94496341   308.52338884
 C      8   7   1     2.880936220834   109.41283296   274.12517676
 H      8   7   1     2.061751192174   105.11031242    30.86811544
 H     13   8   7     2.058466741260   109.98121708   175.29782636
 H     13   8   7     2.061285306788   111.09620838   294.57096353
 H     13   8   7     2.057570270911   112.12983237    55.73381606
 C      7   1   2     2.423538853025   116.63890457   259.29757307
 C     18   7   1     2.705975409285   116.40066908   356.16818922
 H     18   7   1     2.051541538346   121.74464187   177.95314995
 C     19  18   7     2.626638499738   118.70705784   344.93100331
 C     21  19  18     2.691404514098   110.15262738   175.47952495
 S     19  18   7     3.214631833848   127.85867953   161.13409337
 C     22  21  19     2.577228436543   112.88917723     1.16821172
 H     21  19  18     2.538697203998   112.07340153   297.15818358
 H     22  21  19     2.041541299657   124.22617757   177.52977375
 H     24  22  21     2.039908153749   127.67731412   178.11531571
 H      2   1   3     2.041362939263   124.34684463   121.66124629
 H      3   2   1     2.039723808240   126.79090940   121.82913603
 H      6   3   2     2.042719372981   125.28412072   177.34107073
 O     25  21  19     2.510636101845   174.73534252   336.58245240
 O      1   2   3     3.912599221515   147.89461249   349.99742893
 C     31  25  21     2.362379375369   108.23607237   118.06080733
 C     33  31  25     2.832584756318   118.52094938   180.91316600
 H     34  33  31     2.055633148905   110.56270578    39.99087407
 H     34  33  31     2.062308685582   108.90460727   282.58523745
 H     34  33  31     2.052519128502   111.62409796   162.98709087
 H      4   1   2     2.038982790361   126.28322143   158.58943193
 H      5   2   1     2.041310980832   125.61012857   241.91192909

---------------------
BASIS SET INFORMATION
---------------------
There are 6 groups of distinct atoms

 Group   1 Type Ir  : 7s6p5d1f contracted to 6s3p2d1f pattern {211111/411/41/1}
 Group   2 Type C   : 8s4p1d contracted to 4s2p1d pattern {5111/31/1}
 Group   3 Type N   : 8s4p1d contracted to 4s2p1d pattern {5111/31/1}
 Group   4 Type H   : 4s contracted to 2s pattern {31}
 Group   5 Type S   : 10s7p1d contracted to 4s3p1d pattern {5311/511/1}
 Group   6 Type O   : 8s4p1d contracted to 4s2p1d pattern {5111/31/1}

Atom   0Ir   basis set group =>   1
Atom   1C    basis set group =>   2
Atom   2C    basis set group =>   2
Atom   3C    basis set group =>   2
Atom   4C    basis set group =>   2
Atom   5C    basis set group =>   2
Atom   6N    basis set group =>   3
Atom   7C    basis set group =>   2
Atom   8C    basis set group =>   2
Atom   9H    basis set group =>   4
Atom  10H    basis set group =>   4
Atom  11H    basis set group =>   4
Atom  12C    basis set group =>   2
Atom  13H    basis set group =>   4
Atom  14H    basis set group =>   4
Atom  15H    basis set group =>   4
Atom  16H    basis set group =>   4
Atom  17C    basis set group =>   2
Atom  18C    basis set group =>   2
Atom  19H    basis set group =>   4
Atom  20C    basis set group =>   2
Atom  21C    basis set group =>   2
Atom  22S    basis set group =>   5
Atom  23C    basis set group =>   2
Atom  24H    basis set group =>   4
Atom  25H    basis set group =>   4
Atom  26H    basis set group =>   4
Atom  27H    basis set group =>   4
Atom  28H    basis set group =>   4
Atom  29H    basis set group =>   4
Atom  30O    basis set group =>   6
Atom  31O    basis set group =>   6
Atom  32C    basis set group =>   2
Atom  33C    basis set group =>   2
Atom  34H    basis set group =>   4
Atom  35H    basis set group =>   4
Atom  36H    basis set group =>   4
Atom  37H    basis set group =>   4
Atom  38H    basis set group =>   4
---------------------------------
AUXILIARY/J BASIS SET INFORMATION
---------------------------------
There are 6 groups of distinct atoms

 Group   1 Type Ir  : 11s5p5d3f3g contracted to 8s5p5d2f3g pattern {41111111/11111/11111/21/111}
 Group   2 Type C   : 12s5p4d2f1g contracted to 6s4p3d1f1g pattern {711111/2111/211/2/1}
 Group   3 Type N   : 12s5p4d2f1g contracted to 6s4p3d1f1g pattern {711111/2111/211/2/1}
 Group   4 Type H   : 5s2p1d contracted to 3s1p1d pattern {311/2/1}
 Group   5 Type S   : 14s5p5d2f1g contracted to 8s4p3d1f1g pattern {71111111/2111/311/2/1}
 Group   6 Type O   : 12s5p4d2f1g contracted to 6s4p3d1f1g pattern {711111/2111/211/2/1}

Atom   0Ir   basis set group =>   1
Atom   1C    basis set group =>   2
Atom   2C    basis set group =>   2
Atom   3C    basis set group =>   2
Atom   4C    basis set group =>   2
Atom   5C    basis set group =>   2
Atom   6N    basis set group =>   3
Atom   7C    basis set group =>   2
Atom   8C    basis set group =>   2
Atom   9H    basis set group =>   4
Atom  10H    basis set group =>   4
Atom  11H    basis set group =>   4
Atom  12C    basis set group =>   2
Atom  13H    basis set group =>   4
Atom  14H    basis set group =>   4
Atom  15H    basis set group =>   4
Atom  16H    basis set group =>   4
Atom  17C    basis set group =>   2
Atom  18C    basis set group =>   2
Atom  19H    basis set group =>   4
Atom  20C    basis set group =>   2
Atom  21C    basis set group =>   2
Atom  22S    basis set group =>   5
Atom  23C    basis set group =>   2
Atom  24H    basis set group =>   4
Atom  25H    basis set group =>   4
Atom  26H    basis set group =>   4
Atom  27H    basis set group =>   4
Atom  28H    basis set group =>   4
Atom  29H    basis set group =>   4
Atom  30O    basis set group =>   6
Atom  31O    basis set group =>   6
Atom  32C    basis set group =>   2
Atom  33C    basis set group =>   2
Atom  34H    basis set group =>   4
Atom  35H    basis set group =>   4
Atom  36H    basis set group =>   4
Atom  37H    basis set group =>   4
Atom  38H    basis set group =>   4
-------------------------
ECP PARAMETER INFORMATION
-------------------------

 Group 1, Type Ir ECP Def2-ECP (replacing 60 core electrons, lmax=3)

Atom   0Ir   ECP group =>   1

------------------------------------------------------------------------------
                           ORCA GTO INTEGRAL CALCULATION
                           -- RI-GTO INTEGRALS CHOSEN --
------------------------------------------------------------------------------
------------------------------------------------------------------------------
                   ___                                                        
                  /   \      - P O W E R E D   B Y -                         
                 /     \                                                     
                 |  |  |   _    _      __       _____    __    __             
                 |  |  |  | |  | |    /  \     |  _  \  |  |  /  |          
                  \  \/   | |  | |   /    \    | | | |  |  | /  /          
                 / \  \   | |__| |  /  /\  \   | |_| |  |  |/  /          
                |  |  |   |  __  | /  /__\  \  |    /   |      \           
                |  |  |   | |  | | |   __   |  |    \   |  |\   \          
                \     /   | |  | | |  |  |  |  | |\  \  |  | \   \       
                 \___/    |_|  |_| |__|  |__|  |_| \__\ |__|  \__/        
                                                                              
                      - O R C A' S   B I G   F R I E N D -                    
                                      &                                       
                       - I N T E G R A L  F E E D E R -                       
                                                                              
 v1 FN, 2020, v2 2021                                                         
------------------------------------------------------------------------------


Reading SHARK input file reaction4-IEIP_ts_guess_scan_10-13_orca.SHARKINP.tmp ... ok
----------------------
SHARK INTEGRAL PACKAGE
----------------------

Number of atoms                             ...     39
Number of basis functions                   ...    358
Number of shells                            ...    184
Maximum angular momentum                    ...      3
Integral batch strategy                     ... SHARK/LIBINT Hybrid
RI-J (if used) integral strategy            ... SPLIT-RIJ (Revised 2003 algorithm where possible)
Printlevel                                  ...      1
Contraction scheme used                     ... SEGMENTED contraction
Coulomb Range Separation                    ... NOT USED
Exchange Range Separation                   ... NOT USED
Finite Nucleus Model                        ... NOT USED
Auxiliary Coulomb fitting basis             ... AVAILABLE
   # of basis functions in Aux-J            ...   1231
   # of shells in Aux-J                     ...    405
   Maximum angular momentum in Aux-J        ...      4
Auxiliary J/K fitting basis                 ... NOT available
Auxiliary Correlation fitting basis         ... NOT available
Auxiliary 'external' fitting basis          ... NOT available
Integral threshold                          ...     2.500000e-11
Primitive cut-off                           ...     2.500000e-12
Primitive pair pre-selection threshold      ...     2.500000e-12

Calculating pre-screening integrals         ... done (  0.1 sec) Dimension = 184
Organizing shell pair data                  ... done (  0.1 sec)
Shell pair information
Total number of shell pairs                 ...     17020
Shell pairs after pre-screening             ...     12963
Total number of primitive shell pairs       ...     60705
Primitive shell pairs kept                  ...     29153
          la=0 lb=0:   4967 shell pairs
          la=1 lb=0:   4260 shell pairs
          la=1 lb=1:    859 shell pairs
          la=2 lb=0:   1745 shell pairs
          la=2 lb=1:    783 shell pairs
          la=2 lb=2:    175 shell pairs
          la=3 lb=0:    111 shell pairs
          la=3 lb=1:     41 shell pairs
          la=3 lb=2:     21 shell pairs
          la=3 lb=3:      1 shell pairs

Calculating one electron integrals          ... done (  0.1 sec)
Calculating ECP integrals                   ... done (  0.8 sec)
Calculating RI/J V-Matrix + Cholesky decomp.... done (  0.1 sec)
Calculating Nuclear repulsion               ... done (  0.0 sec) ENN=   2033.171720529288 Eh

SHARK setup successfully completed in   1.4 seconds

Maximum memory used throughout the entire GTOINT-calculation: 90.5 MB
-------------------------------------------------------------------------------
                                 ORCA SCF
-------------------------------------------------------------------------------

------------
SCF SETTINGS
------------
Hamiltonian:
 Density Functional     Method          .... DFT(GTOs)
 Exchange Functional    Exchange        .... PBE
   PBE kappa parameter   XKappa         ....  1.024500
   PBE mue parameter    XMuePBE         ....  0.123457
 Correlation Functional Correlation     .... PBE
   PBE beta parameter  CBetaPBE         ....  0.030000
 LDA part of GGA corr.  LDAOpt          .... PW91-LDA
 Gradients option       PostSCFGGA      .... off
 Hybrid DFT is turned on
   Fraction HF Exchange ScalHFX         ....  0.420000
   Scaling of DF-GGA-X  ScalDFX         ....  0.580000
   Scaling of DF-GGA-C  ScalDFC         ....  1.000000
   Scaling of DF-LDA-C  ScalLDAC        ....  1.000000
   Perturbative correction              ....  0.000000
   Density functional embedding theory  .... OFF
 RI-approximation to the Coulomb term is turned on
   Number of AuxJ basis functions       .... 1231
   RIJ-ON(X) (HFX calculated with O(N)) .... on
   Number of AuxJ basis functions       .... 1231
   RIJ-COSX (HFX calculated with COS-X)).... on


General Settings:
 Integral files         IntName         .... reaction4-IEIP_ts_guess_scan_10-13_orca
 Hartree-Fock type      HFTyp           .... RHF
 Total Charge           Charge          ....    1
 Multiplicity           Mult            ....    1
 Number of Electrons    NEL             ....  164
 Basis Dimension        Dim             ....  358
 Nuclear Repulsion      ENuc            ....   2033.1717205293 Eh

Convergence Acceleration:
 DIIS                   CNVDIIS         .... on
   Start iteration      DIISMaxIt       ....    12
   Startup error        DIISStart       ....  0.200000
   # of expansion vecs  DIISMaxEq       ....     5
   Bias factor          DIISBfac        ....   1.050
   Max. coefficient     DIISMaxC        ....  10.000
 Trust-Rad. Augm. Hess. CNVTRAH         .... auto
   Auto Start mean grad. ratio tolernc. ....  1.125000
   Auto Start start iteration           ....    20
   Auto Start num. interpolation iter.  ....    10
   Max. Number of Micro iterations      ....    16
   Max. Number of Macro iterations      .... Maxiter - #DIIS iter
   Number of Davidson start vectors     ....     2
   Converg. threshold I  (grad. norm)   ....   1.000e-05
   Converg. threshold II (energy diff.) ....   1.000e-08
   Grad. Scal. Fac. for Micro threshold ....   0.100
   Minimum threshold for Micro iter.    ....   0.010
   NR start threshold (gradient norm)   ....   0.001
   Initial trust radius                 ....   0.400
   Minimum AH scaling param. (alpha)    ....   1.000
   Maximum AH scaling param. (alpha)    .... 1000.000
   Orbital update algorithm             .... Taylor
   White noise on init. David. guess    .... on
   Maximum white noise                  ....   0.010
   Quad. conv. algorithm                .... NR
   COSX micro iterations for RIJONX calc.... off
 SOSCF                  CNVSOSCF        .... off
 Level Shifting         CNVShift        .... on
   Level shift para.    LevelShift      ....    0.2500
   Turn off err/grad.   ShiftErr        ....    0.0010
 Zerner damping         CNVZerner       .... off
 Static damping         CNVDamp         .... on
   Fraction old density DampFac         ....    0.7000
   Max. Damping (<1)    DampMax         ....    0.9800
   Min. Damping (>=0)   DampMin         ....    0.0000
   Turn off err/grad.   DampErr         ....    0.1000
 Fernandez-Rico         CNVRico         .... off

SCF Procedure:
 Maximum # iterations   MaxIter         ....   250
 SCF integral mode      SCFMode         .... Direct
   Integral package                     .... SHARK and LIBINT hybrid scheme
 Reset frequency        DirectResetFreq ....    20
 Integral Threshold     Thresh          ....  2.500e-11 Eh
 Primitive CutOff       TCut            ....  2.500e-12 Eh

Convergence Tolerance:
 Convergence Check Mode ConvCheckMode   .... Total+1el-Energy
 Convergence forced     ConvForced      .... 0
 Energy Change          TolE            ....  1.000e-08 Eh
 1-El. energy change                    ....  1.000e-05 Eh
 DIIS Error             TolErr          ....  5.000e-07


Diagonalization of the overlap matrix:
Smallest eigenvalue                        ... 1.163e-03
Time for diagonalization                   ...    0.018 sec
Threshold for overlap eigenvalues          ... 1.000e-08
Number of eigenvalues below threshold      ... 0
Time for construction of square roots      ...    0.007 sec
Total time needed                          ...    0.026 sec

--------------------
INITIAL GUESS: HCORE
--------------------
                      -----------------
                      INTIAL GUESS DONE 
                      -----------------
-------------------
DFT GRID GENERATION
-------------------

General Integration Accuracy     IntAcc      ... 4.159
Radial Grid Type                 RadialGrid  ... OptM3 with GC (2021)
Angular Grid (max. ang.)         AngularGrid ... 3 (Lebedev-194)
Angular grid pruning method      GridPruning ... 4 (adaptive)
Weight generation scheme         WeightScheme... Becke
Basis function cutoff            BFCut       ... 1.0000e-11
Integration weight cutoff        WCut        ... 1.0000e-14
Angular grids for H and He will be reduced by one unit
Partially contracted basis set               ... off
Rotationally invariant grid construction     ... off

Total number of grid points                  ...    93291
Total number of batches                      ...     1476
Average number of points per batch           ...       63
Average number of grid points per atom       ...     2392
Time for grid setup =    1.702 sec

--------------------
COSX GRID GENERATION
--------------------

GRIDX 1
-------
General Integration Accuracy     IntAcc      ... 3.816
Radial Grid Type                 RadialGrid  ... OptM3 with GC (2021)
Angular Grid (max. ang.)         AngularGrid ... 1 (Lebedev-50)
Angular grid pruning method      GridPruning ... 4 (adaptive)
Weight generation scheme         WeightScheme... Becke
Basis function cutoff            BFCut       ... 1.0000e-11
Integration weight cutoff        WCut        ... 1.0000e-14
Angular grids for H and He will be reduced by one unit
Partially contracted basis set               ... on
Rotationally invariant grid construction     ... off

Total number of grid points                  ...    23213
Total number of batches                      ...      382
Average number of points per batch           ...       60
Average number of grid points per atom       ...      595
UseSFitting                                  ... on

GRIDX 2
-------
General Integration Accuracy     IntAcc      ... 4.020
Radial Grid Type                 RadialGrid  ... OptM3 with GC (2021)
Angular Grid (max. ang.)         AngularGrid ... 2 (Lebedev-110)
Angular grid pruning method      GridPruning ... 4 (adaptive)
Weight generation scheme         WeightScheme... Becke
Basis function cutoff            BFCut       ... 1.0000e-11
Integration weight cutoff        WCut        ... 1.0000e-14
Angular grids for H and He will be reduced by one unit
Partially contracted basis set               ... on
Rotationally invariant grid construction     ... off

Total number of grid points                  ...    50344
Total number of batches                      ...      805
Average number of points per batch           ...       62
Average number of grid points per atom       ...     1291
UseSFitting                                  ... on

GRIDX 3
-------
General Integration Accuracy     IntAcc      ... 4.338
Radial Grid Type                 RadialGrid  ... OptM3 with GC (2021)
Angular Grid (max. ang.)         AngularGrid ... 3 (Lebedev-194)
Angular grid pruning method      GridPruning ... 4 (adaptive)
Weight generation scheme         WeightScheme... Becke
Basis function cutoff            BFCut       ... 1.0000e-11
Integration weight cutoff        WCut        ... 1.0000e-14
Angular grids for H and He will be reduced by one unit
Partially contracted basis set               ... on
Rotationally invariant grid construction     ... off

Total number of grid points                  ...   108789
Total number of batches                      ...     1717
Average number of points per batch           ...       63
Average number of grid points per atom       ...     2789
UseSFitting                                  ... on

Time for X-Grid setup             =    4.569 sec

--------------
SCF ITERATIONS
--------------
ITER       Energy         Delta-E        Max-DP      RMS-DP      [F,P]     Damp
               ***  Starting incremental Fock matrix formation  ***
  0   -852.5764913269   0.00000000000020.57702624  0.15618568  3.2461988 0.7000
  1  -1090.4217217543-237.84523042740611.46908726  0.13904350  1.4876306 0.7000
  2  -1159.3542477850 -68.932526030729 5.30200506  0.07112912  1.0268960 0.7000
  3  -1187.1102643552 -27.756016570208 3.66496015  0.04724859  0.7284305 0.7000
  4  -1206.5888988996 -19.478634544339 2.60172620  0.03824445  0.4532104 0.7000
  5  -1223.2361289483 -16.647230048706 2.40417346  0.03091896  0.3396879 0.7000
  6  -1234.4278507704 -11.191721822124 1.68109772  0.03154515  0.3137945 0.7000
  7  -1241.4591585969  -7.031307826471 2.06760762  0.02646745  0.3249935 0.7000
  8  -1246.3120356833  -4.852877086415 1.53671944  0.02598038  0.3808564 0.7000
  9  -1250.4902545023  -4.178218819006 1.73169691  0.02525524  0.3421559 0.7000
 10  -1253.1997085245  -2.709454022238 1.60267456  0.02571494  0.3936702 0.7000
 11  -1255.0607814790  -1.861072954422 1.59986912  0.02484121  0.3572492 0.7000
                               ***Turning on DIIS***
 12  -1256.4984253621  -1.437643883173 1.52562057  0.02520076  0.4066082 0.7000
 13  -1257.3629169492  -0.864491587017 1.40879658  0.02175595  0.3610698 0.7000
 14  -1268.0259123252 -10.662995376059 1.00465307  0.01547667  0.2014077 0.7000
 15  -1274.2007225214  -6.174810196189 2.33621065  0.03671369  0.0981746 0.0000
 16  -1286.5003734434 -12.299650921980 0.04118853  0.00065631  0.2850548 0.7000
 17  -1286.6626735483  -0.162300104919 0.04549458  0.00108393  0.2712886 0.7000
 18  -1287.0352901494  -0.372616601112 0.04588370  0.00121921  0.2353843 0.7000
 19  -1287.4103343619  -0.375044212513 0.04389486  0.00125580  0.1947006 0.7000
               *** Restarting incremental Fock matrix formation ***
                                   *** Resetting DIIS ***

 WARNING: the maximum gradient error descreased on average only by a factor   1.1
          during the last 20 iterations

                      *** Initiating the TRAH-SCF procedure ***


TRAH GRIDX
----------

General Integration Accuracy     IntAcc      ... 3.067
Radial Grid Type                 RadialGrid  ... OptM3 with GC (2021)
Angular Grid (max. ang.)         AngularGrid ... 1 (Lebedev-50)
Angular grid pruning method      GridPruning ... 4 (adaptive)
Weight generation scheme         WeightScheme... Becke
Basis function cutoff            BFCut       ... 1.0000e-11
Integration weight cutoff        WCut        ... 1.0000e-14
Angular grids for H and He will be reduced by one unit
Partially contracted basis set               ... on
Rotationally invariant grid construction     ... off

Total number of grid points                  ...    12536
Total number of batches                      ...      218
Average number of points per batch           ...       57
Average number of grid points per atom       ...      321


TRAH GRID
---------

General Integration Accuracy     IntAcc      ... 3.467
Radial Grid Type                 RadialGrid  ... OptM3 with GC (2021)
Angular Grid (max. ang.)         AngularGrid ... 1 (Lebedev-50)
Angular grid pruning method      GridPruning ... 4 (adaptive)
Weight generation scheme         WeightScheme... Becke
Basis function cutoff            BFCut       ... 1.0000e-11
Integration weight cutoff        WCut        ... 1.0000e-14
Angular grids for H and He will be reduced by one unit
Partially contracted basis set               ... off
Rotationally invariant grid construction     ... off

Total number of grid points                  ...    29183
Total number of batches                      ...      478
Average number of points per batch           ...       61
Average number of grid points per atom       ...      748

 --------------------------------------------------------------------------------------------
   Iter.        energy            ||Error||_2        Shift      TRadius  Mac/Mic        Rej.
 --------------------------------------------------------------------------------------------
    0      -1288.341593782915     9.111029e-01                     0.400 (TRAH MAcro)   No
    0     dE    -5.097460e-02     1.457482e+00    -1.0072e-01      0.111 (TRAH MIcro)
    0     dE    -1.048577e-01     2.381902e-01    -1.9495e-01      0.275 (TRAH MIcro)
    0     dE    -1.090187e-01     1.529744e-01    -2.0094e-01      0.292 (TRAH MIcro)
    0     dE    -1.104000e-01     3.938762e-02    -2.0251e-01      0.301 (TRAH MIcro)
    0     dE    -1.106658e-01     1.612884e-02    -2.0270e-01      0.303 (TRAH MIcro)
    0     dE    -1.107291e-01     5.281000e-03    -2.0274e-01      0.304 (TRAH MIcro)
    1      -1288.449958162114     1.365109e-01                     0.480 (TRAH MAcro)   No
    1     dE    -1.534363e-03     2.189103e-01    -3.0672e-03      0.022 (TRAH MIcro)
    1     dE    -3.752843e-03     1.068719e-01    -7.4686e-03      0.070 (TRAH MIcro)
    1     dE    -4.036060e-03     2.235177e-02    -8.0249e-03      0.077 (TRAH MIcro)
    1     dE    -4.067391e-03     1.325161e-02    -8.0858e-03      0.078 (TRAH MIcro)
    1     dE    -4.072886e-03     5.967616e-03    -8.0961e-03      0.078 (TRAH MIcro)
    2      -1288.454059527941     7.752192e-03                     0.576 (TRAH MAcro)   No
    2     dE    -5.484970e-08     9.768121e-03    -1.1012e-07      0.000 (TRAH MIcro)
    2     dE    -4.575918e-06     4.178469e-03    -9.1518e-06      0.002 (TRAH MIcro)
    2     dE    -6.022652e-06     1.298164e-03    -1.2045e-05      0.003 (TRAH MIcro)
    2     dE    -6.157346e-06     7.731621e-04    -1.2315e-05      0.003 (TRAH MIcro)
    3      -1288.454065736788     7.705214e-04                           (NR   MAcro)
    3     dE    -3.064965e-08     3.851372e-04                           (NR   MIcro)
    3     dE    -5.129973e-08     2.519626e-04                           (NR   MIcro)
    3     dE    -5.560908e-08     1.408729e-04                           (NR   MIcro)
    3     dE    -5.680863e-08     4.179091e-05                           (NR   MIcro)
    3     dE    -5.689629e-08     1.463863e-05                           (NR   MIcro)
    3     dE    -5.691545e-08     6.197072e-06                           (NR   MIcro)
    3     dE    -5.691776e-08     2.769296e-06                           (NR   MIcro)
    4      -1288.454065795901     3.108673e-06                           (NR   MAcro)
    4     dE    -5.358804e-13     1.361050e-06                           (NR   MIcro)
    4     dE    -7.067573e-13     5.621276e-07                           (NR   MIcro)
    5      -1288.454065795899     5.621241e-07                           (NR   MAcro)

               *****************************************************
               *                     SUCCESS                       *
               *           SCF CONVERGED AFTER  50 CYCLES          *
               *****************************************************

Old exchange energy                            =    -59.648438033 Eh
New exchange energy                            =    -59.648536732 Eh
Exchange energy change after final integration =     -0.000098699 Eh
Total energy after final integration           =  -1288.454164495 Eh
Final COS-X integration done in                =    58.273 sec

----------------
TOTAL SCF ENERGY
----------------

Total Energy       :        -1288.45416450 Eh          -35060.62026 eV

Components:
Nuclear Repulsion  :         2033.17172053 Eh           55325.41521 eV
Electronic Energy  :        -3321.62588502 Eh          -90386.03547 eV
One Electron Energy:        -5821.99106873 Eh         -158424.43112 eV
Two Electron Energy:         2500.36518371 Eh           68038.39565 eV
Max COSX asymmetry :            0.00002689 Eh               0.00073 eV

Virial components:
Potential Energy   :        -2501.50463248 Eh          -68069.40163 eV
Kinetic Energy     :         1213.05046798 Eh           33008.78137 eV
Virial Ratio       :            2.06216040


DFT components:
N(Alpha)           :       82.000324461513 electrons
N(Beta)            :       82.000324461513 electrons
N(Total)           :      164.000648923026 electrons
E(X)               :      -79.587802725274 Eh       
E(C)               :       -7.459258251793 Eh       
E(XC)              :      -87.047060977068 Eh       
DFET-embed. en.    :        0.000000000000 Eh       

---------------
SCF CONVERGENCE
---------------

  Last Energy change         ...    2.5011e-12  Tolerance :   1.0000e-08
  Last Orbital Gradient      ...    5.6212e-07  Tolerance :   1.0000e-05
  Last Orbital Rotation      ...    8.3347e-07

             **** THE GBW FILE WAS UPDATED (reaction4-IEIP_ts_guess_scan_10-13_orca.gbw) ****
             **** DENSITY reaction4-IEIP_ts_guess_scan_10-13_orca.scfp WAS UPDATED ****
             **** ENERGY FILE WAS UPDATED (reaction4-IEIP_ts_guess_scan_10-13_orca.en.tmp) ****
             **** THE GBW FILE WAS UPDATED (reaction4-IEIP_ts_guess_scan_10-13_orca.gbw) ****
             **** DENSITY reaction4-IEIP_ts_guess_scan_10-13_orca.scfp WAS UPDATED ****
----------------
ORBITAL ENERGIES
----------------

  NO   OCC          E(Eh)            E(eV) 
   0   2.0000     -89.759026     -2442.4673 
   1   2.0000     -19.638524      -534.3914 
[...]

----------------------
LOEWDIN ATOMIC CHARGES
----------------------
   0 Ir:   -0.260234
   1 C :   -0.059448
   2 C :   -0.095697
   3 C :   -0.096663
   4 C :   -0.037968
   5 C :   -0.017269
   6 N :   -0.009476
   7 C :   -0.069033
   8 C :   -0.361981
   9 H :    0.155676
  10 H :    0.132744
  11 H :    0.142752
  12 C :   -0.344127
  13 H :    0.153126
  14 H :    0.150208
  15 H :    0.138034
  16 H :    0.132762
  17 C :    0.030192
  18 C :   -0.199290
  19 H :    0.159086
  20 C :   -0.217977
  21 C :   -0.135013
  22 S :    0.489495
  23 C :   -0.257025
  24 H :    0.365665
  25 H :    0.160718
  26 H :    0.168558
  27 H :    0.182238
  28 H :    0.179439
  29 H :    0.187621
  30 O :   -0.257265
  31 O :   -0.173447
  32 C :    0.170787
  33 C :   -0.370780
  34 H :    0.166137
  35 H :    0.173432
  36 H :    0.157270
  37 H :    0.181750
  38 H :    0.185002

-------------------------------
LOEWDIN REDUCED ORBITAL CHARGES
-------------------------------
  0 Irs       :     2.452679  s :     2.452679
      pz      :     2.255050  p :     6.777154
      px      :     2.255468
      py      :     2.266636
      dz2     :     1.728777  d :     7.942976
      dxz     :     1.644359
      dyz     :     1.438435
      dx2y2   :     1.609633
      dxy     :     1.521772
      f0      :     0.010138  f :     0.087425
      f+1     :     0.005208
      f-1     :     0.015641
      f+2     :     0.013579
      f-2     :     0.015998
      f+3     :     0.010807
      f-3     :     0.016053
  1 C s       :     2.873323  s :     2.873323
      pz      :     1.053128  p :     3.083001
      px      :     1.074281
      py      :     0.955593
      dz2     :     0.025602  d :     0.103124
      dxz     :     0.025433
      dyz     :     0.016277
      dx2y2   :     0.019149
      dxy     :     0.016663
  2 C s       :     2.875092  s :     2.875092
      pz      :     1.036666  p :     3.121758
      px      :     1.089483
      py      :     0.995609
      dz2     :     0.024023  d :     0.098847
      dxz     :     0.028308
      dyz     :     0.016236
      dx2y2   :     0.017430
      dxy     :     0.012850
  3 C s       :     2.870991  s :     2.870991
      pz      :     1.028507  p :     3.126704
      px      :     1.083547
      py      :     1.014650
      dz2     :     0.022064  d :     0.098967
      dxz     :     0.031192
      dyz     :     0.015329
      dx2y2   :     0.016444
      dxy     :     0.013938
  4 C s       :     2.874645  s :     2.874645
      pz      :     1.079215  p :     3.058729
      px      :     1.044067
      py      :     0.935448
      dz2     :     0.022904  d :     0.104594
      dxz     :     0.028942
      dyz     :     0.013540
      dx2y2   :     0.019912
      dxy     :     0.019296
  5 C s       :     2.880658  s :     2.880658
      pz      :     1.046944  p :     3.032328
      px      :     1.043004
      py      :     0.942381
      dz2     :     0.021486  d :     0.104283
      dxz     :     0.031343
      dyz     :     0.015806
      dx2y2   :     0.015922
      dxy     :     0.019725
  6 N s       :     3.121998  s :     3.121998
      pz      :     1.251283  p :     3.789680
      px      :     1.287356
      py      :     1.251041
      dz2     :     0.029903  d :     0.097798
      dxz     :     0.027059
      dyz     :     0.018062
      dx2y2   :     0.012671
      dxy     :     0.010104
  7 C s       :     2.862281  s :     2.862281
      pz      :     1.057628  p :     3.072123
      px      :     0.937207
      py      :     1.077288
      dz2     :     0.028927  d :     0.134629
      dxz     :     0.028221
      dyz     :     0.013155
      dx2y2   :     0.031116
      dxy     :     0.033210
  8 C s       :     2.953543  s :     2.953543
      pz      :     1.138270  p :     3.340915
      px      :     1.123682
      py      :     1.078963
      dz2     :     0.015229  d :     0.067522
      dxz     :     0.017092
      dyz     :     0.005409
      dx2y2   :     0.010900
      dxy     :     0.018892
  9 H s       :     0.844324  s :     0.844324
 10 H s       :     0.867256  s :     0.867256
 11 H s       :     0.857248  s :     0.857248
 12 C s       :     2.953401  s :     2.953401
      pz      :     1.144771  p :     3.322741
      px      :     1.109265
      py      :     1.068706
      dz2     :     0.015192  d :     0.067984
      dxz     :     0.013635
      dyz     :     0.008402
      dx2y2   :     0.012776
      dxy     :     0.017980
 13 H s       :     0.846874  s :     0.846874
 14 H s       :     0.849792  s :     0.849792
 15 H s       :     0.861966  s :     0.861966
 16 H s       :     0.867238  s :     0.867238
 17 C s       :     2.876050  s :     2.876050
      pz      :     1.005785  p :     2.953255
      px      :     1.064871
      py      :     0.882599
      dz2     :     0.038254  d :     0.140502
      dxz     :     0.047662
      dyz     :     0.026745
      dx2y2   :     0.012703
      dxy     :     0.015138
 18 C s       :     2.889328  s :     2.889328
      pz      :     1.047441  p :     3.197328
      px      :     1.087281
      py      :     1.062606
      dz2     :     0.033967  d :     0.112634
      dxz     :     0.033859
      dyz     :     0.017104
      dx2y2   :     0.015940
      dxy     :     0.011764
 19 H s       :     0.840914  s :     0.840914
 20 C s       :     2.906234  s :     2.906234
      pz      :     1.149799  p :     3.214759
      px      :     1.060542
      py      :     1.004417
      dz2     :     0.013747  d :     0.096985
      dxz     :     0.037798
      dyz     :     0.012049
      dx2y2   :     0.017001
      dxy     :     0.016390
 21 C s       :     2.896160  s :     2.896160
      pz      :     1.075803  p :     3.144014
      px      :     1.085816
      py      :     0.982395
      dz2     :     0.028920  d :     0.094840
      dxz     :     0.031904
      dyz     :     0.014582
      dx2y2   :     0.012301
      dxy     :     0.007132
 22 S s       :     5.499609  s :     5.499609
      pz      :     3.253136  p :     9.855644
      px      :     3.085391
      py      :     3.517117
      dz2     :     0.049890  d :     0.155252
      dxz     :     0.034333
      dyz     :     0.017320
      dx2y2   :     0.026800
      dxy     :     0.026910
 23 C s       :     2.964496  s :     2.964496
      pz      :     1.120980  p :     3.206626
      px      :     1.029700
      py      :     1.055945
      dz2     :     0.024130  d :     0.085903
      dxz     :     0.030342
      dyz     :     0.011388
      dx2y2   :     0.011271
      dxy     :     0.008772
 24 H s       :     0.634335  s :     0.634335
 25 H s       :     0.839282  s :     0.839282
 26 H s       :     0.831442  s :     0.831442
 27 H s       :     0.817762  s :     0.817762
 28 H s       :     0.820561  s :     0.820561
 29 H s       :     0.812379  s :     0.812379
 30 O s       :     3.512899  s :     3.512899
      pz      :     1.445432  p :     4.689551
      px      :     1.588144
      py      :     1.655976
      dz2     :     0.014861  d :     0.054815
      dxz     :     0.015406
      dyz     :     0.013983
      dx2y2   :     0.006683
      dxy     :     0.003881
 31 O s       :     3.440968  s :     3.440968
      pz      :     1.687270  p :     4.671860
      px      :     1.583034
      py      :     1.401555
      dz2     :     0.008965  d :     0.060620
      dxz     :     0.004936
      dyz     :     0.014958
      dx2y2   :     0.014368
      dxy     :     0.017392
 32 C s       :     2.812659  s :     2.812659
      pz      :     0.952582  p :     2.699229
      px      :     0.781317
      py      :     0.965330
      dz2     :     0.069484  d :     0.317325
      dxz     :     0.053123
      dyz     :     0.090550
      dx2y2   :     0.053035
      dxy     :     0.051132
 33 C s       :     2.957694  s :     2.957694
      pz      :     1.105392  p :     3.350516
      px      :     1.155237
      py      :     1.089887
      dz2     :     0.004089  d :     0.062571
      dxz     :     0.016329
      dyz     :     0.021501
      dx2y2   :     0.018390
      dxy     :     0.002261
 34 H s       :     0.833863  s :     0.833863
 35 H s       :     0.826568  s :     0.826568
 36 H s       :     0.842730  s :     0.842730
 37 H s       :     0.818250  s :     0.818250
 38 H s       :     0.814998  s :     0.814998


                      *****************************
                      * MAYER POPULATION ANALYSIS *
                      *****************************

  NA   - Mulliken gross atomic population
  ZA   - Total nuclear charge
  QA   - Mulliken gross atomic charge
  VA   - Mayer's total valence
  BVA  - Mayer's bonded valence
  FA   - Mayer's free valence

  ATOM       NA         ZA         QA         VA         BVA        FA
  0 Ir    16.3963    17.0000     0.6037     3.7575     3.7575    -0.0000
  1 C      6.2470     6.0000    -0.2470     3.7264     3.7264    -0.0000
  2 C      6.2618     6.0000    -0.2618     3.7314     3.7314    -0.0000
  3 C      6.2706     6.0000    -0.2706     3.7437     3.7437    -0.0000
  4 C      6.2216     6.0000    -0.2216     3.7171     3.7171    -0.0000
  5 C      6.1549     6.0000    -0.1549     3.6992     3.6992    -0.0000
  6 N      7.4389     7.0000    -0.4389     3.2130     3.2130    -0.0000
  7 C      6.1255     6.0000    -0.1255     3.7113     3.7113    -0.0000
  8 C      6.6802     6.0000    -0.6802     3.6896     3.6896     0.0000
  9 H      0.7316     1.0000     0.2684     0.8978     0.8978     0.0000
 10 H      0.7754     1.0000     0.2246     0.9108     0.9108    -0.0000
 11 H      0.7475     1.0000     0.2525     0.9010     0.9010     0.0000
 12 C      6.6331     6.0000    -0.6331     3.6722     3.6722    -0.0000
 13 H      0.7236     1.0000     0.2764     0.8737     0.8737    -0.0000
 14 H      0.7422     1.0000     0.2578     0.8990     0.8990    -0.0000
 15 H      0.7673     1.0000     0.2327     0.9095     0.9095    -0.0000
 16 H      0.7672     1.0000     0.2328     0.9061     0.9061    -0.0000
 17 C      5.9312     6.0000     0.0688     3.6680     3.6680     0.0000
 18 C      6.1291     6.0000    -0.1291     3.6912     3.6912     0.0000
 19 H      0.7168     1.0000     0.2832     0.8875     0.8875     0.0000
 20 C      6.5317     6.0000    -0.5317     3.5579     3.5579     0.0000
 21 C      6.1159     6.0000    -0.1159     3.7628     3.7628    -0.0000
 22 S     15.6629    16.0000     0.3371     2.5896     2.5896    -0.0000
 23 C      6.4245     6.0000    -0.4245     3.7560     3.7560     0.0000
 24 H      0.5222     1.0000     0.4778     0.7415     0.7415    -0.0000
 25 H      0.7355     1.0000     0.2645     0.9027     0.9027     0.0000
 26 H      0.7034     1.0000     0.2966     0.8976     0.8976    -0.0000
 27 H      0.7146     1.0000     0.2854     0.9060     0.9060    -0.0000
 28 H      0.7184     1.0000     0.2816     0.9093     0.9093    -0.0000
 29 H      0.7032     1.0000     0.2968     0.8960     0.8960    -0.0000
 30 O      8.4898     8.0000    -0.4898     2.1245     2.1245    -0.0000
 31 O      8.5006     8.0000    -0.5006     2.1260     2.1260    -0.0000
 32 C      5.3637     6.0000     0.6363     3.8823     3.8823    -0.0000
 33 C      6.7442     6.0000    -0.7442     3.6552     3.6552     0.0000
 34 H      0.7251     1.0000     0.2749     0.8924     0.8924     0.0000
 35 H      0.7224     1.0000     0.2776     0.8903     0.8903     0.0000
 36 H      0.7357     1.0000     0.2643     0.8964     0.8964     0.0000
 37 H      0.7179     1.0000     0.2821     0.9087     0.9087     0.0000
 38 H      0.7067     1.0000     0.2933     0.9026     0.9026    -0.0000

  Mayer bond orders larger than 0.100000
B(  0-Ir,  1-C ) :   0.4495 B(  0-Ir,  2-C ) :   0.4139 B(  0-Ir,  3-C ) :   0.4688 
B(  0-Ir,  4-C ) :   0.4300 B(  0-Ir,  5-C ) :   0.3759 B(  0-Ir,  6-N ) :   0.4663 
B(  0-Ir, 20-C ) :   0.4787 B(  0-Ir, 31-O ) :   0.5068 B(  1-C ,  2-C ) :   1.1268 
B(  1-C ,  4-C ) :   1.2200 B(  1-C , 27-H ) :   0.9083 B(  2-C ,  5-C ) :   1.2121 
B(  2-C , 28-H ) :   0.9103 B(  3-C ,  4-C ) :   1.1407 B(  3-C ,  5-C ) :   1.1739 
B(  3-C , 37-H ) :   0.9130 B(  4-C , 38-H ) :   0.9000 B(  5-C , 29-H ) :   0.9015 
B(  6-N ,  7-C ) :   0.8964 B(  6-N , 17-C ) :   1.6443 B(  7-C ,  8-C ) :   0.9903 
B(  7-C , 12-C ) :   0.9674 B(  7-C , 13-H ) :   0.8788 B(  8-C ,  9-H ) :   0.9051 
B(  8-C , 10-H ) :   0.9131 B(  8-C , 11-H ) :   0.9128 B( 12-C , 14-H ) :   0.9081 
B( 12-C , 15-H ) :   0.9153 B( 12-C , 16-H ) :   0.9124 B( 17-C , 18-C ) :   1.1177 
B( 17-C , 19-H ) :   0.8767 B( 18-C , 20-C ) :   1.2434 B( 18-C , 22-S ) :   1.2246 
B( 20-C , 21-C ) :   1.2857 B( 20-C , 24-H ) :   0.3054 B( 21-C , 23-C ) :   1.5327 
B( 21-C , 25-H ) :   0.9034 B( 22-S , 23-C ) :   1.2264 B( 23-C , 26-H ) :   0.8917 
B( 24-H , 30-O ) :   0.3735 B( 30-O , 32-C ) :   1.5238 B( 31-O , 32-C ) :   1.4086 
B( 32-C , 33-C ) :   0.9465 B( 33-C , 34-H ) :   0.8985 B( 33-C , 35-H ) :   0.8918 
B( 33-C , 36-H ) :   0.9074 


------------------
HIRSHFELD ANALYSIS
------------------

Total integrated alpha density =     82.000251087
Total integrated beta density  =     82.000251087

  ATOM     CHARGE      SPIN    
   0 Ir   0.168810    0.000000
   1 C   -0.003878    0.000000
   2 C   -0.016215    0.000000
   3 C   -0.021181    0.000000
   4 C    0.004555    0.000000
   5 C    0.018846    0.000000
   6 N   -0.073097    0.000000
   7 C    0.051995    0.000000
   8 C   -0.071658    0.000000
   9 H    0.052761    0.000000
  10 H    0.037478    0.000000
  11 H    0.040386    0.000000
  12 C   -0.071466    0.000000
  13 H    0.043852    0.000000
  14 H    0.049327    0.000000
  15 H    0.037426    0.000000
  16 H    0.030558    0.000000
  17 C    0.093036    0.000000
  18 C   -0.016585    0.000000
  19 H    0.075464    0.000000
  20 C   -0.090767    0.000000
  21 C   -0.031780    0.000000
  22 S    0.136457    0.000000
  23 C   -0.024464    0.000000
  24 H    0.108375    0.000000
  25 H    0.067038    0.000000
  26 H    0.078706    0.000000
  27 H    0.080755    0.000000
  28 H    0.078527    0.000000
  29 H    0.090225    0.000000
  30 O   -0.218520    0.000000
  31 O   -0.239244    0.000000
  32 C    0.255821    0.000000
  33 C   -0.060713    0.000000
  34 H    0.059897    0.000000
  35 H    0.065260    0.000000
  36 H    0.052738    0.000000
  37 H    0.079997    0.000000
  38 H    0.080775    0.000000

  TOTAL   0.999498    0.000000

-------
TIMINGS
-------

Total SCF time: 0 days 0 hours 4 min 28 sec 

Total time                  ....     268.154 sec
Sum of individual times     ....     267.604 sec  ( 99.8%)

Fock matrix formation       ....     258.875 sec  ( 96.5%)
  Split-RI-J                ....      18.738 sec  (  7.2% of F)
  Chain of spheres X        ....     226.042 sec  ( 87.3% of F)
  XC integration            ....      14.090 sec  (  5.4% of F)
    Basis function eval.    ....       6.512 sec  ( 46.2% of XC)
    Density eval.           ....       3.765 sec  ( 26.7% of XC)
    XC-Functional eval.     ....       1.058 sec  (  7.5% of XC)
    XC-Potential eval.      ....       2.222 sec  ( 15.8% of XC)
Diagonalization             ....       0.226 sec  (  0.1%)
Density matrix formation    ....       0.035 sec  (  0.0%)
Population analysis         ....       1.587 sec  (  0.6%)
Initial guess               ....       0.031 sec  (  0.0%)
Orbital Transformation      ....       0.000 sec  (  0.0%)
Orbital Orthonormalization  ....       0.024 sec  (  0.0%)
DIIS solution               ....       0.079 sec  (  0.0%)
Grid generation             ....       6.770 sec  (  2.5%)

Maximum memory used throughout the entire SCF-calculation: 172.9 MB


-------------------------------------------------------------------------------
                          DFT DISPERSION CORRECTION                            
                                                                               
                              DFTD3 V3.1  Rev 1                                
                          USING Becke-Johnson damping                          
-------------------------------------------------------------------------------
The PBEh-3c composite method is recognized
Using three-body term ABC
Active option DFTDOPT                   ...         4   

molecular C6(AA) [au] = 19532.521910 


            DFT-D V3
 parameters
 s6 scaling factor         :     1.0000 
 a1 scaling factor         :     0.4860 
 s8 scaling factor         :     0.0000 
 a2 scaling factor         :     4.5000 
 Damping factor alpha9(ATM):    16.0000 
 ad hoc parameters k1-k3   :    16.0000     1.3333    -4.0000 

 Edisp/kcal,au: -19.156584708217  -0.030527957675 
 E6   /kcal   : -19.489121267 
 E8   /kcal   :  -0.000000000 
 E6(ABC)      :   0.332536559 
 % E8         :   0.000000000 
 % E6(ABC)    :  -1.735886453 

-------------------------   ----------------
Dispersion correction           -0.030527958
-------------------------   ----------------

 ** NOTE ** -> element ir will be treated as co
NOTIFICATION: Different basis set in ORCA and otool_gcp:
ORCA: 358  gCP: 357 
If you are NOT using ECPs, check your basis set inputs!
------------------   -----------------
gCP correction             0.079141379
------------------   -----------------

-------------------------   --------------------
FINAL SINGLE POINT ENERGY     -1288.405420122332
-------------------------   --------------------

                                *** OPTIMIZATION RUN DONE ***

                            ***************************************
                            *     ORCA property calculations      *
                            ***************************************

                                    ---------------------
                                    Active property flags
                                    ---------------------
   (+) Dipole Moment


------------------------------------------------------------------------------
                       ORCA ELECTRIC PROPERTIES CALCULATION
------------------------------------------------------------------------------

Dipole Moment Calculation                       ... on
Quadrupole Moment Calculation                   ... off
Polarizability Calculation                      ... off
GBWName                                         ... reaction4-IEIP_ts_guess_scan_10-13_orca.gbw
Electron density                                ... reaction4-IEIP_ts_guess_scan_10-13_orca.scfp
The origin for moment calculation is the CENTER OF MASS  = ( 0.860636, -0.554067 -0.164819)

-------------
DIPOLE MOMENT
-------------
                                X             Y             Z
Electronic contribution:     36.83530     -74.92906      73.33384
Nuclear contribution   :    -37.39842      74.57540     -73.45247
                        -----------------------------------------
Total Dipole Moment    :     -0.56312      -0.35365      -0.11864
                        -----------------------------------------
Magnitude (a.u.)       :      0.67547
Magnitude (Debye)      :      1.71690



--------------------
Rotational spectrum 
--------------------
 
Rotational constants in cm-1:     0.010565     0.008722     0.008161 
Rotational constants in MHz :   316.726291   261.476543   244.648429 

 Dipole components along the rotational axes: 
x,y,z [a.u.] :     0.114649     0.188402     0.638446 
x,y,z [Debye]:     0.291414     0.478881     1.622801 

 

Timings for individual modules:

Sum of individual times         ...    11873.349 sec (= 197.889 min)
GTO integral calculation        ...       43.429 sec (=   0.724 min)   0.4 %
SCF iterations                  ...     9056.126 sec (= 150.935 min)  76.3 %
SCF Gradient evaluation         ...     2766.965 sec (=  46.116 min)  23.3 %
Geometry relaxation             ...        6.829 sec (=   0.114 min)   0.1 %
                             ****ORCA TERMINATED NORMALLY****
TOTAL RUN TIME: 0 days 3 hours 18 minutes 2 seconds 841 msec
