
                                 *****************
                                 * O   R   C   A *
                                 *****************

                                            #,                                       
                                            ###                                      
                                            ####                                     
                                            #####                                    
                                            ######                                   
                                           ########,                                 
                                     ,,################,,,,,                         
                               ,,#################################,,                 
                          ,,##########################################,,             
                       ,#########################################, ''#####,          
                    ,#############################################,,   '####,        
                  ,##################################################,,,,####,       
                ,###########''''           ''''###############################       
              ,#####''   ,,,,##########,,,,          '''####'''          '####       
            ,##' ,,,,###########################,,,                        '##       
           ' ,,###''''                  '''############,,,                           
         ,,##''                                '''############,,,,        ,,,,,,###''
      ,#''                                            '''#######################'''  
     '                                                          ''''####''''         
             ,#######,   #######,   ,#######,      ##                                
            ,#'     '#,  ##    ##  ,#'     '#,    #''#        ######   ,####,        
            ##       ##  ##   ,#'  ##            #'  '#       #        #'  '#        
            ##       ##  #######   ##           ,######,      #####,   #    #        
            '#,     ,#'  ##    ##  '#,     ,#' ,#      #,         ##   #,  ,#        
             '#######'   ##     ##  '#######'  #'      '#     #####' # '####'        



                  #######################################################
                  #                        -***-                        #
                  #          Department of theory and spectroscopy      #
                  #    Directorship and core code : Frank Neese         #
                  #        Max Planck Institute fuer Kohlenforschung    #
                  #                Kaiser Wilhelm Platz 1               #
                  #                 D-45470 Muelheim/Ruhr               #
                  #                      Germany                        #
                  #                                                     #
                  #                  All rights reserved                #
                  #                        -***-                        #
                  #######################################################


                         Program Version 5.0.3 -  RELEASE  -


 With contributions from (in alphabetic order):
   Daniel Aravena         : Magnetic Suceptibility
   Michael Atanasov       : Ab Initio Ligand Field Theory (pilot matlab implementation)
   Alexander A. Auer      : GIAO ZORA, VPT2 properties, NMR spectrum
   Ute Becker             : Parallelization
   Giovanni Bistoni       : ED, misc. LED, open-shell LED, HFLD
   Martin Brehm           : Molecular dynamics
   Dmytro Bykov           : SCF Hessian
   Vijay G. Chilkuri      : MRCI spin determinant printing, contributions to CSF-ICE
   Dipayan Datta          : RHF DLPNO-CCSD density
   Achintya Kumar Dutta   : EOM-CC, STEOM-CC
   Dmitry Ganyushin       : Spin-Orbit,Spin-Spin,Magnetic field MRCI
   Miquel Garcia          : C-PCM and meta-GGA Hessian, CC/C-PCM, Gaussian charge scheme
   Yang Guo               : DLPNO-NEVPT2, F12-NEVPT2, CIM, IAO-localization
   Andreas Hansen         : Spin unrestricted coupled pair/coupled cluster methods
   Benjamin Helmich-Paris : MC-RPA, TRAH-SCF, COSX integrals
   Lee Huntington         : MR-EOM, pCC
   Robert Izsak           : Overlap fitted RIJCOSX, COSX-SCS-MP3, EOM
   Marcus Kettner         : VPT2
   Christian Kollmar      : KDIIS, OOCD, Brueckner-CCSD(T), CCSD density, CASPT2, CASPT2-K
   Simone Kossmann        : Meta GGA functionals, TD-DFT gradient, OOMP2, MP2 Hessian
   Martin Krupicka        : Initial AUTO-CI
   Lucas Lang             : DCDCAS
   Marvin Lechner         : AUTO-CI (C++ implementation), FIC-MRCC
   Dagmar Lenk            : GEPOL surface, SMD
   Dimitrios Liakos       : Extrapolation schemes; Compound Job, initial MDCI parallelization
   Dimitrios Manganas     : Further ROCIS development; embedding schemes
   Dimitrios Pantazis     : SARC Basis sets
   Anastasios Papadopoulos: AUTO-CI, single reference methods and gradients
   Taras Petrenko         : DFT Hessian,TD-DFT gradient, ASA, ECA, R-Raman, ABS, FL, XAS/XES, NRVS
   Peter Pinski           : DLPNO-MP2, DLPNO-MP2 Gradient
   Christoph Reimann      : Effective Core Potentials
   Marius Retegan         : Local ZFS, SOC
   Christoph Riplinger    : Optimizer, TS searches, QM/MM, DLPNO-CCSD(T), (RO)-DLPNO pert. Triples
   Tobias Risthaus        : Range-separated hybrids, TD-DFT gradient, RPA, STAB
   Michael Roemelt        : Original ROCIS implementation
   Masaaki Saitow         : Open-shell DLPNO-CCSD energy and density
   Barbara Sandhoefer     : DKH picture change effects
   Avijit Sen             : IP-ROCIS
   Kantharuban Sivalingam : CASSCF convergence, NEVPT2, FIC-MRCI
   Bernardo de Souza      : ESD, SOC TD-DFT
   Georgi Stoychev        : AutoAux, RI-MP2 NMR, DLPNO-MP2 response
   Willem Van den Heuvel  : Paramagnetic NMR
   Boris Wezisla          : Elementary symmetry handling
   Frank Wennmohs         : Technical directorship


 We gratefully acknowledge several colleagues who have allowed us to
 interface, adapt or use parts of their codes:
   Stefan Grimme, W. Hujo, H. Kruse, P. Pracht,  : VdW corrections, initial TS optimization,
                  C. Bannwarth, S. Ehlert          DFT functionals, gCP, sTDA/sTD-DF
   Ed Valeev, F. Pavosevic, A. Kumar             : LibInt (2-el integral package), F12 methods
   Garnet Chan, S. Sharma, J. Yang, R. Olivares  : DMRG
   Ulf Ekstrom                                   : XCFun DFT Library
   Mihaly Kallay                                 : mrcc  (arbitrary order and MRCC methods)
   Jiri Pittner, Ondrej Demel                    : Mk-CCSD
   Frank Weinhold                                : gennbo (NPA and NBO analysis)
   Christopher J. Cramer and Donald G. Truhlar   : smd solvation model
   Lars Goerigk                                  : TD-DFT with DH, B97 family of functionals
   V. Asgeirsson, H. Jonsson                     : NEB implementation
   FAccTs GmbH                                   : IRC, NEB, NEB-TS, DLPNO-Multilevel, CI-OPT
                                                   MM, QMMM, 2- and 3-layer-ONIOM, Crystal-QMMM,
                                                   LR-CPCM, SF, NACMEs, symmetry and pop. for TD-DFT,
                                                   nearIR, NL-DFT gradient (VV10), updates on ESD,
                                                   ML-optimized integration grids
   S Lehtola, MJT Oliveira, MAL Marques          : LibXC Library
   Liviu Ungur et al                             : ANISO software


 Your calculation uses the libint2 library for the computation of 2-el integrals
 For citations please refer to: http://libint.valeyev.net

 Your ORCA version has been built with support for libXC version: 5.1.0
 For citations please refer to: https://tddft.org/programs/libxc/

 This ORCA versions uses:
   CBLAS   interface :  Fast vector & matrix operations
   LAPACKE interface :  Fast linear algebra routines
   SCALAPACK package :  Parallel linear algebra routines
   Shared memory     :  Shared parallel matrices
   BLAS/LAPACK       :  OpenBLAS 0.3.15  USE64BITINT DYNAMIC_ARCH NO_AFFINITY SkylakeX SINGLE_THREADED
        Core in use  :  SkylakeX
   Copyright (c) 2011-2014, The OpenBLAS Project


Your calculation utilizes the geometrical counterpoise correction gCP
Please cite in your paper:
H.Kruse, S. Grimme J.Chem.Phys., 136, (2012), 154101 
   

Your calculation utilizes the atom-pairwise dispersion correction
with the Becke-Johnson damping scheme (D3BJ)
Cite in your paper:
S.Grimme, S.Ehrlich, L.Goerigk, J Comput Chem, (2011), 32, 1456–1465 
S.Grimme, J.Antony, S.Ehrlich and H.Krieg, J.Chem.Phys., 132, (2010), 154104 
   

Your calculation employs the composite approach PBEh-3c.
Please cite in your paper:
S. Grimme, J. G. Brandenburg, C. Bannwarth, A. Hansen J.Chem.Phys., 143, (2015), 054107 
   

================================================================================

cite the ECPs for Ir [Def2-ECP] as follows:
Ce-Yb(ecp-28): M. Dolg, H. Stoll, H.Preuss, J. Chem. Phys., 1989, 90, 1730-1734.
Y-Cd(ecp-28), Hf-Hg(ecp-46): D. Andrae,U. Haeussermann, M. Dolg, H. Stoll, H. Preuss, Theor. Chim. Acta, 1990, 77, 123-141.
In-Sb(ecp-28), Tl-Bi(ecp-46): B. Metz, H. Stoll, M. Dolg, J. Chem. Phys., 2000, 113, 2563-2569.
Te-Xe(ecp-28), Po-Rn(ecp-46): K. A. Peterson, D. Figgen, E. Goll, H. Stoll, M. Dolg, J. Chem. Phys., 2003, 119, 11113-11123.
Rb(ecp-28), Cs(ecp-46): T. Leininger, A. Nicklass, W. Kuechle, H. Stoll, M. Dolg, A. Bergner, Chem. Phys. Lett., 1996, 255, 274-280.
Sr(ecp-28), Ba(ecp-46): M. Kaupp, P. V. Schleyer, H. Stoll and H. Preuss, J. Chem. Phys., 1991, 94, 1360-1366.
La(ecp-46): M. Dolg, H. Stoll, A. Savin, H. Preuss, Theor. Chim. Acta, 1989, 75, 173-194.
Lu(ecp-28): X. Cao, M. Dolg, J. Chem. Phys., 2001, 115, 7348-7355.

ECP parameters for Ir [Def2-ECP] have been obtained from:
TURBOMOLE (7.0.2)

----- Orbital basis set information -----
Your calculation utilizes the basis: def2-mSVP

----- AuxJ basis set information -----
Your calculation utilizes the auxiliary basis: def2/J
   F. Weigend, Phys. Chem. Chem. Phys. 8, 1057 (2006).

================================================================================
                                        WARNINGS
                       Please study these warnings very carefully!
================================================================================


WARNING: Geometry Optimization
  ===> : Switching off AutoStart
         For restart on a previous wavefunction, please use MOREAD

WARNING: No Hueckel Guess possible with ECP basis!
  ===> : Switching to HCORE guess!

INFO   : the flag for use of the SHARK integral package has been found!

================================================================================
                                       INPUT FILE
================================================================================
NAME = reaction4-IEIP_ts_guess_scan_11-5_orca.inp
|  1> ! Opt PBEh-3c
|  2> %geom Constraints
|  3> { B 0 20 2.1285714285714286 C }
|  4> { B 24 30 1.4285714285714286 C }
|  5>     end
|  6> end
|  7> %output 
|  8> xyzfile=True 
|  9> end 
| 10> %scf 
| 11> maxiter 250 
| 12> end
| 13> %output
| 14> Print[P_Hirshfeld] = 1
| 15> end
| 16> % maxcore
| 17> 4000
| 18> *xyz 1 1
| 19> Ir   0.62134915  -0.71583438   0.42424748 
| 20> C    0.13276595  -2.83093356   0.33112495 
| 21> C   -0.01278633  -2.37170438   1.68743929 
| 22> C    2.19151265  -2.07344644   1.05598614 
| 23> C    1.47629807  -2.64843744  -0.05498685 
| 24> C    1.26878889  -1.93430072   2.12139583 
| 25> N   -1.05836030   0.13257979  -0.51575899 
| 26> C   -2.32542261   0.37061253   0.19247800 
| 27> C   -3.11778270   1.55117360  -0.35016919 
| 28> H   -3.94249370   1.76322924   0.32867029 
| 29> H   -3.56260732   1.35059622  -1.32580756 
| 30> H   -2.51056907   2.45400266  -0.41872924 
| 31> C   -3.15479582  -0.90896476   0.18644341 
| 32> H   -2.03522969   0.59618659   1.21954319 
| 33> H   -4.05620885  -0.76786172   0.78127428 
| 34> H   -3.46156778  -1.17455570  -0.82603656 
| 35> H   -2.61064706  -1.75111863   0.61092238 
| 36> C   -0.90677895   0.43074676  -1.75244444 
| 37> C    0.41659775   0.24196775  -2.27417030 
| 38> H   -1.71494169   0.83304924  -2.35519024 
| 39> C    1.47757862   0.15603660  -1.37069377 
| 40> C    2.68817091  -0.13407180  -2.07329749 
| 41> S    0.87851215  -0.01230434  -3.88505722 
| 42> C    2.51215043  -0.24675718  -3.41741593 
| 43> H    1.58230501   1.15237680  -0.63507983 
| 44> H    3.65804674  -0.19569572  -1.60144830 
| 45> H    3.26211805  -0.43256497  -4.17115522 
| 46> H   -0.64955284  -3.24694555  -0.28700372 
| 47> H   -0.90503365  -2.41848707   2.29316281 
| 48> H    1.48691754  -1.49696694   3.08551350 
| 49> O    1.62098460   2.35726181   0.15775857 
| 50> O    0.55065225   0.99798778   1.55877138 
| 51> C    1.06504356   2.12560645   1.23937388 
| 52> C    0.99486007   3.19865020   2.28795689 
| 53> H    0.97470098   4.18424410   1.83013252 
| 54> H    1.89028685   3.14243023   2.90959284 
| 55> H    0.13295129   3.06919195   2.93780148 
| 56> H    3.24621115  -1.84857018   1.09409754 
| 57> H    1.89534576  -2.89921884  -1.01850171 
| 58> *
| 59> 
| 60>                          ****END OF INPUT****
================================================================================

                       *****************************
                       * Geometry Optimization Run *
                       *****************************

Geometry optimization settings:
Update method            Update   .... BFGS
Choice of coordinates    CoordSys .... Z-matrix Internals
Initial Hessian          InHess   .... Almoef's Model

Convergence Tolerances:
Energy Change            TolE     ....  5.0000e-06 Eh
Max. Gradient            TolMAXG  ....  3.0000e-04 Eh/bohr
RMS Gradient             TolRMSG  ....  1.0000e-04 Eh/bohr
Max. Displacement        TolMAXD  ....  4.0000e-03 bohr
RMS Displacement         TolRMSD  ....  2.0000e-03 bohr
Strict Convergence                ....  False
------------------------------------------------------------------------------
                        ORCA OPTIMIZATION COORDINATE SETUP
------------------------------------------------------------------------------

The optimization will be done in new redundant internal coordinates
Making redundant internal coordinates   ...  (new redundants) done
Evaluating the initial hessian          ...  (Almloef) done
Evaluating the coordinates              ...  done
Calculating the B-matrix                .... done
Calculating the G-matrix                .... done
Diagonalizing the G-matrix              .... done
Imposing constraints:
 Iter   0:  RMS(Cart)=    0.0182299372 RMS(Int)=    0.0069967718
 Iter   1:  RMS(Cart)=    0.0021339670 RMS(Int)=    0.0008530038
 Iter   2:  RMS(Cart)=    0.0002597081 RMS(Int)=    0.0001036683
 Iter   3:  RMS(Cart)=    0.0000315193 RMS(Int)=    0.0000125512
 Iter   4:  RMS(Cart)=    0.0000038137 RMS(Int)=    0.0000015170
 Iter   5:  RMS(Cart)=    0.0000004608 RMS(Int)=    0.0000001832
 Iter   6:  RMS(Cart)=    0.0000000557 RMS(Int)=    0.0000000221
CONVERGED
Small eigenvalue found = 1.405e-02
Small eigenvalue found = 2.206e-02
The first mode is                       ....  280
The number of degrees of freedom        ....  111
Storing new coordinates                 .... done

    -----------------------------------------------------------------
                    Redundant Internal Coordinates


    -----------------------------------------------------------------
         Definition                    Initial Value    Approx d2E/dq
    -----------------------------------------------------------------
      1. B(C   1,Ir  0)                  2.1726         0.081996   
      2. B(C   2,C   1)                  1.4392         0.521241   
      3. B(C   2,Ir  0)                  2.1768         0.080714   
      4. B(C   3,Ir  0)                  2.1695         0.082932   
      5. B(C   4,C   3)                  1.4408         0.518098   
      6. B(C   4,Ir  0)                  2.1668         0.083783   
      7. B(C   4,C   1)                  1.4101         0.581017   
      8. B(C   5,Ir  0)                  2.1868         0.077749   
      9. B(C   5,C   2)                  1.4230         0.555507   
     10. B(C   5,C   3)                  1.4173         0.567275   
     11. B(N   6,Ir  0)                  2.1040         0.094718   
     12. B(C   7,N   6)                  1.4710         0.415641   
     13. B(C   8,C   7)                  1.5219         0.384930   
     14. B(H   9,C   8)                  1.0890         0.361414   
     15. B(H  10,C   8)                  1.0909         0.358967   
     16. B(H  11,C   8)                  1.0902         0.359852   
     17. B(C  12,C   7)                  1.5249         0.380688   
     18. B(H  13,C   7)                  1.0909         0.358974   
     19. B(H  14,C  12)                  1.0892         0.361207   
     20. B(H  15,C  12)                  1.0908         0.359092   
     21. B(H  16,C  12)                  1.0888         0.361680   
     22. B(C  17,N   6)                  1.2761         0.834804   
     23. B(C  18,C  17)                  1.4301         0.529638   
     24. B(H  19,C  17)                  1.0855         0.366123   
     25. B(C  20,Ir  0)                  2.1286         0.082408 C 
     26. B(C  20,C  18)                  1.3969         0.610759   
     27. B(C  21,C  20)                  1.4302         0.540489   
     28. B(S  22,C  18)                  1.6949         0.549441   
     29. B(C  23,C  21)                  1.3601         0.696900   
     30. B(C  23,S  22)                  1.7146         0.509834   
     31. B(H  24,C  20)                  1.2434         0.205347   
     32. B(H  25,C  21)                  1.0804         0.373131   
     33. B(H  26,C  23)                  1.0794         0.374403   
     34. B(H  27,C   1)                  1.0804         0.373085   
     35. B(H  28,C   2)                  1.0794         0.374341   
     36. B(H  29,C   5)                  1.0809         0.372330   
     37. B(O  30,H  24)                  1.4286         0.088226 C 
     38. B(O  31,Ir  0)                  2.0561         0.112568   
     39. B(C  32,O  30)                  1.2381         0.978122   
     40. B(C  32,O  31)                  1.2796         0.838566   
     41. B(C  33,C  32)                  1.5020         0.414112   
     42. B(H  34,C  33)                  1.0869         0.364192   
     43. B(H  35,C  33)                  1.0915         0.358116   
     44. B(H  36,C  33)                  1.0872         0.363860   
     45. B(H  37,C   3)                  1.0791         0.374841   
     46. B(H  38,C   4)                  1.0802         0.373287   
     47. A(C   1,Ir  0,N   6)          101.1425         0.248229   
     48. A(C   1,Ir  0,C   3)           64.3104         0.244624   
     49. A(C   2,Ir  0,N   6)          109.3920         0.247662   
     50. A(C   2,Ir  0,C   5)           38.0655         0.241822   
     51. A(N   6,Ir  0,O  31)           83.2577         0.258845   
     52. A(C  20,Ir  0,O  31)           97.7694         0.254762   
     53. A(C   2,Ir  0,C  20)          154.1033         0.243848   
     54. A(C   2,Ir  0,O  31)          107.6969         0.253985   
     55. A(C   1,Ir  0,C   5)           63.7620         0.242368   
     56. A(C   3,Ir  0,C   4)           38.8137         0.245386   
     57. A(C   2,Ir  0,C   3)           64.3300         0.244070   
     58. A(C   3,Ir  0,C  20)          101.7955         0.244801   
     59. A(C   4,Ir  0,N   6)          125.1702         0.249008   
     60. A(C   1,Ir  0,O  31)          145.8200         0.254574   
     61. A(C   5,Ir  0,O  31)           92.6580         0.252593   
     62. A(C   5,Ir  0,C  20)          138.3519         0.242542   
     63. A(C   4,Ir  0,C  20)           91.0545         0.245162   
     64. A(C   2,Ir  0,C   4)           64.2308         0.244429   
     65. A(C   1,Ir  0,C  20)          116.3415         0.244402   
     66. A(C   3,Ir  0,N   6)          163.8120         0.248638   
     67. A(C   1,Ir  0,C   4)           37.9265         0.244985   
     68. A(C   4,Ir  0,O  31)          151.5141         0.255385   
     69. A(C   1,Ir  0,C   2)           38.6445         0.243673   
     70. A(C   3,Ir  0,O  31)          112.7025         0.255000   
     71. A(C   5,Ir  0,N   6)          143.8158         0.246324   
     72. A(C   3,Ir  0,C   5)           37.9707         0.242762   
     73. A(N   6,Ir  0,C  20)           77.6594         0.248410   
     74. A(C   4,Ir  0,C   5)           63.7886         0.243118   
     75. A(C   2,C   1,H  27)          126.0553         0.344788   
     76. A(Ir  0,C   1,C   2)           70.8353         0.311524   
     77. A(C   2,C   1,C   4)          108.2728         0.415937   
     78. A(C   4,C   1,H  27)          125.6717         0.351152   
     79. A(Ir  0,C   1,H  27)          124.2181         0.267429   
     80. A(Ir  0,C   1,C   4)           70.8107         0.317060   
     81. A(Ir  0,C   2,C   1)           70.5203         0.310732   
     82. A(Ir  0,C   2,C   5)           71.3458         0.313950   
     83. A(C   1,C   2,C   5)          107.1121         0.412631   
     84. A(Ir  0,C   2,H  28)          126.8309         0.266930   
     85. A(C   5,C   2,H  28)          125.9709         0.348699   
     86. A(C   1,C   2,H  28)          126.7621         0.344983   
     87. A(C   4,C   3,C   5)          107.1832         0.413725   
     88. A(Ir  0,C   3,C   4)           70.4915         0.311791   
     89. A(Ir  0,C   3,C   5)           71.6763         0.316411   
     90. A(Ir  0,C   3,H  37)          125.9701         0.268078   
     91. A(C   5,C   3,H  37)          126.1633         0.350013   
     92. A(C   4,C   3,H  37)          126.5479         0.344710   
     93. A(Ir  0,C   4,C   1)           71.2628         0.318176   
     94. A(Ir  0,C   4,H  38)          123.8843         0.268324   
     95. A(Ir  0,C   4,C   3)           70.6949         0.312307   
     96. A(C   3,C   4,H  38)          125.9784         0.344470   
     97. A(C   1,C   4,C   3)          108.3005         0.415489   
     98. A(C   1,C   4,H  38)          125.7210         0.351184   
     99. A(Ir  0,C   5,H  29)          121.7667         0.265214   
    100. A(Ir  0,C   5,C   2)           70.5887         0.312053   
    101. A(C   3,C   5,H  29)          125.3997         0.349616   
    102. A(Ir  0,C   5,C   3)           70.3530         0.313114   
    103. A(C   2,C   5,C   3)          109.1000         0.418890   
    104. A(C   2,C   5,H  29)          125.3543         0.348382   
    105. A(Ir  0,N   6,C  17)          115.4019         0.340852   
    106. A(C   7,N   6,C  17)          121.9973         0.420633   
    107. A(Ir  0,N   6,C   7)          122.6009         0.304077   
    108. A(C   8,C   7,H  13)          108.2894         0.325751   
    109. A(C  12,C   7,H  13)          108.7800         0.325158   
    110. A(N   6,C   7,C   8)          113.7244         0.369641   
    111. A(N   6,C   7,C  12)          109.3181         0.368938   
    112. A(C   8,C   7,C  12)          111.4913         0.366399   
    113. A(N   6,C   7,H  13)          104.9301         0.327918   
    114. A(C   7,C   8,H   9)          108.8493         0.326114   
    115. A(C   7,C   8,H  10)          112.8665         0.325750   
    116. A(H   9,C   8,H  10)          106.5295         0.290862   
    117. A(C   7,C   8,H  11)          112.0151         0.325882   
    118. A(H   9,C   8,H  11)          107.4425         0.290974   
    119. A(H  10,C   8,H  11)          108.8532         0.290664   
    120. A(C   7,C  12,H  14)          109.8323         0.325490   
    121. A(C   7,C  12,H  15)          111.1593         0.325176   
    122. A(H  14,C  12,H  15)          107.8016         0.290852   
    123. A(C   7,C  12,H  16)          112.0664         0.325560   
    124. A(H  14,C  12,H  16)          107.5119         0.291180   
    125. A(H  15,C  12,H  16)          108.3067         0.290911   
    126. A(N   6,C  17,C  18)          114.7906         0.442241   
    127. A(N   6,C  17,H  19)          122.6028         0.370020   
    128. A(C  18,C  17,H  19)          122.5704         0.344623   
    129. A(C  17,C  18,S  22)          128.0068         0.435743   
    130. A(C  20,C  18,S  22)          113.6704         0.447110   
    131. A(C  17,C  18,C  20)          118.1524         0.420850   
    132. A(C  18,C  20,C  21)          109.4909         0.422377   
    133. A(Ir  0,C  20,H  24)           82.2815         0.245051   
    134. A(C  18,C  20,H  24)          113.4843         0.320615   
    135. A(C  21,C  20,H  24)          112.5484         0.314295   
    136. A(Ir  0,C  20,C  18)          105.7725         0.319913   
    137. A(Ir  0,C  20,C  21)          130.7335         0.313613   
    138. A(C  20,C  21,C  23)          113.2862         0.432482   
    139. A(C  20,C  21,H  25)          123.7913         0.346904   
    140. A(C  23,C  21,H  25)          122.8097         0.362175   
    141. A(C  18,S  22,C  23)           91.1466         0.456899   
    142. A(C  21,C  23,S  22)          112.4057         0.451770   
    143. A(C  21,C  23,H  26)          127.9089         0.362386   
    144. A(S  22,C  23,H  26)          119.6641         0.361596   
    145. A(Ir  0,O  31,C  32)          125.4353         0.351155   
    146. A(O  30,C  32,O  31)          124.2149         0.491925   
    147. A(O  30,C  32,C  33)          119.8558         0.435304   
    148. A(O  31,C  32,C  33)          115.9131         0.423446   
    149. A(C  32,C  33,H  34)          110.7704         0.330487   
    150. A(C  32,C  33,H  35)          108.8130         0.329569   
    151. A(H  34,C  33,H  35)          107.5661         0.291103   
    152. A(C  32,C  33,H  36)          111.6712         0.330437   
    153. A(H  34,C  33,H  36)          110.1848         0.291833   
    154. A(H  35,C  33,H  36)          107.6873         0.291062   
    155. D(C   2,C   1,Ir  0,N   6)   -107.1911         0.001685   
    156. D(C   4,C   1,Ir  0,C   2)   -118.1917         0.001685   
    157. D(H  27,C   1,Ir  0,C   3)   -158.5352         0.001685   
    158. D(C   4,C   1,Ir  0,C  20)     52.9861         0.001685   
    159. D(C   2,C   1,Ir  0,C   3)     80.3215         0.001685   
    160. D(C   4,C   1,Ir  0,N   6)    134.6172         0.001685   
    161. D(H  27,C   1,Ir  0,C   2)    121.1433         0.001685   
    162. D(C   2,C   1,Ir  0,O  31)    -12.7724         0.001685   
    163. D(H  27,C   1,Ir  0,N   6)     13.9522         0.001685   
    164. D(C   2,C   1,Ir  0,C  20)    171.1778         0.001685   
    165. D(C   4,C   1,Ir  0,C   3)    -37.8702         0.001685   
    166. D(H  27,C   1,Ir  0,C  20)    -67.6790         0.001685   
    167. D(H  27,C   1,Ir  0,C   4)   -120.6651         0.001685   
    168. D(H  27,C   1,Ir  0,O  31)    108.3708         0.001685   
    169. D(C   2,C   1,Ir  0,C   5)     37.8983         0.001685   
    170. D(H  27,C   1,Ir  0,C   5)    159.0416         0.001685   
    171. D(C   4,C   1,Ir  0,C   5)    -80.2934         0.001685   
    172. D(C   4,C   1,Ir  0,O  31)   -130.9641         0.001685   
    173. D(C   2,C   1,Ir  0,C   4)    118.1917         0.001685   
    174. D(H  28,C   2,Ir  0,C   5)    121.4463         0.001680   
    175. D(H  28,C   2,C   1,C   4)   -176.7966         0.021565   
    176. D(C   5,C   2,C   1,H  27)    178.7325         0.021565   
    177. D(C   1,C   2,Ir  0,N   6)     83.5594         0.001680   
    178. D(C   1,C   2,Ir  0,C   3)    -80.2662         0.001680   
    179. D(Ir  0,C   2,C   1,C   4)     61.2355         0.021565   
    180. D(H  28,C   2,Ir  0,C   1)   -121.8854         0.001680   
    181. D(H  28,C   2,Ir  0,C  20)   -140.2279         0.001680   
    182. D(C   1,C   2,Ir  0,C   5)   -116.6684         0.001680   
    183. D(C   5,C   2,Ir  0,C   3)     36.4022         0.001680   
    184. D(H  28,C   2,Ir  0,C   4)   -158.8669         0.001680   
    185. D(H  28,C   2,Ir  0,C   3)    157.8484         0.001680   
    186. D(Ir  0,C   2,C   1,H  27)   -118.9061         0.021565   
    187. D(C   1,C   2,Ir  0,C   4)    -36.9816         0.001680   
    188. D(C   5,C   2,Ir  0,C   1)    116.6684         0.001680   
    189. D(C   1,C   2,Ir  0,C  20)    -18.3425         0.001680   
    190. D(C   5,C   2,Ir  0,O  31)    -70.8226         0.001680   
    191. D(C   5,C   2,Ir  0,N   6)   -159.7722         0.001680   
    192. D(H  28,C   2,C   1,Ir  0)    121.9679         0.021565   
    193. D(C   5,C   2,C   1,Ir  0)    -62.3614         0.021565   
    194. D(C   1,C   2,Ir  0,O  31)    172.5090         0.001680   
    195. D(C   5,C   2,Ir  0,C  20)     98.3259         0.001680   
    196. D(H  28,C   2,Ir  0,N   6)    -38.3259         0.001680   
    197. D(C   5,C   2,Ir  0,C   4)     79.6868         0.001680   
    198. D(C   5,C   2,C   1,C   4)     -1.1260         0.021565   
    199. D(H  28,C   2,Ir  0,O  31)     50.6237         0.001680   
    200. D(H  28,C   2,C   1,H  27)      3.0618         0.021565   
    201. D(C   4,C   3,Ir  0,N   6)      9.6167         0.001690   
    202. D(C   5,C   3,Ir  0,C   1)    -79.5708         0.001690   
    203. D(H  37,C   3,Ir  0,C   5)   -121.8507         0.001690   
    204. D(H  37,C   3,Ir  0,C   2)   -158.3424         0.001690   
    205. D(C   4,C   3,Ir  0,O  31)    179.5607         0.001690   
    206. D(H  37,C   3,Ir  0,N   6)    131.1830         0.001690   
    207. D(C   5,C   3,Ir  0,C  20)    166.6911         0.001690   
    208. D(H  37,C   3,Ir  0,C   1)    158.5785         0.001690   
    209. D(H  37,C   3,Ir  0,C   4)    121.5663         0.001690   
    210. D(C   4,C   3,Ir  0,C   5)    116.5830         0.001690   
    211. D(C   5,C   3,Ir  0,C   4)   -116.5830         0.001690   
    212. D(C   5,C   3,Ir  0,O  31)     62.9777         0.001690   
    213. D(C   4,C   3,Ir  0,C  20)    -76.7259         0.001690   
    214. D(C   4,C   3,Ir  0,C   1)     37.0121         0.001690   
    215. D(C   4,C   3,Ir  0,C   2)     80.0913         0.001690   
    216. D(C   5,C   3,Ir  0,N   6)   -106.9663         0.001690   
    217. D(C   5,C   3,Ir  0,C   2)    -36.4917         0.001690   
    218. D(H  37,C   3,Ir  0,C  20)     44.8405         0.001690   
    219. D(H  37,C   3,Ir  0,O  31)    -58.8730         0.001690   
    220. D(C   1,C   4,Ir  0,C  20)   -134.2994         0.001693   
    221. D(C   1,C   4,Ir  0,C   2)     37.6753         0.001693   
    222. D(C   3,C   4,Ir  0,C   2)    -80.3688         0.001693   
    223. D(C   1,C   4,Ir  0,C   5)     80.2169         0.001693   
    224. D(C   1,C   4,Ir  0,N   6)    -58.6898         0.001693   
    225. D(C   3,C   4,Ir  0,C   5)    -37.8271         0.001693   
    226. D(C   3,C   4,Ir  0,C   1)   -118.0440         0.001693   
    227. D(C   1,C   4,Ir  0,O  31)    117.1942         0.001693   
    228. D(C   1,C   4,Ir  0,C   3)    118.0440         0.001693   
    229. D(H  38,C   4,C   1,Ir  0)   -118.7643         0.027063   
    230. D(C   3,C   4,Ir  0,C  20)    107.6566         0.001693   
    231. D(C   3,C   4,Ir  0,O  31)     -0.8498         0.001693   
    232. D(Ir  0,C   4,C   1,C   2)    -61.2510         0.027063   
    233. D(H  38,C   4,Ir  0,C   1)    120.9866         0.001693   
    234. D(H  38,C   4,Ir  0,C   3)   -120.9693         0.001693   
    235. D(H  38,C   4,Ir  0,C   5)   -158.7964         0.001693   
    236. D(H  38,C   4,Ir  0,N   6)     62.2968         0.001693   
    237. D(H  38,C   4,Ir  0,C  20)    -13.3128         0.001693   
    238. D(H  38,C   4,Ir  0,C   2)    158.6619         0.001693   
    239. D(Ir  0,C   4,C   1,H  27)    118.8899         0.027063   
    240. D(H  38,C   4,Ir  0,O  31)   -121.8191         0.001693   
    241. D(C   3,C   4,C   1,Ir  0)     61.3223         0.027063   
    242. D(C   3,C   4,C   1,C   2)      0.0713         0.027063   
    243. D(H  38,C   4,C   1,C   2)    179.9847         0.027063   
    244. D(C   3,C   4,Ir  0,N   6)   -176.7338         0.001693   
    245. D(C   3,C   4,C   1,H  27)   -179.7879         0.027063   
    246. D(Ir  0,C   4,C   3,H  37)   -120.8670         0.021297   
    247. D(Ir  0,C   4,C   3,C   5)     62.6986         0.021297   
    248. D(H  38,C   4,C   3,C   5)   -178.8975         0.021297   
    249. D(C   1,C   4,C   3,C   5)      1.0157         0.021297   
    250. D(C   1,C   4,C   3,H  37)    177.4501         0.021297   
    251. D(H  38,C   4,C   3,Ir  0)    118.4039         0.021297   
    252. D(H  38,C   4,C   1,H  27)      0.1256         0.027063   
    253. D(H  38,C   4,C   3,H  37)     -2.4631         0.021297   
    254. D(C   1,C   4,C   3,Ir  0)    -61.6829         0.021297   
    255. D(H  29,C   5,C   2,H  28)     -6.7154         0.024622   
    256. D(C   2,C   5,Ir  0,C   4)    -80.9505         0.001667   
    257. D(C   2,C   5,Ir  0,C   3)   -119.6161         0.001667   
    258. D(C   3,C   5,C   2,C   1)      1.7749         0.024622   
    259. D(C   2,C   5,Ir  0,C  20)   -139.4372         0.001667   
    260. D(C   2,C   5,Ir  0,O  31)    115.7393         0.001667   
    261. D(H  29,C   5,Ir  0,O  31)     -4.4860         0.001667   
    262. D(C   3,C   5,Ir  0,C   2)    119.6161         0.001667   
    263. D(C   3,C   5,Ir  0,C   4)     38.6657         0.001667   
    264. D(C   3,C   5,Ir  0,N   6)    153.1493         0.001667   
    265. D(C   3,C   5,Ir  0,C  20)    -19.8210         0.001667   
    266. D(C   3,C   5,Ir  0,O  31)   -124.6446         0.001667   
    267. D(H  29,C   5,Ir  0,C   1)   -158.6991         0.001667   
    268. D(H  29,C   5,Ir  0,C   2)   -120.2253         0.001667   
    269. D(H  29,C   5,Ir  0,C   3)    120.1585         0.001667   
    270. D(H  29,C   5,Ir  0,C   4)    158.8242         0.001667   
    271. D(H  29,C   5,Ir  0,N   6)    -86.6922         0.001667   
    272. D(C   3,C   5,Ir  0,C   1)     81.1423         0.001667   
    273. D(H  29,C   5,Ir  0,C  20)    100.3375         0.001667   
    274. D(Ir  0,C   5,C   2,C   1)     61.8227         0.024622   
    275. D(Ir  0,C   5,C   2,H  28)   -122.4627         0.024622   
    276. D(C   2,C   5,Ir  0,N   6)     33.5331         0.001667   
    277. D(C   3,C   5,C   2,Ir  0)    -60.0478         0.024622   
    278. D(H  29,C   5,C   2,Ir  0)    115.7473         0.024622   
    279. D(C   3,C   5,C   2,H  28)    177.4895         0.024622   
    280. D(C   2,C   5,Ir  0,C   1)    -38.4738         0.001667   
    281. D(H  29,C   5,C   2,C   1)    177.5701         0.024622   
    282. D(H  29,C   5,C   3,H  37)      6.0237         0.025730   
    283. D(Ir  0,C   5,C   3,H  37)    121.6232         0.025730   
    284. D(C   2,C   5,C   3,Ir  0)     60.1933         0.025730   
    285. D(C   2,C   5,C   3,C   4)     -1.7315         0.025730   
    286. D(C   2,C   5,C   3,H  37)   -178.1835         0.025730   
    287. D(H  29,C   5,C   3,Ir  0)   -115.5994         0.025730   
    288. D(Ir  0,C   5,C   3,C   4)    -61.9248         0.025730   
    289. D(H  29,C   5,C   3,C   4)   -177.5243         0.025730   
    290. D(C   7,N   6,Ir  0,C   1)     81.7271         0.001766   
    291. D(C   7,N   6,Ir  0,C   2)     42.4947         0.001766   
    292. D(C   7,N   6,Ir  0,C   3)    106.7269         0.001766   
    293. D(C   7,N   6,Ir  0,C   4)    114.0863         0.001766   
    294. D(C   7,N   6,Ir  0,C   5)     21.3279         0.001766   
    295. D(C   7,N   6,Ir  0,C  20)   -163.4478         0.001766   
    296. D(C   7,N   6,Ir  0,O  31)    -63.9382         0.001766   
    297. D(C  17,N   6,Ir  0,C   1)    -98.2858         0.001766   
    298. D(C  17,N   6,Ir  0,C   2)   -137.5182         0.001766   
    299. D(C  17,N   6,Ir  0,C   3)    -73.2860         0.001766   
    300. D(C  17,N   6,Ir  0,C   4)    -65.9266         0.001766   
    301. D(C  17,N   6,Ir  0,C   5)   -158.6850         0.001766   
    302. D(C  17,N   6,Ir  0,C  20)     16.5394         0.001766   
    303. D(C  17,N   6,Ir  0,O  31)    116.0489         0.001766   
    304. D(C   8,C   7,N   6,Ir  0)    150.4693         0.014733   
    305. D(C   8,C   7,N   6,C  17)    -29.5170         0.014733   
    306. D(C  12,C   7,N   6,Ir  0)    -84.2128         0.014733   
    307. D(C  12,C   7,N   6,C  17)     95.8009         0.014733   
    308. D(H  13,C   7,N   6,Ir  0)     32.3087         0.014733   
    309. D(H  13,C   7,N   6,C  17)   -147.6776         0.014733   
    310. D(H   9,C   8,C   7,N   6)   -170.2930         0.011794   
    311. D(H   9,C   8,C   7,C  12)     65.5552         0.011794   
    312. D(H   9,C   8,C   7,H  13)    -54.0838         0.011794   
    313. D(H  10,C   8,C   7,N   6)     71.6568         0.011794   
    314. D(H  10,C   8,C   7,C  12)    -52.4950         0.011794   
    315. D(H  10,C   8,C   7,H  13)   -172.1341         0.011794   
    316. D(H  11,C   8,C   7,N   6)    -51.6284         0.011794   
    317. D(H  11,C   8,C   7,C  12)   -175.7802         0.011794   
    318. D(H  11,C   8,C   7,H  13)     64.5807         0.011794   
    319. D(H  14,C  12,C   7,N   6)    175.1790         0.011548   
    320. D(H  14,C  12,C   7,C   8)    -58.2212         0.011548   
    321. D(H  14,C  12,C   7,H  13)     61.1271         0.011548   
    322. D(H  15,C  12,C   7,N   6)    -65.6060         0.011548   
    323. D(H  15,C  12,C   7,C   8)     60.9938         0.011548   
    324. D(H  15,C  12,C   7,H  13)   -179.6579         0.011548   
    325. D(H  16,C  12,C   7,N   6)     55.7489         0.011548   
    326. D(H  16,C  12,C   7,C   8)   -177.6513         0.011548   
    327. D(H  16,C  12,C   7,H  13)    -58.3031         0.011548   
    328. D(C  18,C  17,N   6,Ir  0)     -4.7512         0.060054   
    329. D(C  18,C  17,N   6,C   7)    175.2360         0.060054   
    330. D(H  19,C  17,N   6,Ir  0)    177.3847         0.060054   
    331. D(H  19,C  17,N   6,C   7)     -2.6281         0.060054   
    332. D(C  20,C  18,C  17,N   6)    -18.7408         0.019147   
    333. D(C  20,C  18,C  17,H  19)    159.1241         0.019147   
    334. D(S  22,C  18,C  17,N   6)    156.1851         0.019147   
    335. D(S  22,C  18,C  17,H  19)    -25.9499         0.019147   
    336. D(C  18,C  20,Ir  0,C   1)     72.8975         0.001687   
    337. D(H  24,C  20,C  18,C  17)    -57.8114         0.027995   
    338. D(C  18,C  20,Ir  0,C   3)    139.8957         0.001687   
    339. D(C  18,C  20,Ir  0,C   4)    102.2956         0.001687   
    340. D(Ir  0,C  20,C  18,C  17)     30.5014         0.027995   
    341. D(C  18,C  20,Ir  0,N   6)    -23.5572         0.001687   
    342. D(C  18,C  20,Ir  0,O  31)   -104.8639         0.001687   
    343. D(H  24,C  20,Ir  0,C   4)   -145.3960         0.001687   
    344. D(C  21,C  20,Ir  0,C   2)    -48.9250         0.001687   
    345. D(C  21,C  20,Ir  0,C   3)      5.4056         0.001687   
    346. D(C  21,C  20,Ir  0,C   4)    -32.1945         0.001687   
    347. D(C  21,C  20,Ir  0,C   5)     17.7111         0.001687   
    348. D(C  21,C  20,Ir  0,N   6)   -158.0473         0.001687   
    349. D(C  21,C  20,Ir  0,O  31)    120.6460         0.001687   
    350. D(H  24,C  20,Ir  0,C   1)   -174.7940         0.001687   
    351. D(H  24,C  20,Ir  0,C   2)   -162.1265         0.001687   
    352. D(C  21,C  20,Ir  0,C   1)    -61.5926         0.001687   
    353. D(H  24,C  20,Ir  0,C   3)   -107.7958         0.001687   
    354. D(H  24,C  20,Ir  0,C   5)    -95.4903         0.001687   
    355. D(H  24,C  20,Ir  0,N   6)     88.7513         0.001687   
    356. D(C  18,C  20,Ir  0,C   5)    152.2013         0.001687   
    357. D(H  24,C  20,Ir  0,O  31)      7.4445         0.001687   
    358. D(Ir  0,C  20,C  18,S  22)   -145.1348         0.027995   
    359. D(C  21,C  20,C  18,C  17)    175.5124         0.027995   
    360. D(C  18,C  20,Ir  0,C   2)     85.5651         0.001687   
    361. D(C  21,C  20,C  18,S  22)     -0.1238         0.027995   
    362. D(H  24,C  20,C  18,S  22)    126.5524         0.027995   
    363. D(C  23,C  21,C  20,Ir  0)    133.4246         0.021657   
    364. D(C  23,C  21,C  20,C  18)      0.1640         0.021657   
    365. D(C  23,C  21,C  20,H  24)   -127.0409         0.021657   
    366. D(H  25,C  21,C  20,Ir  0)    -50.3467         0.021657   
    367. D(H  25,C  21,C  20,C  18)    176.3927         0.021657   
    368. D(H  25,C  21,C  20,H  24)     49.1878         0.021657   
    369. D(C  23,S  22,C  18,C  17)   -175.0712         0.006018   
    370. D(C  23,S  22,C  18,C  20)      0.0446         0.006018   
    371. D(S  22,C  23,C  21,C  20)     -0.1349         0.034180   
    372. D(S  22,C  23,C  21,H  25)   -176.4059         0.034180   
    373. D(H  26,C  23,C  21,C  20)    178.1592         0.034180   
    374. D(H  26,C  23,C  21,H  25)      1.8882         0.034180   
    375. D(C  21,C  23,S  22,C  18)      0.0527         0.005360   
    376. D(H  26,C  23,S  22,C  18)   -178.3985         0.005360   
    377. D(C  32,O  31,Ir  0,C   1)    175.5386         0.001855   
    378. D(C  32,O  31,Ir  0,C   2)    167.2060         0.001855   
    379. D(C  32,O  31,Ir  0,C   3)     98.2695         0.001855   
    380. D(C  32,O  31,Ir  0,C   4)     98.8469         0.001855   
    381. D(C  32,O  31,Ir  0,C   5)    131.5460         0.001855   
    382. D(C  32,O  31,Ir  0,N   6)    -84.5402         0.001855   
    383. D(C  32,O  31,Ir  0,C  20)     -8.0337         0.001855   
    384. D(O  30,C  32,O  31,Ir  0)      4.0414         0.054827   
    385. D(C  33,C  32,O  31,Ir  0)   -174.4851         0.054827   
    386. D(H  34,C  33,C  32,O  30)     29.5510         0.012692   
    387. D(H  34,C  33,C  32,O  31)   -151.8539         0.012692   
    388. D(H  35,C  33,C  32,O  30)    -88.4971         0.012692   
    389. D(H  35,C  33,C  32,O  31)     90.0980         0.012692   
    390. D(H  36,C  33,C  32,O  30)    152.7681         0.012692   
    391. D(H  36,C  33,C  32,O  31)    -28.6369         0.012692   
    -----------------------------------------------------------------

Number of atoms                         .... 39
Number of degrees of freedom            .... 391

         *************************************************************
         *                GEOMETRY OPTIMIZATION CYCLE   1            *
         *************************************************************
---------------------------------
CARTESIAN COORDINATES (ANGSTROEM)
---------------------------------
  Ir     0.623861   -0.710971    0.413749
  C      0.138305   -2.826407    0.316108
  C     -0.006159   -2.370670    1.673541
  C      2.197930   -2.066985    1.038356
  C      1.481184   -2.640686   -0.072093
  C      1.276371   -1.931799    2.106618
  N     -1.060729    0.136362   -0.519512
  C     -2.326435    0.371658    0.192071
  C     -3.121669    1.551941   -0.346983
  H     -3.945059    1.761898    0.334117
  H     -3.568533    1.352184   -1.321860
  H     -2.515834    2.455688   -0.415667
  C     -3.154099   -0.909028    0.186137
  H     -2.034115    0.596128    1.218777
  H     -4.054295   -0.770004    0.783307
  H     -3.462910   -1.173559   -0.826003
  H     -2.607812   -1.751067    0.608103
  C     -0.911819    0.435071   -1.751175
  C      0.410582    0.240587   -2.259737
  H     -1.717028    0.839610   -2.356388
  C      1.461705    0.147899   -1.344425
  C      2.675706   -0.147863   -2.040254
  S      0.883463   -0.015052   -3.867123
  C      2.510857   -0.259063   -3.385724
  H      1.565423    1.143277   -0.606586
  H      3.641855   -0.214337   -1.561379
  H      3.266412   -0.448211   -4.133080
  H     -0.644354   -3.242208   -0.301733
  H     -0.897531   -2.420428    2.280323
  H      1.495553   -1.496262    3.071313
  O      1.618423    2.356228    0.146246
  O      0.552352    0.999850    1.551920
  C      1.065691    2.126968    1.230189
  C      0.998772    3.201548    2.277419
  H      0.977457    4.186481    1.818222
  H      1.896006    3.146066    2.896518
  H      0.138739    3.073194    2.929971
  H      3.252337   -1.840409    1.074488
  H      1.898769   -2.888440   -1.037032

----------------------------
CARTESIAN COORDINATES (A.U.)
----------------------------
  NO LB      ZA    FRAG     MASS         X           Y           Z
   0 Ir   17.0000*   0   192.220    1.178926   -1.343541    0.781873
   1 C     6.0000    0    12.011    0.261358   -5.341135    0.597358
   2 C     6.0000    0    12.011   -0.011638   -4.479918    3.162534
   3 C     6.0000    0    12.011    4.153485   -3.906035    1.962208
   4 C     6.0000    0    12.011    2.799032   -4.990173   -0.136235
   5 C     6.0000    0    12.011    2.411992   -3.650571    3.980932
   6 N     7.0000    0    14.007   -2.004486    0.257686   -0.981735
   7 C     6.0000    0    12.011   -4.396325    0.702331    0.362961
   8 C     6.0000    0    12.011   -5.899100    2.932744   -0.655703
   9 H     1.0000    0     1.008   -7.455081    3.329506    0.631390
  10 H     1.0000    0     1.008   -6.743550    2.555258   -2.497954
  11 H     1.0000    0     1.008   -4.754237    4.640577   -0.785496
  12 C     6.0000    0    12.011   -5.960384   -1.717814    0.351749
  13 H     1.0000    0     1.008   -3.843920    1.126518    2.303155
  14 H     1.0000    0     1.008   -7.661506   -1.455097    1.480236
  15 H     1.0000    0     1.008   -6.543952   -2.217704   -1.560919
  16 H     1.0000    0     1.008   -4.928050   -3.309036    1.149148
  17 C     6.0000    0    12.011   -1.723088    0.822165   -3.309241
  18 C     6.0000    0    12.011    0.775887    0.454643   -4.270284
  19 H     1.0000    0     1.008   -3.244713    1.586633   -4.452928
  20 C     6.0000    0    12.011    2.762222    0.279489   -2.540595
  21 C     6.0000    0    12.011    5.056351   -0.279421   -3.855520
  22 S    16.0000    0    32.060    1.669503   -0.028443   -7.307804
  23 C     6.0000    0    12.011    4.744831   -0.489557   -6.398092
  24 H     1.0000    0     1.008    2.958220    2.160480   -1.146281
  25 H     1.0000    0     1.008    6.882109   -0.405038   -2.950579
  26 H     1.0000    0     1.008    6.172624   -0.846996   -7.810390
  27 H     1.0000    0     1.008   -1.217653   -6.126884   -0.570193
  28 H     1.0000    0     1.008   -1.696088   -4.573947    4.309187
  29 H     1.0000    0     1.008    2.826186   -2.827525    5.803940
  30 O     8.0000    0    15.999    3.058375    4.452627    0.276366
  31 O     8.0000    0    15.999    1.043793    1.889443    2.932703
  32 C     6.0000    0    12.011    2.013864    4.019388    2.324721
  33 C     6.0000    0    12.011    1.887406    6.050049    4.303698
  34 H     1.0000    0     1.008    1.847126    7.911302    3.435941
  35 H     1.0000    0     1.008    3.582932    5.945202    5.473626
  36 H     1.0000    0     1.008    0.262180    5.807494    5.536844
  37 H     1.0000    0     1.008    6.146027   -3.477869    2.030488
  38 H     1.0000    0     1.008    3.588152   -5.458361   -1.959706
* core charge reduced due to ECP

--------------------------------
INTERNAL COORDINATES (ANGSTROEM)
--------------------------------
 Ir     0   0   0     0.000000000000     0.00000000     0.00000000
 C      1   0   0     2.172793107995     0.00000000     0.00000000
 C      2   1   0     1.439328140094    70.83842388     0.00000000
 C      1   2   3     2.169704509081    64.28526659    80.26075417
 C      2   1   3     1.409775057726    70.81780129   241.84235011
 C      4   1   2     1.416290392613    71.70402133   280.42807747
 N      1   2   3     2.103530984777   101.18097364   252.71675648
 C      7   1   2     1.470954151814   122.54366613    81.66735290
 C      8   7   1     1.521849179465   113.72433740   150.47722085
 H      9   8   7     1.089008203635   108.84928845   189.70708131
 H      9   8   7     1.090857670341   112.86636230    71.65694575
 H      9   8   7     1.090187683151   112.01514715   308.37151845
 C      8   7   1     1.524865364164   109.31803233   275.79510723
 H      8   7   1     1.090852186079   104.93005838    32.31684561
 H     13   8   7     1.089164488246   109.83227599   175.17902013
 H     13   8   7     1.090762702197   111.15952997   294.39405767
 H     13   8   7     1.088808252053   112.06637571    55.74891486
 C      7   1   2     1.281121130069   115.51587522   261.66985431
 C     18   7   1     1.434977796940   115.43369231   355.08256446
 H     18   7   1     1.085484591856   122.28867236   177.23115435
 C     19  18   7     1.396185664339   118.27073079   341.10029266
 C     21  19  18     1.429457436833   109.75453014   175.50905444
 S     19  18   7     1.694985509586   128.06808533   156.08562104
 C     22  21  19     1.360270408777   113.13540887     0.24093737
 H     21  19  18     1.242895522408   113.43346611   302.25771238
 H     22  21  19     1.080323234610   123.86274534   176.48594921
 H     24  22  21     1.079397463015   127.90519360   178.15404318
 H      2   1   3     1.080357217631   124.20784197   121.16383290
 H      3   2   1     1.079441931190   126.76548818   121.95306944
 H      6   4   1     1.080908795730   125.39772963   244.39906364
 O     25  21  19     1.442857140025   175.48238387   354.16489730
 O      1   2   3     2.056533230329   145.80611113   347.22623768
 C     31  25  21     1.237992861288   108.16682028   104.26277388
 C     33  31  25     1.501957036850   119.81866526   178.16607101
 H     34  33  31     1.086924504459   110.77057996    29.55051040
 H     34  33  31     1.091504034670   108.81278835   271.50218304
 H     34  33  31     1.087172559756   111.67126059   152.76745077
 H      4   1   2     1.079078651917   125.95947331   158.59027047
 H      5   2   1     1.080209777090   125.72847441   241.24351279

---------------------------
INTERNAL COORDINATES (A.U.)
---------------------------
 Ir     0   0   0     0.000000000000     0.00000000     0.00000000
 C      1   0   0     4.105983919783     0.00000000     0.00000000
 C      2   1   0     2.719936001624    70.83842388     0.00000000
 C      1   2   3     4.100147313698    64.28526659    80.26075417
 C      2   1   3     2.664088769535    70.81780129   241.84235011
 C      4   1   2     2.676400968143    71.70402133   280.42807747
 N      1   2   3     3.975097475447   101.18097364   252.71675648
 C      7   1   2     2.779700502483   122.54366613    81.66735290
 C      8   7   1     2.875878166322   113.72433740   150.47722085
 H      9   8   7     2.057927262463   108.84928845   189.70708131
 H      9   8   7     2.061422248032   112.86636230    71.65694575
 H      9   8   7     2.060156155730   112.01514715   308.37151845
 C      8   7   1     2.881577929371   109.31803233   275.79510723
 H      8   7   1     2.061411884278   104.93005838    32.31684561
 H     13   8   7     2.058222597577   109.83227599   175.17902013
 H     13   8   7     2.061242784248   111.15952997   294.39405767
 H     13   8   7     2.057549408733   112.06637571    55.74891486
 C      7   1   2     2.420968080210   115.51587522   261.66985431
 C     18   7   1     2.711715044475   115.43369231   355.08256446
 H     18   7   1     2.051268601199   122.28867236   177.23115435
 C     19  18   7     2.638408537709   118.27073079   341.10029266
 C     21  19  18     2.701283075711   109.75453014   175.50905444
 S     19  18   7     3.203058414083   128.06808533   156.08562104
 C     22  21  19     2.570538540665   113.13540887     0.24093737
 H     21  19  18     2.348732150427   113.43346611   302.25771238
 H     22  21  19     2.041515049525   123.86274534   176.48594921
 H     24  22  21     2.039765594747   127.90519360   178.15404318
 H      2   1   3     2.041579268127   124.20784197   121.16383290
 H      3   2   1     2.039849627421   126.76548818   121.95306944
 H      6   4   1     2.042621599676   125.39772963   244.39906364
 O     25  21  19     2.726604845019   175.48238387   354.16489730
 O      1   2   3     3.886284590630   145.80611113   347.22623768
 C     31  25  21     2.339467463583   108.16682028   104.26277388
 C     33  31  25     2.838287464562   119.81866526   178.16607101
 H     34  33  31     2.053989641675   110.77057996    29.55051040
 H     34  33  31     2.062643699596   108.81278835   271.50218304
 H     34  33  31     2.054458398253   111.67126059   152.76745077
 H      4   1   2     2.039163129085   125.95947331   158.59027047
 H      5   2   1     2.041300645884   125.72847441   241.24351279

---------------------
BASIS SET INFORMATION
---------------------
There are 6 groups of distinct atoms

 Group   1 Type Ir  : 7s6p5d1f contracted to 6s3p2d1f pattern {211111/411/41/1}
 Group   2 Type C   : 8s4p1d contracted to 4s2p1d pattern {5111/31/1}
 Group   3 Type N   : 8s4p1d contracted to 4s2p1d pattern {5111/31/1}
 Group   4 Type H   : 4s contracted to 2s pattern {31}
 Group   5 Type S   : 10s7p1d contracted to 4s3p1d pattern {5311/511/1}
 Group   6 Type O   : 8s4p1d contracted to 4s2p1d pattern {5111/31/1}

Atom   0Ir   basis set group =>   1
Atom   1C    basis set group =>   2
Atom   2C    basis set group =>   2
Atom   3C    basis set group =>   2
Atom   4C    basis set group =>   2
Atom   5C    basis set group =>   2
Atom   6N    basis set group =>   3
Atom   7C    basis set group =>   2
Atom   8C    basis set group =>   2
Atom   9H    basis set group =>   4
Atom  10H    basis set group =>   4
Atom  11H    basis set group =>   4
Atom  12C    basis set group =>   2
Atom  13H    basis set group =>   4
Atom  14H    basis set group =>   4
Atom  15H    basis set group =>   4
Atom  16H    basis set group =>   4
Atom  17C    basis set group =>   2
Atom  18C    basis set group =>   2
Atom  19H    basis set group =>   4
Atom  20C    basis set group =>   2
Atom  21C    basis set group =>   2
Atom  22S    basis set group =>   5
Atom  23C    basis set group =>   2
Atom  24H    basis set group =>   4
Atom  25H    basis set group =>   4
Atom  26H    basis set group =>   4
Atom  27H    basis set group =>   4
Atom  28H    basis set group =>   4
Atom  29H    basis set group =>   4
Atom  30O    basis set group =>   6
Atom  31O    basis set group =>   6
Atom  32C    basis set group =>   2
Atom  33C    basis set group =>   2
Atom  34H    basis set group =>   4
Atom  35H    basis set group =>   4
Atom  36H    basis set group =>   4
Atom  37H    basis set group =>   4
Atom  38H    basis set group =>   4
---------------------------------
AUXILIARY/J BASIS SET INFORMATION
---------------------------------
There are 6 groups of distinct atoms

 Group   1 Type Ir  : 11s5p5d3f3g contracted to 8s5p5d2f3g pattern {41111111/11111/11111/21/111}
 Group   2 Type C   : 12s5p4d2f1g contracted to 6s4p3d1f1g pattern {711111/2111/211/2/1}
 Group   3 Type N   : 12s5p4d2f1g contracted to 6s4p3d1f1g pattern {711111/2111/211/2/1}
 Group   4 Type H   : 5s2p1d contracted to 3s1p1d pattern {311/2/1}
 Group   5 Type S   : 14s5p5d2f1g contracted to 8s4p3d1f1g pattern {71111111/2111/311/2/1}
 Group   6 Type O   : 12s5p4d2f1g contracted to 6s4p3d1f1g pattern {711111/2111/211/2/1}

Atom   0Ir   basis set group =>   1
Atom   1C    basis set group =>   2
Atom   2C    basis set group =>   2
Atom   3C    basis set group =>   2
Atom   4C    basis set group =>   2
Atom   5C    basis set group =>   2
Atom   6N    basis set group =>   3
Atom   7C    basis set group =>   2
Atom   8C    basis set group =>   2
Atom   9H    basis set group =>   4
Atom  10H    basis set group =>   4
Atom  11H    basis set group =>   4
Atom  12C    basis set group =>   2
Atom  13H    basis set group =>   4
Atom  14H    basis set group =>   4
Atom  15H    basis set group =>   4
Atom  16H    basis set group =>   4
Atom  17C    basis set group =>   2
Atom  18C    basis set group =>   2
Atom  19H    basis set group =>   4
Atom  20C    basis set group =>   2
Atom  21C    basis set group =>   2
Atom  22S    basis set group =>   5
Atom  23C    basis set group =>   2
Atom  24H    basis set group =>   4
Atom  25H    basis set group =>   4
Atom  26H    basis set group =>   4
Atom  27H    basis set group =>   4
Atom  28H    basis set group =>   4
Atom  29H    basis set group =>   4
Atom  30O    basis set group =>   6
Atom  31O    basis set group =>   6
Atom  32C    basis set group =>   2
Atom  33C    basis set group =>   2
Atom  34H    basis set group =>   4
Atom  35H    basis set group =>   4
Atom  36H    basis set group =>   4
Atom  37H    basis set group =>   4
Atom  38H    basis set group =>   4
-------------------------
ECP PARAMETER INFORMATION
-------------------------

 Group 1, Type Ir ECP Def2-ECP (replacing 60 core electrons, lmax=3)

Atom   0Ir   ECP group =>   1

------------------------------------------------------------------------------
                           ORCA GTO INTEGRAL CALCULATION
                           -- RI-GTO INTEGRALS CHOSEN --
------------------------------------------------------------------------------
------------------------------------------------------------------------------
                   ___                                                        
                  /   \      - P O W E R E D   B Y -                         
                 /     \                                                     
                 |  |  |   _    _      __       _____    __    __             
                 |  |  |  | |  | |    /  \     |  _  \  |  |  /  |          
                  \  \/   | |  | |   /    \    | | | |  |  | /  /          
                 / \  \   | |__| |  /  /\  \   | |_| |  |  |/  /          
                |  |  |   |  __  | /  /__\  \  |    /   |      \           
                |  |  |   | |  | | |   __   |  |    \   |  |\   \          
                \     /   | |  | | |  |  |  |  | |\  \  |  | \   \       
                 \___/    |_|  |_| |__|  |__|  |_| \__\ |__|  \__/        
                                                                              
                      - O R C A' S   B I G   F R I E N D -                    
                                      &                                       
                       - I N T E G R A L  F E E D E R -                       
                                                                              
 v1 FN, 2020, v2 2021                                                         
------------------------------------------------------------------------------


Reading SHARK input file reaction4-IEIP_ts_guess_scan_11-5_orca.SHARKINP.tmp ... ok
----------------------
SHARK INTEGRAL PACKAGE
----------------------

Number of atoms                             ...     39
Number of basis functions                   ...    358
Number of shells                            ...    184
Maximum angular momentum                    ...      3
Integral batch strategy                     ... SHARK/LIBINT Hybrid
RI-J (if used) integral strategy            ... SPLIT-RIJ (Revised 2003 algorithm where possible)
Printlevel                                  ...      1
Contraction scheme used                     ... SEGMENTED contraction
Coulomb Range Separation                    ... NOT USED
Exchange Range Separation                   ... NOT USED
Finite Nucleus Model                        ... NOT USED
Auxiliary Coulomb fitting basis             ... AVAILABLE
   # of basis functions in Aux-J            ...   1231
   # of shells in Aux-J                     ...    405
   Maximum angular momentum in Aux-J        ...      4
Auxiliary J/K fitting basis                 ... NOT available
Auxiliary Correlation fitting basis         ... NOT available
Auxiliary 'external' fitting basis          ... NOT available
Integral threshold                          ...     2.500000e-11
Primitive cut-off                           ...     2.500000e-12
Primitive pair pre-selection threshold      ...     2.500000e-12

Calculating pre-screening integrals         ... done (  0.1 sec) Dimension = 184
Organizing shell pair data                  ... done (  0.1 sec)
Shell pair information
Total number of shell pairs                 ...     17020
Shell pairs after pre-screening             ...     12997
Total number of primitive shell pairs       ...     60705
Primitive shell pairs kept                  ...     29232
          la=0 lb=0:   4980 shell pairs
          la=1 lb=0:   4263 shell pairs
          la=1 lb=1:    859 shell pairs
          la=2 lb=0:   1754 shell pairs
          la=2 lb=1:    789 shell pairs
          la=2 lb=2:    177 shell pairs
          la=3 lb=0:    112 shell pairs
          la=3 lb=1:     41 shell pairs
          la=3 lb=2:     21 shell pairs
          la=3 lb=3:      1 shell pairs

Calculating one electron integrals          ... done (  0.1 sec)
Calculating ECP integrals                   ... done (  0.7 sec)
Calculating RI/J V-Matrix + Cholesky decomp.... done (  0.1 sec)
Calculating Nuclear repulsion               ... done (  0.0 sec) ENN=   2040.108133744564 Eh

SHARK setup successfully completed in   1.3 seconds

Maximum memory used throughout the entire GTOINT-calculation: 90.9 MB
-------------------------------------------------------------------------------
                                 ORCA SCF
-------------------------------------------------------------------------------

------------
SCF SETTINGS
------------
Hamiltonian:
 Density Functional     Method          .... DFT(GTOs)
 Exchange Functional    Exchange        .... PBE
   PBE kappa parameter   XKappa         ....  1.024500
   PBE mue parameter    XMuePBE         ....  0.123457
 Correlation Functional Correlation     .... PBE
   PBE beta parameter  CBetaPBE         ....  0.030000
 LDA part of GGA corr.  LDAOpt          .... PW91-LDA
 Gradients option       PostSCFGGA      .... off
 Hybrid DFT is turned on
   Fraction HF Exchange ScalHFX         ....  0.420000
   Scaling of DF-GGA-X  ScalDFX         ....  0.580000
   Scaling of DF-GGA-C  ScalDFC         ....  1.000000
   Scaling of DF-LDA-C  ScalLDAC        ....  1.000000
   Perturbative correction              ....  0.000000
   Density functional embedding theory  .... OFF
 RI-approximation to the Coulomb term is turned on
   Number of AuxJ basis functions       .... 1231
   RIJ-ON(X) (HFX calculated with O(N)) .... on
   Number of AuxJ basis functions       .... 1231
   RIJ-COSX (HFX calculated with COS-X)).... on


General Settings:
 Integral files         IntName         .... reaction4-IEIP_ts_guess_scan_11-5_orca
 Hartree-Fock type      HFTyp           .... RHF
 Total Charge           Charge          ....    1
 Multiplicity           Mult            ....    1
 Number of Electrons    NEL             ....  164
 Basis Dimension        Dim             ....  358
 Nuclear Repulsion      ENuc            ....   2040.1081337446 Eh

Convergence Acceleration:
 DIIS                   CNVDIIS         .... on
   Start iteration      DIISMaxIt       ....    12
   Startup error        DIISStart       ....  0.200000
   # of expansion vecs  DIISMaxEq       ....     5
   Bias factor          DIISBfac        ....   1.050
   Max. coefficient     DIISMaxC        ....  10.000
 Trust-Rad. Augm. Hess. CNVTRAH         .... auto
   Auto Start mean grad. ratio tolernc. ....  1.125000
   Auto Start start iteration           ....    20
   Auto Start num. interpolation iter.  ....    10
   Max. Number of Micro iterations      ....    16
   Max. Number of Macro iterations      .... Maxiter - #DIIS iter
   Number of Davidson start vectors     ....     2
   Converg. threshold I  (grad. norm)   ....   1.000e-05
   Converg. threshold II (energy diff.) ....   1.000e-08
   Grad. Scal. Fac. for Micro threshold ....   0.100
   Minimum threshold for Micro iter.    ....   0.010
   NR start threshold (gradient norm)   ....   0.001
   Initial trust radius                 ....   0.400
   Minimum AH scaling param. (alpha)    ....   1.000
   Maximum AH scaling param. (alpha)    .... 1000.000
   Orbital update algorithm             .... Taylor
   White noise on init. David. guess    .... on
   Maximum white noise                  ....   0.010
   Quad. conv. algorithm                .... NR
   COSX micro iterations for RIJONX calc.... off
 SOSCF                  CNVSOSCF        .... off
 Level Shifting         CNVShift        .... on
   Level shift para.    LevelShift      ....    0.2500
   Turn off err/grad.   ShiftErr        ....    0.0010
 Zerner damping         CNVZerner       .... off
 Static damping         CNVDamp         .... on
   Fraction old density DampFac         ....    0.7000
   Max. Damping (<1)    DampMax         ....    0.9800
   Min. Damping (>=0)   DampMin         ....    0.0000
   Turn off err/grad.   DampErr         ....    0.1000
 Fernandez-Rico         CNVRico         .... off

SCF Procedure:
 Maximum # iterations   MaxIter         ....   250
 SCF integral mode      SCFMode         .... Direct
   Integral package                     .... SHARK and LIBINT hybrid scheme
 Reset frequency        DirectResetFreq ....    20
 Integral Threshold     Thresh          ....  2.500e-11 Eh
 Primitive CutOff       TCut            ....  2.500e-12 Eh

Convergence Tolerance:
 Convergence Check Mode ConvCheckMode   .... Total+1el-Energy
 Convergence forced     ConvForced      .... 0
 Energy Change          TolE            ....  1.000e-08 Eh
 1-El. energy change                    ....  1.000e-05 Eh
 DIIS Error             TolErr          ....  5.000e-07


Diagonalization of the overlap matrix:
Smallest eigenvalue                        ... 1.206e-03
Time for diagonalization                   ...    0.035 sec
Threshold for overlap eigenvalues          ... 1.000e-08
Number of eigenvalues below threshold      ... 0
Time for construction of square roots      ...    0.011 sec
Total time needed                          ...    0.048 sec

--------------------
INITIAL GUESS: HCORE
--------------------
                      -----------------
                      INTIAL GUESS DONE 
                      -----------------
-------------------
DFT GRID GENERATION
-------------------

General Integration Accuracy     IntAcc      ... 4.159
Radial Grid Type                 RadialGrid  ... OptM3 with GC (2021)
Angular Grid (max. ang.)         AngularGrid ... 3 (Lebedev-194)
Angular grid pruning method      GridPruning ... 4 (adaptive)
Weight generation scheme         WeightScheme... Becke
Basis function cutoff            BFCut       ... 1.0000e-11
Integration weight cutoff        WCut        ... 1.0000e-14
Angular grids for H and He will be reduced by one unit
Partially contracted basis set               ... off
Rotationally invariant grid construction     ... off

Total number of grid points                  ...    93261
Total number of batches                      ...     1480
Average number of points per batch           ...       63
Average number of grid points per atom       ...     2391
Time for grid setup =    1.675 sec

--------------------
COSX GRID GENERATION
--------------------

GRIDX 1
-------
General Integration Accuracy     IntAcc      ... 3.816
Radial Grid Type                 RadialGrid  ... OptM3 with GC (2021)
Angular Grid (max. ang.)         AngularGrid ... 1 (Lebedev-50)
Angular grid pruning method      GridPruning ... 4 (adaptive)
Weight generation scheme         WeightScheme... Becke
Basis function cutoff            BFCut       ... 1.0000e-11
Integration weight cutoff        WCut        ... 1.0000e-14
Angular grids for H and He will be reduced by one unit
Partially contracted basis set               ... on
Rotationally invariant grid construction     ... off

Total number of grid points                  ...    23188
Total number of batches                      ...      382
Average number of points per batch           ...       60
Average number of grid points per atom       ...      595
UseSFitting                                  ... on

GRIDX 2
-------
General Integration Accuracy     IntAcc      ... 4.020
Radial Grid Type                 RadialGrid  ... OptM3 with GC (2021)
Angular Grid (max. ang.)         AngularGrid ... 2 (Lebedev-110)
Angular grid pruning method      GridPruning ... 4 (adaptive)
Weight generation scheme         WeightScheme... Becke
Basis function cutoff            BFCut       ... 1.0000e-11
Integration weight cutoff        WCut        ... 1.0000e-14
Angular grids for H and He will be reduced by one unit
Partially contracted basis set               ... on
Rotationally invariant grid construction     ... off

Total number of grid points                  ...    50306
Total number of batches                      ...      807
Average number of points per batch           ...       62
Average number of grid points per atom       ...     1290
UseSFitting                                  ... on

GRIDX 3
-------
General Integration Accuracy     IntAcc      ... 4.338
Radial Grid Type                 RadialGrid  ... OptM3 with GC (2021)
Angular Grid (max. ang.)         AngularGrid ... 3 (Lebedev-194)
Angular grid pruning method      GridPruning ... 4 (adaptive)
Weight generation scheme         WeightScheme... Becke
Basis function cutoff            BFCut       ... 1.0000e-11
Integration weight cutoff        WCut        ... 1.0000e-14
Angular grids for H and He will be reduced by one unit
Partially contracted basis set               ... on
Rotationally invariant grid construction     ... off

Total number of grid points                  ...   108768
Total number of batches                      ...     1719
Average number of points per batch           ...       63
Average number of grid points per atom       ...     2789
UseSFitting                                  ... on

Time for X-Grid setup             =    4.226 sec

--------------
SCF ITERATIONS
--------------
ITER       Energy         Delta-E        Max-DP      RMS-DP      [F,P]     Damp
               ***  Starting incremental Fock matrix formation  ***
  0   -846.2321668935   0.00000000000021.03555608  0.14811877  3.2422268 0.7000
  1  -1091.1394687886-244.90730189506410.11920407  0.13765415  1.4750664 0.7000
  2  -1162.2100396829 -71.070570894313 5.54324051  0.07174446  1.0606442 0.7000
  3  -1187.6119746257 -25.401934942845 3.84399312  0.04799410  0.7701324 0.7000
  4  -1207.7808986857 -20.168924059989 2.71512418  0.03893487  0.4705390 0.7000
  5  -1222.0399590769 -14.259060391207 2.52533780  0.03280648  0.3647093 0.7000
  6  -1232.2947146956 -10.254755618614 1.79626804  0.02912485  0.3163233 0.7000
  7  -1241.0258033961  -8.731088700495 1.66684346  0.02554739  0.2954393 0.7000
  8  -1247.5584566371  -6.532653241049 1.55816936  0.02656858  0.3166408 0.7000
  9  -1251.5444492395  -3.985992602426 1.50800364  0.02404034  0.2906218 0.7000
 10  -1256.3197091274  -4.775259887826 1.44191021  0.02387730  0.2896471 0.7000
 11  -1257.4155964647  -1.095887337386 1.45321562  0.02236159  0.3115912 0.7000
                               ***Turning on DIIS***
 12  -1260.0259838083  -2.610387343563 1.38929243  0.02264413  0.3172566 0.7000
 13  -1260.2282263450  -0.202242536650 1.26910786  0.01890720  0.3208693 0.7000
 14  -1267.9289208472  -7.700694502260 0.88622370  0.01346970  0.2547284 0.7000
 15  -1274.3311726986  -6.402251851402 0.62220648  0.00951711  0.2018676 0.7000
 16  -1278.8109740675  -4.479801368844 0.43873469  0.00671998  0.1481660 0.7000
 17  -1281.8464976699  -3.035523602398 0.31060774  0.00475013  0.1038405 0.7000
 18  -1283.9078336953  -2.061336025433 0.72075755  0.01117505  0.0672550 0.0000
 19  -1288.4369091589  -4.529075463612 0.02908717  0.00042778  0.0243740 0.0000
               *** Restarting incremental Fock matrix formation ***
                                   *** Resetting DIIS ***
 20  -1288.4455401834  -0.008631024509 0.02984253  0.00051840  0.0109177 0.0000
 21  -1288.4476886739  -0.002148490527 0.01420511  0.00017205  0.0127791 0.0000
 22  -1288.4492327759  -0.001544101953 0.00549905  0.00007338  0.0025303 0.0000
 23  -1288.4493860683  -0.000153292368 0.00441491  0.00004338  0.0029166 0.0000
 24  -1288.4494424547  -0.000056386437 0.00417712  0.00004065  0.0008574 0.0000
               *** Restarting incremental Fock matrix formation ***
                                   *** Resetting DIIS ***
 25  -1288.4500509406  -0.000608485868 0.00608005  0.00009918  0.0007574 0.0000
 26  -1288.4500675260  -0.000016585396 0.00128149  0.00001789  0.0009960 0.0000
 27  -1288.4500696176  -0.000002091687 0.00114808  0.00001195  0.0007701 0.0000
 28  -1288.4500731790  -0.000003561354 0.00056633  0.00000425  0.0003140 0.0000
 29  -1288.4500736191  -0.000000440146 0.00029709  0.00000220  0.0001279 0.0000
 30  -1288.4500737377  -0.000000118576 0.00009215  0.00000096  0.0000334 0.0000
 31  -1288.4500737604  -0.000000022713 0.00006763  0.00000068  0.0000198 0.0000
                 **** Energy Check signals convergence ****

               *****************************************************
               *                     SUCCESS                       *
               *           SCF CONVERGED AFTER  32 CYCLES          *
               *****************************************************

Old exchange energy                            =    -59.654271460 Eh
New exchange energy                            =    -59.654299121 Eh
Exchange energy change after final integration =     -0.000027660 Eh
Total energy after final integration           =  -1288.450101423 Eh
Final COS-X integration done in                =    57.512 sec

----------------
TOTAL SCF ENERGY
----------------

Total Energy       :        -1288.45010142 Eh          -35060.50970 eV

Components:
Nuclear Repulsion  :         2040.10813374 Eh           55514.16460 eV
Electronic Energy  :        -3328.55823517 Eh          -90574.67431 eV
One Electron Energy:        -5835.74570192 Eh         -158798.71372 eV
Two Electron Energy:         2507.18746675 Eh           68224.03941 eV
Max COSX asymmetry :            0.00002066 Eh               0.00056 eV

Virial components:
Potential Energy   :        -2501.55849317 Eh          -68070.86726 eV
Kinetic Energy     :         1213.10839175 Eh           33010.35755 eV
Virial Ratio       :            2.06210633


DFT components:
N(Alpha)           :       82.000106933898 electrons
N(Beta)            :       82.000106933898 electrons
N(Total)           :      164.000213867796 electrons
E(X)               :      -79.595875079148 Eh       
E(C)               :       -7.460225459537 Eh       
E(XC)              :      -87.056100538685 Eh       
DFET-embed. en.    :        0.000000000000 Eh       

---------------
SCF CONVERGENCE
---------------

  Last Energy change         ...   -2.2367e-09  Tolerance :   1.0000e-08
  Last MAX-Density change    ...    0.0000e+00  Tolerance :   1.0000e-07
  Last RMS-Density change    ...    0.0000e+00  Tolerance :   5.0000e-09
  Last DIIS Error            ...    8.5757e-06  Tolerance :   5.0000e-07

             **** THE GBW FILE WAS UPDATED (reaction4-IEIP_ts_guess_scan_11-5_orca.gbw) ****
             **** DENSITY reaction4-IEIP_ts_guess_scan_11-5_orca.scfp WAS UPDATED ****
             **** ENERGY FILE WAS UPDATED (reaction4-IEIP_ts_guess_scan_11-5_orca.en.tmp) ****
             **** THE GBW FILE WAS UPDATED (reaction4-IEIP_ts_guess_scan_11-5_orca.gbw) ****
             **** DENSITY reaction4-IEIP_ts_guess_scan_11-5_orca.scfp WAS UPDATED ****
----------------
ORBITAL ENERGIES
----------------

  NO   OCC          E(Eh)            E(eV) 
   0   2.0000     -89.766480     -2442.6701 
   1   2.0000     -19.629364      -534.1422 
   2   2.0000     -19.608584      -533.5767 
   3   2.0000     -14.836640      -403.7255 
   4   2.0000     -10.689163      -290.8669 
   5   2.0000     -10.656525      -289.9788 
   6   2.0000     -10.629544      -289.2446 
   7   2.0000     -10.628343      -289.2119 
   8   2.0000     -10.626979      -289.1748 
   9   2.0000     -10.625168      -289.1255 
  10   2.0000     -10.618583      -288.9463 
  11   2.0000     -10.617134      -288.9069 
  12   2.0000     -10.613695      -288.8133 
  13   2.0000     -10.611604      -288.7564 
  14   2.0000     -10.590249      -288.1753 
  15   2.0000     -10.588835      -288.1368 
  16   2.0000     -10.554657      -287.2068 
  17   2.0000     -10.551174      -287.1120 
  18   2.0000     -10.539725      -286.8005 
  19   2.0000      -8.405907      -228.7364 
  20   2.0000      -6.295781      -171.3169 
  21   2.0000      -6.292200      -171.2195 
  22   2.0000      -6.290907      -171.1843 
  23   2.0000      -4.023499      -109.4850 
  24   2.0000      -2.341245       -63.7085 
  25   2.0000      -2.309444       -62.8432 
  26   2.0000      -2.307006       -62.7768 
  27   2.0000      -1.316836       -35.8329 
  28   2.0000      -1.218350       -33.1530 
  29   2.0000      -1.211899       -32.9774 
  30   2.0000      -1.163587       -31.6628 
  31   2.0000      -1.129943       -30.7473 
  32   2.0000      -1.026791       -27.9404 
  33   2.0000      -0.976655       -26.5761 
  34   2.0000      -0.971931       -26.4476 
  35   2.0000      -0.969523       -26.3821 
  36   2.0000      -0.961323       -26.1589 
  37   2.0000      -0.933901       -25.4127 
  38   2.0000      -0.901202       -24.5230 
  39   2.0000      -0.874341       -23.7920 
  40   2.0000      -0.800749       -21.7895 
  41   2.0000      -0.784267       -21.3410 
  42   2.0000      -0.779692       -21.2165 
  43   2.0000      -0.779187       -21.2028 
  44   2.0000      -0.764480       -20.8025 
  45   2.0000      -0.758154       -20.6304 
  46   2.0000      -0.744402       -20.2562 
  47   2.0000      -0.724435       -19.7129 
  48   2.0000      -0.691356       -18.8127 
  49   2.0000      -0.682277       -18.5657 
  50   2.0000      -0.664441       -18.0804 
  51   2.0000      -0.654373       -17.8064 
  52   2.0000      -0.647693       -17.6246 
  53   2.0000      -0.636597       -17.3227 
  54   2.0000      -0.633658       -17.2427 
  55   2.0000      -0.630038       -17.1442 
  56   2.0000      -0.622510       -16.9394 
  57   2.0000      -0.612814       -16.6755 
  58   2.0000      -0.601122       -16.3574 
  59   2.0000      -0.599923       -16.3247 
  60   2.0000      -0.599257       -16.3066 
  61   2.0000      -0.592303       -16.1174 
  62   2.0000      -0.581401       -15.8207 
  63   2.0000      -0.572711       -15.5843 
  64   2.0000      -0.563673       -15.3383 
  65   2.0000      -0.562564       -15.3082 
  66   2.0000      -0.552743       -15.0409 
  67   2.0000      -0.547875       -14.9084 
  68   2.0000      -0.542360       -14.7584 
  69   2.0000      -0.536548       -14.6002 
  70   2.0000      -0.529944       -14.4205 
  71   2.0000      -0.519036       -14.1237 
  72   2.0000      -0.514296       -13.9947 
  73   2.0000      -0.499808       -13.6005 
  74   2.0000      -0.492187       -13.3931 
  75   2.0000      -0.485274       -13.2050 
  76   2.0000      -0.479220       -13.0402 
  77   2.0000      -0.448387       -12.2012 
  78   2.0000      -0.444644       -12.0994 
  79   2.0000      -0.421084       -11.4583 
  80   2.0000      -0.416085       -11.3223 
  81   2.0000      -0.395646       -10.7661 
  82   0.0000      -0.206590        -5.6216 
  83   0.0000      -0.143194        -3.8965 
  84   0.0000      -0.136849        -3.7239 
  85   0.0000      -0.089581        -2.4376 
  86   0.0000      -0.075772        -2.0619 
  87   0.0000      -0.065390        -1.7793 
  88   0.0000      -0.059885        -1.6295 
  89   0.0000      -0.054375        -1.4796 
  90   0.0000      -0.046439        -1.2637 
  91   0.0000      -0.030207        -0.8220 
  92   0.0000      -0.005164        -0.1405 
  93   0.0000      -0.001936        -0.0527 
  94   0.0000       0.013549         0.3687 
[...]

----------------------
LOEWDIN ATOMIC CHARGES
----------------------
   0 Ir:   -0.255875
   1 C :   -0.055811
   2 C :   -0.094077
   3 C :   -0.091581
   4 C :   -0.043878
   5 C :   -0.015664
   6 N :   -0.000469
   7 C :   -0.069635
   8 C :   -0.362490
   9 H :    0.156551
  10 H :    0.132774
  11 H :    0.144103
  12 C :   -0.343614
  13 H :    0.156039
  14 H :    0.151237
  15 H :    0.137775
  16 H :    0.133253
  17 C :    0.028268
  18 C :   -0.181219
  19 H :    0.161132
  20 C :   -0.218636
  21 C :   -0.122049
  22 S :    0.500477
  23 C :   -0.259378
  24 H :    0.343577
  25 H :    0.163222
  26 H :    0.169673
  27 H :    0.182203
  28 H :    0.180189
  29 H :    0.189222
  30 O :   -0.264226
  31 O :   -0.191179
  32 C :    0.158696
  33 C :   -0.372965
  34 H :    0.163094
  35 H :    0.170678
  36 H :    0.154103
  37 H :    0.182244
  38 H :    0.184233

-------------------------------
LOEWDIN REDUCED ORBITAL CHARGES
-------------------------------
  0 Irs       :     2.447407  s :     2.447407
      pz      :     2.254099  p :     6.774730
      px      :     2.253280
      py      :     2.267352
      dz2     :     1.757660  d :     7.943792
      dxz     :     1.664392
      dyz     :     1.397383
      dx2y2   :     1.606591
      dxy     :     1.517766
      f0      :     0.010889  f :     0.089946
      f+1     :     0.005238
      f-1     :     0.015590
      f+2     :     0.014688
      f-2     :     0.016464
      f+3     :     0.010861
      f-3     :     0.016217
  1 C s       :     2.874202  s :     2.874202
      pz      :     1.052314  p :     3.078354
      px      :     1.077436
      py      :     0.948604
      dz2     :     0.025867  d :     0.103254
      dxz     :     0.025755
      dyz     :     0.016565
      dx2y2   :     0.018873
      dxy     :     0.016194
  2 C s       :     2.875261  s :     2.875261
      pz      :     1.038601  p :     3.120018
      px      :     1.087333
      py      :     0.994085
      dz2     :     0.024265  d :     0.098798
      dxz     :     0.028043
      dyz     :     0.016408
      dx2y2   :     0.017355
      dxy     :     0.012727
  3 C s       :     2.871310  s :     2.871310
      pz      :     1.029389  p :     3.121040
      px      :     1.083372
      py      :     1.008278
      dz2     :     0.022366  d :     0.099231
      dxz     :     0.031310
      dyz     :     0.015352
      dx2y2   :     0.016207
      dxy     :     0.013996
  4 C s       :     2.874745  s :     2.874745
      pz      :     1.082382  p :     3.065408
      px      :     1.043027
      py      :     0.940000
      dz2     :     0.022732  d :     0.103725
      dxz     :     0.029421
      dyz     :     0.013238
      dx2y2   :     0.019381
      dxy     :     0.018953
  5 C s       :     2.880148  s :     2.880148
      pz      :     1.050130  p :     3.030983
      px      :     1.040815
      py      :     0.940038
      dz2     :     0.022078  d :     0.104534
      dxz     :     0.031168
      dyz     :     0.015924
      dx2y2   :     0.015859
      dxy     :     0.019505
  6 N s       :     3.123538  s :     3.123538
      pz      :     1.251062  p :     3.778446
      px      :     1.288710
      py      :     1.238674
      dz2     :     0.030343  d :     0.098485
      dxz     :     0.027270
      dyz     :     0.018537
      dx2y2   :     0.012298
      dxy     :     0.010037
  7 C s       :     2.862471  s :     2.862471
      pz      :     1.057766  p :     3.072734
      px      :     0.938508
      py      :     1.076460
      dz2     :     0.027540  d :     0.134431
      dxz     :     0.029152
      dyz     :     0.014194
      dx2y2   :     0.030455
      dxy     :     0.033089
  8 C s       :     2.953508  s :     2.953508
      pz      :     1.137216  p :     3.341524
      px      :     1.123367
      py      :     1.080942
      dz2     :     0.014453  d :     0.067457
      dxz     :     0.017506
      dyz     :     0.006156
      dx2y2   :     0.010480
      dxy     :     0.018863
  9 H s       :     0.843449  s :     0.843449
 10 H s       :     0.867226  s :     0.867226
 11 H s       :     0.855897  s :     0.855897
 12 C s       :     2.953486  s :     2.953486
      pz      :     1.144776  p :     3.322189
      px      :     1.109466
      py      :     1.067946
      dz2     :     0.014023  d :     0.067939
      dxz     :     0.014032
      dyz     :     0.009523
      dx2y2   :     0.012213
      dxy     :     0.018148
 13 H s       :     0.843961  s :     0.843961
 14 H s       :     0.848763  s :     0.848763
 15 H s       :     0.862225  s :     0.862225
 16 H s       :     0.866747  s :     0.866747
 17 C s       :     2.876035  s :     2.876035
      pz      :     1.008642  p :     2.955660
      px      :     1.061689
      py      :     0.885329
      dz2     :     0.038874  d :     0.140037
      dxz     :     0.048118
      dyz     :     0.026325
      dx2y2   :     0.012562
      dxy     :     0.014157
 18 C s       :     2.891968  s :     2.891968
      pz      :     1.051564  p :     3.176582
      px      :     1.088199
      py      :     1.036819
      dz2     :     0.033688  d :     0.112669
      dxz     :     0.033813
      dyz     :     0.017791
      dx2y2   :     0.015666
      dxy     :     0.011711
 19 H s       :     0.838868  s :     0.838868
 20 C s       :     2.893105  s :     2.893105
      pz      :     1.137663  p :     3.225650
      px      :     1.059469
      py      :     1.028518
      dz2     :     0.014032  d :     0.099881
      dxz     :     0.038034
      dyz     :     0.013517
      dx2y2   :     0.018209
      dxy     :     0.016089
 21 C s       :     2.896666  s :     2.896666
      pz      :     1.079476  p :     3.130954
      px      :     1.084794
      py      :     0.966685
      dz2     :     0.028606  d :     0.094428
      dxz     :     0.031976
      dyz     :     0.014523
      dx2y2   :     0.012376
      dxy     :     0.006947
 22 S s       :     5.498687  s :     5.498687
      pz      :     3.257713  p :     9.845110
      px      :     3.085492
      py      :     3.501904
      dz2     :     0.049192  d :     0.155725
      dxz     :     0.035321
      dyz     :     0.017811
      dx2y2   :     0.027600
      dxy     :     0.025801
 23 C s       :     2.963861  s :     2.963861
      pz      :     1.120825  p :     3.209947
      px      :     1.026133
      py      :     1.062989
      dz2     :     0.023947  d :     0.085570
      dxz     :     0.030657
      dyz     :     0.011671
      dx2y2   :     0.010991
      dxy     :     0.008304
 24 H s       :     0.656423  s :     0.656423
 25 H s       :     0.836778  s :     0.836778
 26 H s       :     0.830327  s :     0.830327
 27 H s       :     0.817797  s :     0.817797
 28 H s       :     0.819811  s :     0.819811
 29 H s       :     0.810778  s :     0.810778
 30 O s       :     3.514786  s :     3.514786
      pz      :     1.458505  p :     4.694940
      px      :     1.556081
      py      :     1.680354
      dz2     :     0.015635  d :     0.054500
      dxz     :     0.015642
      dyz     :     0.013451
      dx2y2   :     0.005843
      dxy     :     0.003928
 31 O s       :     3.445630  s :     3.445630
      pz      :     1.687496  p :     4.685799
      px      :     1.606130
      py      :     1.392173
      dz2     :     0.009048  d :     0.059750
      dxz     :     0.004474
      dyz     :     0.015022
      dx2y2   :     0.014547
      dxy     :     0.016659
 32 C s       :     2.813644  s :     2.813644
      pz      :     0.967259  p :     2.707991
      px      :     0.783160
      py      :     0.957571
      dz2     :     0.070472  d :     0.319670
      dxz     :     0.050152
      dyz     :     0.094690
      dx2y2   :     0.051362
      dxy     :     0.052993
 33 C s       :     2.958867  s :     2.958867
      pz      :     1.103060  p :     3.351481
      px      :     1.152713
      py      :     1.095707
      dz2     :     0.004037  d :     0.062617
      dxz     :     0.017171
      dyz     :     0.020919
      dx2y2   :     0.018231
      dxy     :     0.002259
 34 H s       :     0.836906  s :     0.836906
 35 H s       :     0.829322  s :     0.829322
 36 H s       :     0.845897  s :     0.845897
 37 H s       :     0.817756  s :     0.817756
 38 H s       :     0.815767  s :     0.815767


                      *****************************
                      * MAYER POPULATION ANALYSIS *
                      *****************************

  NA   - Mulliken gross atomic population
  ZA   - Total nuclear charge
  QA   - Mulliken gross atomic charge
  VA   - Mayer's total valence
  BVA  - Mayer's bonded valence
  FA   - Mayer's free valence

  ATOM       NA         ZA         QA         VA         BVA        FA
  0 Ir    16.3942    17.0000     0.6058     3.7590     3.7590    -0.0000
  1 C      6.2368     6.0000    -0.2368     3.7218     3.7218     0.0000
  2 C      6.2629     6.0000    -0.2629     3.7332     3.7332     0.0000
  3 C      6.2668     6.0000    -0.2668     3.7424     3.7424     0.0000
  4 C      6.2275     6.0000    -0.2275     3.7159     3.7159     0.0000
  5 C      6.1540     6.0000    -0.1540     3.6983     3.6983     0.0000
  6 N      7.4305     7.0000    -0.4305     3.2157     3.2157    -0.0000
  7 C      6.1266     6.0000    -0.1266     3.7050     3.7050     0.0000
  8 C      6.6833     6.0000    -0.6833     3.6882     3.6882     0.0000
  9 H      0.7300     1.0000     0.2700     0.8973     0.8973     0.0000
 10 H      0.7758     1.0000     0.2242     0.9107     0.9107     0.0000
 11 H      0.7447     1.0000     0.2553     0.8998     0.8998    -0.0000
 12 C      6.6343     6.0000    -0.6343     3.6708     3.6708    -0.0000
 13 H      0.7182     1.0000     0.2818     0.8730     0.8730     0.0000
 14 H      0.7401     1.0000     0.2599     0.8983     0.8983     0.0000
 15 H      0.7678     1.0000     0.2322     0.9095     0.9095     0.0000
 16 H      0.7666     1.0000     0.2334     0.9060     0.9060     0.0000
 17 C      5.9301     6.0000     0.0699     3.6569     3.6569    -0.0000
 18 C      6.1257     6.0000    -0.1257     3.6983     3.6983     0.0000
 19 H      0.7132     1.0000     0.2868     0.8864     0.8864    -0.0000
 20 C      6.5637     6.0000    -0.5637     3.5506     3.5506     0.0000
 21 C      6.0962     6.0000    -0.0962     3.7456     3.7456     0.0000
 22 S     15.6573    16.0000     0.3427     2.6044     2.6044    -0.0000
 23 C      6.4294     6.0000    -0.4294     3.7523     3.7523    -0.0000
 24 H      0.5277     1.0000     0.4723     0.7507     0.7507    -0.0000
 25 H      0.7315     1.0000     0.2685     0.9016     0.9016     0.0000
 26 H      0.7011     1.0000     0.2989     0.8968     0.8968     0.0000
 27 H      0.7144     1.0000     0.2856     0.9055     0.9055     0.0000
 28 H      0.7170     1.0000     0.2830     0.9089     0.9089     0.0000
 29 H      0.7004     1.0000     0.2996     0.8947     0.8947     0.0000
 30 O      8.4735     8.0000    -0.4735     2.1480     2.1480    -0.0000
 31 O      8.5189     8.0000    -0.5189     2.1016     2.1016    -0.0000
 32 C      5.3740     6.0000     0.6260     3.9046     3.9046    -0.0000
 33 C      6.7439     6.0000    -0.7439     3.6625     3.6625    -0.0000
 34 H      0.7289     1.0000     0.2711     0.8942     0.8942     0.0000
 35 H      0.7271     1.0000     0.2729     0.8925     0.8925     0.0000
 36 H      0.7419     1.0000     0.2581     0.8988     0.8988     0.0000
 37 H      0.7168     1.0000     0.2832     0.9083     0.9083     0.0000
 38 H      0.7074     1.0000     0.2926     0.9034     0.9034     0.0000

  Mayer bond orders larger than 0.100000
B(  0-Ir,  1-C ) :   0.4340 B(  0-Ir,  2-C ) :   0.4226 B(  0-Ir,  3-C ) :   0.4664 
B(  0-Ir,  4-C ) :   0.4277 B(  0-Ir,  5-C ) :   0.3777 B(  0-Ir,  6-N ) :   0.4631 
B(  0-Ir, 20-C ) :   0.4582 B(  0-Ir, 31-O ) :   0.5380 B(  1-C ,  2-C ) :   1.1272 
B(  1-C ,  4-C ) :   1.2319 B(  1-C , 27-H ) :   0.9077 B(  2-C ,  5-C ) :   1.1984 
B(  2-C , 28-H ) :   0.9101 B(  3-C ,  4-C ) :   1.1309 B(  3-C ,  5-C ) :   1.1851 
B(  3-C , 37-H ) :   0.9124 B(  4-C , 38-H ) :   0.8995 B(  5-C , 29-H ) :   0.9005 
B(  6-N ,  7-C ) :   0.8952 B(  6-N , 17-C ) :   1.6532 B(  7-C ,  8-C ) :   0.9905 
B(  7-C , 12-C ) :   0.9661 B(  7-C , 13-H ) :   0.8749 B(  8-C ,  9-H ) :   0.9045 
B(  8-C , 10-H ) :   0.9130 B(  8-C , 11-H ) :   0.9114 B( 12-C , 14-H ) :   0.9075 
B( 12-C , 15-H ) :   0.9153 B( 12-C , 16-H ) :   0.9118 B( 17-C , 18-C ) :   1.1049 
B( 17-C , 19-H ) :   0.8761 B( 18-C , 20-C ) :   1.2253 B( 18-C , 22-S ) :   1.2529 
B( 20-C , 21-C ) :   1.2574 B( 20-C , 24-H ) :   0.3883 B( 21-C , 23-C ) :   1.5509 
B( 21-C , 25-H ) :   0.9019 B( 22-S , 23-C ) :   1.2105 B( 23-C , 26-H ) :   0.8911 
B( 24-H , 30-O ) :   0.3101 B( 30-O , 32-C ) :   1.6140 B( 31-O , 32-C ) :   1.3439 
B( 32-C , 33-C ) :   0.9436 B( 33-C , 34-H ) :   0.9017 B( 33-C , 35-H ) :   0.8951 
B( 33-C , 36-H ) :   0.9089 


------------------
HIRSHFELD ANALYSIS
------------------

Total integrated alpha density =     82.000101170
Total integrated beta density  =     82.000101170

  ATOM     CHARGE      SPIN    
   0 Ir   0.179652    0.000000
   1 C   -0.002054    0.000000
   2 C   -0.015074    0.000000
   3 C   -0.018334    0.000000
   4 C    0.001463    0.000000
   5 C    0.020218    0.000000
   6 N   -0.066065    0.000000
   7 C    0.052724    0.000000
   8 C   -0.071263    0.000000
   9 H    0.053481    0.000000
  10 H    0.037490    0.000000
  11 H    0.041603    0.000000
  12 C   -0.070963    0.000000
  13 H    0.045628    0.000000
  14 H    0.050205    0.000000
  15 H    0.037172    0.000000
  16 H    0.030564    0.000000
  17 C    0.094441    0.000000
  18 C   -0.002672    0.000000
  19 H    0.077434    0.000000
  20 C   -0.085857    0.000000
  21 C   -0.023060    0.000000
  22 S    0.146976    0.000000
  23 C   -0.025104    0.000000
  24 H    0.091737    0.000000
  25 H    0.069813    0.000000
  26 H    0.079618    0.000000
  27 H    0.080929    0.000000
  28 H    0.079437    0.000000
  29 H    0.091514    0.000000
  30 O   -0.244141    0.000000
  31 O   -0.249458    0.000000
  32 C    0.246310    0.000000
  33 C   -0.063719    0.000000
  34 H    0.057115    0.000000
  35 H    0.062652    0.000000
  36 H    0.049613    0.000000
  37 H    0.080851    0.000000
  38 H    0.078925    0.000000

  TOTAL   0.999798    0.000000

-------
TIMINGS
-------

Total SCF time: 0 days 0 hours 3 min 46 sec 

Total time                  ....     226.618 sec
Sum of individual times     ....     226.174 sec  ( 99.8%)

Fock matrix formation       ....     218.368 sec  ( 96.4%)
  Split-RI-J                ....      17.392 sec  (  8.0% of F)
  Chain of spheres X        ....     189.432 sec  ( 86.7% of F)
  XC integration            ....      11.555 sec  (  5.3% of F)
    Basis function eval.    ....       5.144 sec  ( 44.5% of XC)
    Density eval.           ....       2.966 sec  ( 25.7% of XC)
    XC-Functional eval.     ....       0.809 sec  (  7.0% of XC)
    XC-Potential eval.      ....       2.221 sec  ( 19.2% of XC)
Diagonalization             ....       0.166 sec  (  0.1%)
Density matrix formation    ....       0.028 sec  (  0.0%)
Population analysis         ....       1.152 sec  (  0.5%)
Initial guess               ....       0.027 sec  (  0.0%)
Orbital Transformation      ....       0.000 sec  (  0.0%)
Orbital Orthonormalization  ....       0.021 sec  (  0.0%)
DIIS solution               ....       0.056 sec  (  0.0%)
Grid generation             ....       6.376 sec  (  2.8%)

Maximum memory used throughout the entire SCF-calculation: 173.3 MB


-------------------------------------------------------------------------------
                          DFT DISPERSION CORRECTION                            
                                                                               
                              DFTD3 V3.1  Rev 1                                
                          USING Becke-Johnson damping                          
-------------------------------------------------------------------------------
The PBEh-3c composite method is recognized
Using three-body term ABC
Active option DFTDOPT                   ...         4   

molecular C6(AA) [au] = 19546.818820 


            DFT-D V3
 parameters
 s6 scaling factor         :     1.0000 
 a1 scaling factor         :     0.4860 
 s8 scaling factor         :     0.0000 
 a2 scaling factor         :     4.5000 
 Damping factor alpha9(ATM):    16.0000 
 ad hoc parameters k1-k3   :    16.0000     1.3333    -4.0000 

 Edisp/kcal,au: -19.305752317867  -0.030765671367 
 E6   /kcal   : -19.644355634 
 E8   /kcal   :  -0.000000000 
 E6(ABC)      :   0.338603316 
 % E8         :   0.000000000 
 % E6(ABC)    :  -1.753898581 

-------------------------   ----------------
Dispersion correction           -0.030765671
-------------------------   ----------------

 ** NOTE ** -> element ir will be treated as co
NOTIFICATION: Different basis set in ORCA and otool_gcp:
ORCA: 358  gCP: 357 
If you are NOT using ECPs, check your basis set inputs!
------------------   -----------------
gCP correction             0.080633988
------------------   -----------------

-------------------------   --------------------
FINAL SINGLE POINT ENERGY     -1288.400218593173
-------------------------   --------------------

                                *** OPTIMIZATION RUN DONE ***

                            ***************************************
                            *     ORCA property calculations      *
                            ***************************************

                                    ---------------------
                                    Active property flags
                                    ---------------------
   (+) Dipole Moment


------------------------------------------------------------------------------
                       ORCA ELECTRIC PROPERTIES CALCULATION
------------------------------------------------------------------------------

Dipole Moment Calculation                       ... on
Quadrupole Moment Calculation                   ... off
Polarizability Calculation                      ... off
GBWName                                         ... reaction4-IEIP_ts_guess_scan_11-5_orca.gbw
Electron density                                ... reaction4-IEIP_ts_guess_scan_11-5_orca.scfp
The origin for moment calculation is the CENTER OF MASS  = ( 0.872619, -0.555723 -0.183827)

-------------
DIPOLE MOMENT
-------------
                                X             Y             Z
Electronic contribution:     38.04412     -71.97034      70.55735
Nuclear contribution   :    -38.69266      71.30490     -70.92815
                        -----------------------------------------
Total Dipole Moment    :     -0.64854      -0.66544      -0.37081
                        -----------------------------------------
Magnitude (a.u.)       :      1.00046
Magnitude (Debye)      :      2.54296



--------------------
Rotational spectrum 
--------------------
 
Rotational constants in cm-1:     0.010519     0.008966     0.008237 
Rotational constants in MHz :   315.365261   268.781855   246.939608 

 Dipole components along the rotational axes: 
x,y,z [a.u.] :    -0.076045    -0.022207     0.997316 
x,y,z [Debye]:    -0.193291    -0.056445     2.534975 

 

Timings for individual modules:

Sum of individual times         ...     8003.516 sec (= 133.392 min)
GTO integral calculation        ...       26.250 sec (=   0.437 min)   0.3 %
SCF iterations                  ...     6215.921 sec (= 103.599 min)  77.7 %
SCF Gradient evaluation         ...     1756.799 sec (=  29.280 min)  22.0 %
Geometry relaxation             ...        4.547 sec (=   0.076 min)   0.1 %
                             ****ORCA TERMINATED NORMALLY****
TOTAL RUN TIME: 0 days 2 hours 13 minutes 29 seconds 630 msec
