
                                 *****************
                                 * O   R   C   A *
                                 *****************

                                            #,                                       
                                            ###                                      
                                            ####                                     
                                            #####                                    
                                            ######                                   
                                           ########,                                 
                                     ,,################,,,,,                         
                               ,,#################################,,                 
                          ,,##########################################,,             
                       ,#########################################, ''#####,          
                    ,#############################################,,   '####,        
                  ,##################################################,,,,####,       
                ,###########''''           ''''###############################       
              ,#####''   ,,,,##########,,,,          '''####'''          '####       
            ,##' ,,,,###########################,,,                        '##       
           ' ,,###''''                  '''############,,,                           
         ,,##''                                '''############,,,,        ,,,,,,###''
      ,#''                                            '''#######################'''  
     '                                                          ''''####''''         
             ,#######,   #######,   ,#######,      ##                                
            ,#'     '#,  ##    ##  ,#'     '#,    #''#        ######   ,####,        
            ##       ##  ##   ,#'  ##            #'  '#       #        #'  '#        
            ##       ##  #######   ##           ,######,      #####,   #    #        
            '#,     ,#'  ##    ##  '#,     ,#' ,#      #,         ##   #,  ,#        
             '#######'   ##     ##  '#######'  #'      '#     #####' # '####'        



                  #######################################################
                  #                        -***-                        #
                  #          Department of theory and spectroscopy      #
                  #    Directorship and core code : Frank Neese         #
                  #        Max Planck Institute fuer Kohlenforschung    #
                  #                Kaiser Wilhelm Platz 1               #
                  #                 D-45470 Muelheim/Ruhr               #
                  #                      Germany                        #
                  #                                                     #
                  #                  All rights reserved                #
                  #                        -***-                        #
                  #######################################################


                         Program Version 5.0.3 -  RELEASE  -


 With contributions from (in alphabetic order):
   Daniel Aravena         : Magnetic Suceptibility
   Michael Atanasov       : Ab Initio Ligand Field Theory (pilot matlab implementation)
   Alexander A. Auer      : GIAO ZORA, VPT2 properties, NMR spectrum
   Ute Becker             : Parallelization
   Giovanni Bistoni       : ED, misc. LED, open-shell LED, HFLD
   Martin Brehm           : Molecular dynamics
   Dmytro Bykov           : SCF Hessian
   Vijay G. Chilkuri      : MRCI spin determinant printing, contributions to CSF-ICE
   Dipayan Datta          : RHF DLPNO-CCSD density
   Achintya Kumar Dutta   : EOM-CC, STEOM-CC
   Dmitry Ganyushin       : Spin-Orbit,Spin-Spin,Magnetic field MRCI
   Miquel Garcia          : C-PCM and meta-GGA Hessian, CC/C-PCM, Gaussian charge scheme
   Yang Guo               : DLPNO-NEVPT2, F12-NEVPT2, CIM, IAO-localization
   Andreas Hansen         : Spin unrestricted coupled pair/coupled cluster methods
   Benjamin Helmich-Paris : MC-RPA, TRAH-SCF, COSX integrals
   Lee Huntington         : MR-EOM, pCC
   Robert Izsak           : Overlap fitted RIJCOSX, COSX-SCS-MP3, EOM
   Marcus Kettner         : VPT2
   Christian Kollmar      : KDIIS, OOCD, Brueckner-CCSD(T), CCSD density, CASPT2, CASPT2-K
   Simone Kossmann        : Meta GGA functionals, TD-DFT gradient, OOMP2, MP2 Hessian
   Martin Krupicka        : Initial AUTO-CI
   Lucas Lang             : DCDCAS
   Marvin Lechner         : AUTO-CI (C++ implementation), FIC-MRCC
   Dagmar Lenk            : GEPOL surface, SMD
   Dimitrios Liakos       : Extrapolation schemes; Compound Job, initial MDCI parallelization
   Dimitrios Manganas     : Further ROCIS development; embedding schemes
   Dimitrios Pantazis     : SARC Basis sets
   Anastasios Papadopoulos: AUTO-CI, single reference methods and gradients
   Taras Petrenko         : DFT Hessian,TD-DFT gradient, ASA, ECA, R-Raman, ABS, FL, XAS/XES, NRVS
   Peter Pinski           : DLPNO-MP2, DLPNO-MP2 Gradient
   Christoph Reimann      : Effective Core Potentials
   Marius Retegan         : Local ZFS, SOC
   Christoph Riplinger    : Optimizer, TS searches, QM/MM, DLPNO-CCSD(T), (RO)-DLPNO pert. Triples
   Tobias Risthaus        : Range-separated hybrids, TD-DFT gradient, RPA, STAB
   Michael Roemelt        : Original ROCIS implementation
   Masaaki Saitow         : Open-shell DLPNO-CCSD energy and density
   Barbara Sandhoefer     : DKH picture change effects
   Avijit Sen             : IP-ROCIS
   Kantharuban Sivalingam : CASSCF convergence, NEVPT2, FIC-MRCI
   Bernardo de Souza      : ESD, SOC TD-DFT
   Georgi Stoychev        : AutoAux, RI-MP2 NMR, DLPNO-MP2 response
   Willem Van den Heuvel  : Paramagnetic NMR
   Boris Wezisla          : Elementary symmetry handling
   Frank Wennmohs         : Technical directorship


 We gratefully acknowledge several colleagues who have allowed us to
 interface, adapt or use parts of their codes:
   Stefan Grimme, W. Hujo, H. Kruse, P. Pracht,  : VdW corrections, initial TS optimization,
                  C. Bannwarth, S. Ehlert          DFT functionals, gCP, sTDA/sTD-DF
   Ed Valeev, F. Pavosevic, A. Kumar             : LibInt (2-el integral package), F12 methods
   Garnet Chan, S. Sharma, J. Yang, R. Olivares  : DMRG
   Ulf Ekstrom                                   : XCFun DFT Library
   Mihaly Kallay                                 : mrcc  (arbitrary order and MRCC methods)
   Jiri Pittner, Ondrej Demel                    : Mk-CCSD
   Frank Weinhold                                : gennbo (NPA and NBO analysis)
   Christopher J. Cramer and Donald G. Truhlar   : smd solvation model
   Lars Goerigk                                  : TD-DFT with DH, B97 family of functionals
   V. Asgeirsson, H. Jonsson                     : NEB implementation
   FAccTs GmbH                                   : IRC, NEB, NEB-TS, DLPNO-Multilevel, CI-OPT
                                                   MM, QMMM, 2- and 3-layer-ONIOM, Crystal-QMMM,
                                                   LR-CPCM, SF, NACMEs, symmetry and pop. for TD-DFT,
                                                   nearIR, NL-DFT gradient (VV10), updates on ESD,
                                                   ML-optimized integration grids
   S Lehtola, MJT Oliveira, MAL Marques          : LibXC Library
   Liviu Ungur et al                             : ANISO software


 Your calculation uses the libint2 library for the computation of 2-el integrals
 For citations please refer to: http://libint.valeyev.net

 Your ORCA version has been built with support for libXC version: 5.1.0
 For citations please refer to: https://tddft.org/programs/libxc/

 This ORCA versions uses:
   CBLAS   interface :  Fast vector & matrix operations
   LAPACKE interface :  Fast linear algebra routines
   SCALAPACK package :  Parallel linear algebra routines
   Shared memory     :  Shared parallel matrices
   BLAS/LAPACK       :  OpenBLAS 0.3.15  USE64BITINT DYNAMIC_ARCH NO_AFFINITY SkylakeX SINGLE_THREADED
        Core in use  :  SkylakeX
   Copyright (c) 2011-2014, The OpenBLAS Project


Your calculation utilizes the geometrical counterpoise correction gCP
Please cite in your paper:
H.Kruse, S. Grimme J.Chem.Phys., 136, (2012), 154101 
   

Your calculation utilizes the atom-pairwise dispersion correction
with the Becke-Johnson damping scheme (D3BJ)
Cite in your paper:
S.Grimme, S.Ehrlich, L.Goerigk, J Comput Chem, (2011), 32, 1456–1465 
S.Grimme, J.Antony, S.Ehrlich and H.Krieg, J.Chem.Phys., 132, (2010), 154104 
   

Your calculation employs the composite approach PBEh-3c.
Please cite in your paper:
S. Grimme, J. G. Brandenburg, C. Bannwarth, A. Hansen J.Chem.Phys., 143, (2015), 054107 
   

================================================================================

cite the ECPs for Ir [Def2-ECP] as follows:
Ce-Yb(ecp-28): M. Dolg, H. Stoll, H.Preuss, J. Chem. Phys., 1989, 90, 1730-1734.
Y-Cd(ecp-28), Hf-Hg(ecp-46): D. Andrae,U. Haeussermann, M. Dolg, H. Stoll, H. Preuss, Theor. Chim. Acta, 1990, 77, 123-141.
In-Sb(ecp-28), Tl-Bi(ecp-46): B. Metz, H. Stoll, M. Dolg, J. Chem. Phys., 2000, 113, 2563-2569.
Te-Xe(ecp-28), Po-Rn(ecp-46): K. A. Peterson, D. Figgen, E. Goll, H. Stoll, M. Dolg, J. Chem. Phys., 2003, 119, 11113-11123.
Rb(ecp-28), Cs(ecp-46): T. Leininger, A. Nicklass, W. Kuechle, H. Stoll, M. Dolg, A. Bergner, Chem. Phys. Lett., 1996, 255, 274-280.
Sr(ecp-28), Ba(ecp-46): M. Kaupp, P. V. Schleyer, H. Stoll and H. Preuss, J. Chem. Phys., 1991, 94, 1360-1366.
La(ecp-46): M. Dolg, H. Stoll, A. Savin, H. Preuss, Theor. Chim. Acta, 1989, 75, 173-194.
Lu(ecp-28): X. Cao, M. Dolg, J. Chem. Phys., 2001, 115, 7348-7355.

ECP parameters for Ir [Def2-ECP] have been obtained from:
TURBOMOLE (7.0.2)

----- Orbital basis set information -----
Your calculation utilizes the basis: def2-mSVP

----- AuxJ basis set information -----
Your calculation utilizes the auxiliary basis: def2/J
   F. Weigend, Phys. Chem. Chem. Phys. 8, 1057 (2006).

================================================================================
                                        WARNINGS
                       Please study these warnings very carefully!
================================================================================


WARNING: Geometry Optimization
  ===> : Switching off AutoStart
         For restart on a previous wavefunction, please use MOREAD

WARNING: No Hueckel Guess possible with ECP basis!
  ===> : Switching to HCORE guess!

INFO   : the flag for use of the SHARK integral package has been found!

================================================================================
                                       INPUT FILE
================================================================================
NAME = reaction4-IEIP_ts_guess_scan_2-2_orca.inp
|  1> ! Opt PBEh-3c
|  2> %geom Constraints
|  3> { B 0 20 2.5142857142857142 C }
|  4> { B 24 30 1.4714285714285715 C }
|  5>     end
|  6> end
|  7> %output 
|  8> xyzfile=True 
|  9> end 
| 10> %scf 
| 11> maxiter 250 
| 12> end
| 13> %output
| 14> Print[P_Hirshfeld] = 1
| 15> end
| 16> % maxcore
| 17> 4000
| 18> *xyz 1 1
| 19> Ir   0.58508211  -0.72545888   0.45763754 
| 20> C    0.03157865  -2.80620948   0.33040182 
| 21> C    0.12375612  -2.36106471   1.70103928 
| 22> C    2.20065745  -2.13815547   0.73633080 
| 23> C    1.29152403  -2.64068160  -0.26957909 
| 24> C    1.49411202  -2.00778373   1.94380135 
| 25> N   -1.04087817   0.18257406  -0.51717727 
| 26> C   -2.30935866   0.52700111   0.14329156 
| 27> C   -3.13151270   1.55467310  -0.61669320 
| 28> H   -3.96336558   1.87219627   0.01042731 
| 29> H   -3.56846074   1.15538719  -1.53350720 
| 30> H   -2.55224707   2.44597162  -0.86007251 
| 31> C   -3.10638643  -0.74358323   0.41142260 
| 32> H   -2.01275430   0.96002913   1.10014822 
| 33> H   -4.01762078  -0.49442866   0.95296093 
| 34> H   -3.39612513  -1.23387552  -0.51895867 
| 35> H   -2.55285379  -1.45469417   1.02306145 
| 36> C   -0.82725152   0.38626383  -1.75783459 
| 37> C    0.52657656   0.14378758  -2.21687536 
| 38> H   -1.59676606   0.75482949  -2.43018001 
| 39> C    1.63894410   0.55187354  -1.49089431 
| 40> C    2.83688365   0.11115559  -2.12416794 
| 41> S    0.93744278  -0.70836837  -3.64044974 
| 42> C    2.61109950  -0.57045499  -3.27793119 
| 43> H    1.55396719   1.40839911  -0.71378517 
| 44> H    3.82708836   0.34065947  -1.75838235 
| 45> H    3.34057275  -0.98540111  -3.95695697 
| 46> H   -0.86220964  -3.16529869  -0.15921143 
| 47> H   -0.66006002  -2.39725236   2.44355458 
| 48> H    1.88827150  -1.62097805   2.87256827 
| 49> O    1.25640231   2.47165833   0.28033852 
| 50> O    0.54181389   0.88828832   1.68136254 
| 51> C    0.88056263   2.10418222   1.38682588 
| 52> C    0.80909366   3.05963701   2.54603165 
| 53> H    0.74437888   4.08514732   2.19264392 
| 54> H    1.71963760   2.96819261   3.14135393 
| 55> H   -0.02889606   2.83853972   3.20396938 
| 56> H    3.24356858  -1.90342341   0.58260753 
| 57> H    1.54310235  -2.85414418  -1.29838200 
| 58> *
| 59> 
| 60>                          ****END OF INPUT****
================================================================================

                       *****************************
                       * Geometry Optimization Run *
                       *****************************

Geometry optimization settings:
Update method            Update   .... BFGS
Choice of coordinates    CoordSys .... Z-matrix Internals
Initial Hessian          InHess   .... Almoef's Model

Convergence Tolerances:
Energy Change            TolE     ....  5.0000e-06 Eh
Max. Gradient            TolMAXG  ....  3.0000e-04 Eh/bohr
RMS Gradient             TolRMSG  ....  1.0000e-04 Eh/bohr
Max. Displacement        TolMAXD  ....  4.0000e-03 bohr
RMS Displacement         TolRMSD  ....  2.0000e-03 bohr
Strict Convergence                ....  False
------------------------------------------------------------------------------
                        ORCA OPTIMIZATION COORDINATE SETUP
------------------------------------------------------------------------------

The optimization will be done in new redundant internal coordinates
Making redundant internal coordinates   ...  (new redundants) done
Evaluating the initial hessian          ...  (Almloef) done
Evaluating the coordinates              ...  done
Calculating the B-matrix                .... done
Calculating the G-matrix                .... done
Diagonalizing the G-matrix              .... done
Imposing constraints:
 Iter   0:  RMS(Cart)=    0.0240790565 RMS(Int)=    0.0026089238
 Iter   1:  RMS(Cart)=    0.0010625549 RMS(Int)=    0.0001277699
 Iter   2:  RMS(Cart)=    0.0000513982 RMS(Int)=    0.0000060847
 Iter   3:  RMS(Cart)=    0.0000024151 RMS(Int)=    0.0000002822
 Iter   4:  RMS(Cart)=    0.0000001108 RMS(Int)=    0.0000000128
 Iter   5:  RMS(Cart)=    0.0000000050 RMS(Int)=    0.0000000006
CONVERGED
Small eigenvalue found = 1.205e-02
Small eigenvalue found = 1.560e-02
Small eigenvalue found = 2.202e-02
Small eigenvalue found = 2.390e-02
Small eigenvalue found = 2.932e-02
The first mode is                       ....  227
The number of degrees of freedom        ....  111
Storing new coordinates                 .... done

    -----------------------------------------------------------------
                    Redundant Internal Coordinates


    -----------------------------------------------------------------
         Definition                    Initial Value    Approx d2E/dq
    -----------------------------------------------------------------
      1. B(C   1,Ir  0)                  2.1569         0.086936   
      2. B(C   2,C   1)                  1.4441         0.512266   
      3. B(C   2,Ir  0)                  2.1057         0.104905   
      4. B(C   3,Ir  0)                  2.1642         0.084647   
      5. B(C   4,Ir  0)                  2.1670         0.083753   
      6. B(C   4,C   3)                  1.4460         0.508624   
      7. B(C   4,C   1)                  1.4053         0.590670   
      8. B(C   5,Ir  0)                  2.1632         0.084941   
      9. B(C   5,C   2)                  1.4359         0.527977   
     10. B(C   5,C   3)                  1.4051         0.591173   
     11. B(N   6,Ir  0)                  2.1016         0.095241   
     12. B(C   7,N   6)                  1.4710         0.415545   
     13. B(C   8,C   7)                  1.5197         0.387917   
     14. B(H   9,C   8)                  1.0891         0.361328   
     15. B(H  10,C   8)                  1.0913         0.358405   
     16. B(H  11,C   8)                  1.0905         0.359436   
     17. B(C  12,C   7)                  1.5237         0.382381   
     18. B(H  13,C   7)                  1.0914         0.358308   
     19. B(H  14,C  12)                  1.0889         0.361566   
     20. B(H  15,C  12)                  1.0908         0.358983   
     21. B(H  16,C  12)                  1.0891         0.361268   
     22. B(C  17,N   6)                  1.2736         0.852890   
     23. B(C  18,C  17)                  1.4490         0.501288   
     24. B(H  19,C  17)                  1.0863         0.365032   
     25. B(C  20,C  18)                  1.3893         0.625752   
     26. B(C  20,Ir  0)                  2.5143         0.019980 C 
     27. B(C  21,C  20)                  1.4250         0.549623   
     28. B(S  22,C  18)                  1.7092         0.521386   
     29. B(C  23,C  21)                  1.3591         0.700292   
     30. B(C  23,S  22)                  1.7182         0.504875   
     31. B(H  24,C  20)                  1.1595         0.278820   
     32. B(H  25,C  21)                  1.0803         0.373209   
     33. B(H  26,C  23)                  1.0796         0.374219   
     34. B(H  27,C   1)                  1.0805         0.372862   
     35. B(H  28,C   2)                  1.0803         0.373190   
     36. B(H  29,C   5)                  1.0806         0.372821   
     37. B(O  30,H  24)                  1.4714         0.075374 C 
     38. B(O  31,Ir  0)                  2.0259         0.126058   
     39. B(C  32,O  30)                  1.2250         1.025967   
     40. B(C  32,O  31)                  1.2962         0.790080   
     41. B(C  33,C  32)                  1.5039         0.411145   
     42. B(H  34,C  33)                  1.0866         0.364600   
     43. B(H  35,C  33)                  1.0917         0.357827   
     44. B(H  36,C  33)                  1.0881         0.362603   
     45. B(H  37,C   3)                  1.0800         0.373579   
     46. B(H  38,C   4)                  1.0804         0.373008   
     47. A(C   2,Ir  0,O  31)          104.9102         0.268613   
     48. A(C   1,Ir  0,O  31)          142.9993         0.261135   
     49. A(C   5,Ir  0,N   6)          154.1224         0.249706   
     50. A(C   1,Ir  0,C   3)           64.4976         0.247431   
     51. A(C   1,Ir  0,C   5)           64.9447         0.247556   
     52. A(C   3,Ir  0,O  31)          117.2667         0.260099   
     53. A(C   3,Ir  0,N   6)          156.8040         0.249580   
     54. A(C   2,Ir  0,C   5)           39.2799         0.254444   
     55. A(C   3,Ir  0,C   4)           39.0066         0.246099   
     56. A(C   2,Ir  0,C   4)           65.3622         0.253917   
     57. A(C   5,Ir  0,O  31)           93.7909         0.260233   
     58. A(C   4,Ir  0,N   6)          118.5764         0.249195   
     59. A(C   1,Ir  0,C   2)           39.5823         0.255315   
     60. A(C   4,Ir  0,C   5)           64.5110         0.246223   
     61. A(C   4,Ir  0,O  31)          156.0262         0.259688   
     62. A(C   1,Ir  0,N   6)          101.0030         0.250553   
     63. A(C   2,Ir  0,C   3)           65.1958         0.254314   
     64. A(C   2,Ir  0,N   6)          116.0972         0.257571   
     65. A(C   1,Ir  0,C   4)           37.9326         0.247051   
     66. A(N   6,Ir  0,O  31)           85.3846         0.263470   
     67. A(C   3,Ir  0,C   5)           37.8945         0.246601   
     68. A(Ir  0,C   1,H  27)          124.0280         0.269783   
     69. A(C   2,C   1,C   4)          108.1617         0.415871   
     70. A(Ir  0,C   1,C   4)           71.4257         0.320963   
     71. A(C   4,C   1,H  27)          125.9672         0.352096   
     72. A(Ir  0,C   1,C   2)           68.3004         0.313606   
     73. A(C   2,C   1,H  27)          125.8260         0.343750   
     74. A(C   5,C   2,H  28)          125.7684         0.345549   
     75. A(Ir  0,C   2,C   5)           72.5208         0.324971   
     76. A(C   1,C   2,C   5)          107.2920         0.407674   
     77. A(Ir  0,C   2,C   1)           72.1173         0.323363   
     78. A(Ir  0,C   2,H  28)          126.2173         0.277674   
     79. A(C   1,C   2,H  28)          126.5664         0.343801   
     80. A(Ir  0,C   3,H  37)          124.1039         0.268773   
     81. A(C   4,C   3,C   5)          108.2957         0.415406   
     82. A(C   4,C   3,H  37)          125.7071         0.343450   
     83. A(Ir  0,C   3,C   4)           70.6036         0.311893   
     84. A(Ir  0,C   3,C   5)           71.0166         0.319611   
     85. A(C   5,C   3,H  37)          125.9972         0.352261   
     86. A(Ir  0,C   4,C   1)           70.6416         0.319013   
     87. A(Ir  0,C   4,H  38)          124.7557         0.268279   
     88. A(C   1,C   4,H  38)          126.3037         0.352119   
     89. A(C   3,C   4,H  38)          125.7802         0.343362   
     90. A(Ir  0,C   4,C   3)           70.3899         0.311358   
     91. A(C   1,C   4,C   3)          107.9155         0.415343   
     92. A(Ir  0,C   5,H  29)          122.1153         0.268831   
     93. A(C   3,C   5,H  29)          126.0467         0.352140   
     94. A(C   2,C   5,H  29)          125.5587         0.345492   
     95. A(Ir  0,C   5,C   3)           71.0889         0.319792   
     96. A(C   2,C   5,C   3)          108.1681         0.418177   
     97. A(Ir  0,C   5,C   2)           68.1993         0.313962   
     98. A(Ir  0,N   6,C  17)          112.5142         0.342392   
     99. A(C   7,N   6,C  17)          123.1822         0.422228   
    100. A(Ir  0,N   6,C   7)          124.2925         0.304335   
    101. A(N   6,C   7,C   8)          113.5968         0.370118   
    102. A(N   6,C   7,C  12)          109.5629         0.369204   
    103. A(C   8,C   7,C  12)          111.6483         0.367164   
    104. A(N   6,C   7,H  13)          104.6077         0.327805   
    105. A(C   8,C   7,H  13)          108.4916         0.326066   
    106. A(C  12,C   7,H  13)          108.5873         0.325296   
    107. A(C   7,C   8,H  11)          112.1436         0.326235   
    108. A(H   9,C   8,H  11)          107.2149         0.290911   
    109. A(H  10,C   8,H  11)          108.9193         0.290540   
    110. A(C   7,C   8,H   9)          108.8084         0.326517   
    111. A(C   7,C   8,H  10)          112.9121         0.326081   
    112. A(H   9,C   8,H  10)          106.5356         0.290779   
    113. A(C   7,C  12,H  14)          109.5402         0.325781   
    114. A(C   7,C  12,H  15)          111.3247         0.325397   
    115. A(H  14,C  12,H  15)          107.7425         0.290883   
    116. A(C   7,C  12,H  16)          112.1752         0.325737   
    117. A(H  14,C  12,H  16)          107.1826         0.291173   
    118. A(H  15,C  12,H  16)          108.6940         0.290845   
    119. A(N   6,C  17,C  18)          115.4266         0.439566   
    120. A(N   6,C  17,H  19)          122.7839         0.371196   
    121. A(C  18,C  17,H  19)          121.7510         0.341290   
    122. A(C  17,C  18,C  20)          122.0316         0.418547   
    123. A(C  17,C  18,S  22)          124.9729         0.427414   
    124. A(C  20,C  18,S  22)          112.9496         0.444835   
    125. A(C  18,C  20,C  21)          110.4590         0.425486   
    126. A(C  18,C  20,H  24)          120.5645         0.338583   
    127. A(C  21,C  20,H  24)          126.0213         0.331362   
    128. A(C  20,C  21,H  25)          123.6728         0.347896   
    129. A(C  23,C  21,H  25)          123.1146         0.362489   
    130. A(C  20,C  21,C  23)          113.1283         0.434167   
    131. A(C  18,S  22,C  23)           91.0257         0.451757   
    132. A(C  21,C  23,H  26)          127.9149         0.362656   
    133. A(S  22,C  23,H  26)          119.6489         0.360963   
    134. A(C  21,C  23,S  22)          112.4185         0.451366   
    135. A(Ir  0,O  31,C  32)          127.2638         0.354356   
    136. A(O  30,C  32,O  31)          124.5566         0.490850   
    137. A(O  30,C  32,C  33)          121.3360         0.438498   
    138. A(O  31,C  32,C  33)          114.0918         0.418431   
    139. A(C  32,C  33,H  34)          110.5926         0.330155   
    140. A(C  32,C  33,H  35)          109.1144         0.329134   
    141. A(H  34,C  33,H  35)          107.8236         0.291118   
    142. A(C  32,C  33,H  36)          111.9373         0.329856   
    143. A(H  34,C  33,H  36)          110.0317         0.291725   
    144. A(H  35,C  33,H  36)          107.1920         0.290867   
    145. D(C   2,C   1,Ir  0,C   4)    119.1849         0.001708   
    146. D(C   2,C   1,Ir  0,C   5)     39.1444         0.001708   
    147. D(H  27,C   1,Ir  0,O  31)     98.5188         0.001708   
    148. D(C   4,C   1,Ir  0,C   2)   -119.1849         0.001708   
    149. D(C   2,C   1,Ir  0,O  31)    -20.9160         0.001708   
    150. D(H  27,C   1,Ir  0,C   3)   -159.3357         0.001708   
    151. D(C   4,C   1,Ir  0,O  31)   -140.1010         0.001708   
    152. D(H  27,C   1,Ir  0,C   2)    119.4348         0.001708   
    153. D(C   4,C   1,Ir  0,C   3)    -37.9554         0.001708   
    154. D(H  27,C   1,Ir  0,N   6)      1.5223         0.001708   
    155. D(C   2,C   1,Ir  0,C   3)     81.2295         0.001708   
    156. D(C   4,C   1,Ir  0,N   6)    122.9025         0.001708   
    157. D(H  27,C   1,Ir  0,C   4)   -121.3802         0.001708   
    158. D(H  27,C   1,Ir  0,C   5)    158.5792         0.001708   
    159. D(C   4,C   1,Ir  0,C   5)    -80.0405         0.001708   
    160. D(C   2,C   1,Ir  0,N   6)   -117.9125         0.001708   
    161. D(Ir  0,C   2,C   1,H  27)   -117.0999         0.020806   
    162. D(C   1,C   2,Ir  0,C   5)   -115.4076         0.001802   
    163. D(C   1,C   2,Ir  0,C   4)    -36.1888         0.001802   
    164. D(H  28,C   2,C   1,H  27)      5.1532         0.020806   
    165. D(H  28,C   2,C   1,Ir  0)    122.2532         0.020806   
    166. D(C   5,C   2,C   1,H  27)    178.4308         0.020806   
    167. D(C   1,C   2,Ir  0,C   3)    -79.3169         0.001802   
    168. D(H  28,C   2,Ir  0,C   4)   -158.8465         0.001802   
    169. D(H  28,C   2,Ir  0,C   5)    121.9346         0.001802   
    170. D(C   5,C   2,Ir  0,C   3)     36.0907         0.001802   
    171. D(C   5,C   2,Ir  0,C   1)    115.4076         0.001802   
    172. D(H  28,C   2,C   1,C   4)   -177.1758         0.020806   
    173. D(C   5,C   2,Ir  0,C   4)     79.2188         0.001802   
    174. D(C   5,C   2,C   1,Ir  0)    -64.4693         0.020806   
    175. D(H  28,C   2,Ir  0,N   6)    -47.6650         0.001802   
    176. D(H  28,C   2,Ir  0,O  31)     44.4959         0.001802   
    177. D(Ir  0,C   2,C   1,C   4)     60.5710         0.020806   
    178. D(C   5,C   2,C   1,C   4)     -3.8983         0.020806   
    179. D(C   1,C   2,Ir  0,N   6)     74.9928         0.001802   
    180. D(C   5,C   2,Ir  0,O  31)    -77.4387         0.001802   
    181. D(H  28,C   2,Ir  0,C   1)   -122.6578         0.001802   
    182. D(C   1,C   2,Ir  0,O  31)    167.1536         0.001802   
    183. D(H  28,C   2,Ir  0,C   3)    158.0253         0.001802   
    184. D(C   5,C   2,Ir  0,N   6)   -169.5996         0.001802   
    185. D(C   4,C   3,Ir  0,C   5)    118.2338         0.001697   
    186. D(C   4,C   3,Ir  0,C   1)     36.9206         0.001697   
    187. D(C   4,C   3,Ir  0,O  31)    175.4755         0.001697   
    188. D(C   4,C   3,Ir  0,C   2)     80.8472         0.001697   
    189. D(C   5,C   3,Ir  0,O  31)     57.2417         0.001697   
    190. D(C   5,C   3,Ir  0,C   2)    -37.3867         0.001697   
    191. D(C   4,C   3,Ir  0,N   6)    -17.8865         0.001697   
    192. D(H  37,C   3,Ir  0,C   4)    120.5880         0.001697   
    193. D(H  37,C   3,Ir  0,C   1)    157.5086         0.001697   
    194. D(C   5,C   3,Ir  0,C   1)    -81.3132         0.001697   
    195. D(C   5,C   3,Ir  0,C   4)   -118.2338         0.001697   
    196. D(C   5,C   3,Ir  0,N   6)   -136.1204         0.001697   
    197. D(H  37,C   3,Ir  0,C   5)   -121.1782         0.001697   
    198. D(H  37,C   3,Ir  0,N   6)    102.7014         0.001697   
    199. D(H  37,C   3,Ir  0,O  31)    -63.9365         0.001697   
    200. D(H  37,C   3,Ir  0,C   2)   -158.5649         0.001697   
    201. D(C   1,C   4,Ir  0,C   3)    118.1187         0.001693   
    202. D(H  38,C   4,C   3,H  37)      0.6688         0.020503   
    203. D(C   1,C   4,Ir  0,C   5)     81.2858         0.001693   
    204. D(C   1,C   4,Ir  0,N   6)    -69.7992         0.001693   
    205. D(C   1,C   4,Ir  0,O  31)    108.1812         0.001693   
    206. D(C   1,C   4,Ir  0,C   2)     37.7352         0.001693   
    207. D(C   3,C   4,Ir  0,C   1)   -118.1187         0.001693   
    208. D(H  38,C   4,C   3,C   5)   -179.3741         0.020503   
    209. D(C   3,C   4,Ir  0,C   5)    -36.8329         0.001693   
    210. D(C   3,C   4,Ir  0,N   6)    172.0821         0.001693   
    211. D(C   3,C   4,Ir  0,O  31)     -9.9375         0.001693   
    212. D(Ir  0,C   4,C   1,C   2)    -58.6179         0.028024   
    213. D(H  38,C   4,Ir  0,C   2)    159.0696         0.001693   
    214. D(H  38,C   4,Ir  0,C   3)   -120.5469         0.001693   
    215. D(H  38,C   4,C   1,C   2)   -178.0677         0.028024   
    216. D(H  38,C   4,Ir  0,N   6)     51.5352         0.001693   
    217. D(H  38,C   4,Ir  0,O  31)   -130.4844         0.001693   
    218. D(Ir  0,C   4,C   1,H  27)    119.0489         0.028024   
    219. D(C   3,C   4,C   1,Ir  0)     60.8274         0.028024   
    220. D(C   3,C   4,C   1,H  27)    179.8763         0.028024   
    221. D(H  38,C   4,C   1,Ir  0)   -119.4498         0.028024   
    222. D(H  38,C   4,Ir  0,C   5)   -157.3798         0.001693   
    223. D(H  38,C   4,C   1,H  27)     -0.4009         0.028024   
    224. D(Ir  0,C   4,C   3,C   5)     61.3380         0.020503   
    225. D(Ir  0,C   4,C   3,H  37)   -118.6191         0.020503   
    226. D(C   3,C   4,C   1,C   2)      2.2096         0.028024   
    227. D(C   1,C   4,C   3,C   5)      0.3505         0.020503   
    228. D(C   1,C   4,C   3,H  37)   -179.6066         0.020503   
    229. D(H  38,C   4,C   3,Ir  0)    119.2879         0.020503   
    230. D(H  38,C   4,Ir  0,C   1)    121.3344         0.001693   
    231. D(C   1,C   4,C   3,Ir  0)    -60.9875         0.020503   
    232. D(C   3,C   4,Ir  0,C   2)    -80.3835         0.001693   
    233. D(C   2,C   5,Ir  0,C   1)    -39.4454         0.001699   
    234. D(H  29,C   5,C   3,C   4)   -177.5443         0.028075   
    235. D(C   2,C   5,Ir  0,C   4)    -81.5709         0.001699   
    236. D(C   2,C   5,Ir  0,N   6)     21.8053         0.001699   
    237. D(C   2,C   5,Ir  0,O  31)    109.0440         0.001699   
    238. D(C   3,C   5,Ir  0,C   1)     80.0279         0.001699   
    239. D(C   3,C   5,Ir  0,C   2)    119.4733         0.001699   
    240. D(C   3,C   5,Ir  0,C   4)     37.9024         0.001699   
    241. D(H  29,C   5,C   2,C   1)    178.9036         0.022146   
    242. D(C   3,C   5,Ir  0,O  31)   -131.4827         0.001699   
    243. D(H  29,C   5,Ir  0,C   1)   -158.6827         0.001699   
    244. D(C   3,C   5,C   2,Ir  0)    -60.0897         0.022146   
    245. D(H  29,C   5,Ir  0,C   3)    121.2894         0.001699   
    246. D(H  29,C   5,Ir  0,C   4)    159.1918         0.001699   
    247. D(H  29,C   5,Ir  0,N   6)    -97.4320         0.001699   
    248. D(H  29,C   5,Ir  0,O  31)    -10.1934         0.001699   
    249. D(Ir  0,C   5,C   2,C   1)     64.2016         0.022146   
    250. D(H  29,C   5,Ir  0,C   2)   -119.2373         0.001699   
    251. D(Ir  0,C   5,C   2,H  28)   -122.4525         0.022146   
    252. D(C   3,C   5,C   2,C   1)      4.1119         0.022146   
    253. D(C   3,C   5,C   2,H  28)    177.4578         0.022146   
    254. D(C   3,C   5,Ir  0,N   6)    141.2786         0.001699   
    255. D(H  29,C   5,C   2,Ir  0)    114.7020         0.022146   
    256. D(H  29,C   5,C   2,H  28)     -7.7505         0.022146   
    257. D(Ir  0,C   5,C   3,C   4)    -61.0765         0.028075   
    258. D(Ir  0,C   5,C   3,H  37)    118.8805         0.028075   
    259. D(C   2,C   5,C   3,Ir  0)     58.2917         0.028075   
    260. D(C   2,C   5,C   3,C   4)     -2.7848         0.028075   
    261. D(C   2,C   5,C   3,H  37)    177.1722         0.028075   
    262. D(C   2,C   5,Ir  0,C   3)   -119.4733         0.001699   
    263. D(H  29,C   5,C   3,Ir  0)   -116.4678         0.028075   
    264. D(H  29,C   5,C   3,H  37)      2.4127         0.028075   
    265. D(C  17,N   6,Ir  0,C   1)    -94.1418         0.001769   
    266. D(C   7,N   6,Ir  0,C   2)     45.8462         0.001769   
    267. D(C   7,N   6,Ir  0,C   3)    133.3862         0.001769   
    268. D(C   7,N   6,Ir  0,C   4)    120.6696         0.001769   
    269. D(C   7,N   6,Ir  0,C   5)     30.6653         0.001769   
    270. D(C   7,N   6,Ir  0,C   1)     84.6739         0.001769   
    271. D(C   7,N   6,Ir  0,O  31)    -58.5073         0.001769   
    272. D(C  17,N   6,Ir  0,C   2)   -132.9695         0.001769   
    273. D(C  17,N   6,Ir  0,C   3)    -45.4295         0.001769   
    274. D(C  17,N   6,Ir  0,C   4)    -58.1461         0.001769   
    275. D(C  17,N   6,Ir  0,C   5)   -148.1505         0.001769   
    276. D(C  17,N   6,Ir  0,O  31)    122.6770         0.001769   
    277. D(C   8,C   7,N   6,Ir  0)    161.0907         0.014726   
    278. D(C   8,C   7,N   6,C  17)    -20.2166         0.014726   
    279. D(C  12,C   7,N   6,Ir  0)    -73.2856         0.014726   
    280. D(C  12,C   7,N   6,C  17)    105.4072         0.014726   
    281. D(H  13,C   7,N   6,Ir  0)     42.9581         0.014726   
    282. D(H  13,C   7,N   6,C  17)   -138.3491         0.014726   
    283. D(H   9,C   8,C   7,N   6)   -170.8437         0.011969   
    284. D(H   9,C   8,C   7,C  12)     64.6497         0.011969   
    285. D(H   9,C   8,C   7,H  13)    -54.9769         0.011969   
    286. D(H  10,C   8,C   7,N   6)     71.0976         0.011969   
    287. D(H  10,C   8,C   7,C  12)    -53.4090         0.011969   
    288. D(H  10,C   8,C   7,H  13)   -173.0356         0.011969   
    289. D(H  11,C   8,C   7,N   6)    -52.4095         0.011969   
    290. D(H  11,C   8,C   7,C  12)   -176.9161         0.011969   
    291. D(H  11,C   8,C   7,H  13)     63.4573         0.011969   
    292. D(H  14,C  12,C   7,N   6)    176.6616         0.011646   
    293. D(H  14,C  12,C   7,C   8)    -56.6043         0.011646   
    294. D(H  14,C  12,C   7,H  13)     62.9658         0.011646   
    295. D(H  15,C  12,C   7,N   6)    -64.2814         0.011646   
    296. D(H  15,C  12,C   7,C   8)     62.4527         0.011646   
    297. D(H  15,C  12,C   7,H  13)   -177.9772         0.011646   
    298. D(H  16,C  12,C   7,N   6)     57.7691         0.011646   
    299. D(H  16,C  12,C   7,C   8)   -175.4968         0.011646   
    300. D(H  16,C  12,C   7,H  13)    -55.9266         0.011646   
    301. D(C  18,C  17,N   6,Ir  0)     -8.3790         0.063037   
    302. D(C  18,C  17,N   6,C   7)    172.7900         0.063037   
    303. D(H  19,C  17,N   6,Ir  0)    173.8476         0.063037   
    304. D(H  19,C  17,N   6,C   7)     -4.9833         0.063037   
    305. D(C  20,C  18,C  17,N   6)    -42.4038         0.017117   
    306. D(C  20,C  18,C  17,H  19)    135.3948         0.017117   
    307. D(S  22,C  18,C  17,N   6)    134.9525         0.017117   
    308. D(S  22,C  18,C  17,H  19)    -47.2490         0.017117   
    309. D(C  21,C  20,C  18,C  17)    176.1563         0.029480   
    310. D(C  21,C  20,C  18,S  22)     -1.4913         0.029480   
    311. D(H  24,C  20,C  18,C  17)    -22.1694         0.029480   
    312. D(H  24,C  20,C  18,S  22)    160.1830         0.029480   
    313. D(C  23,C  21,C  20,C  18)      1.0404         0.022425   
    314. D(C  23,C  21,C  20,H  24)   -159.4032         0.022425   
    315. D(H  25,C  21,C  20,C  18)    177.7883         0.022425   
    316. D(H  25,C  21,C  20,H  24)     17.3446         0.022425   
    317. D(C  23,S  22,C  18,C  17)   -176.3506         0.005546   
    318. D(C  23,S  22,C  18,C  20)      1.2156         0.005546   
    319. D(S  22,C  23,C  21,C  20)     -0.1444         0.034542   
    320. D(S  22,C  23,C  21,H  25)   -176.9132         0.034542   
    321. D(H  26,C  23,C  21,C  20)    178.2992         0.034542   
    322. D(H  26,C  23,C  21,H  25)      1.5305         0.034542   
    323. D(C  21,C  23,S  22,C  18)     -0.6007         0.005282   
    324. D(H  26,C  23,S  22,C  18)   -179.1879         0.005282   
    325. D(C  32,O  31,Ir  0,C   1)   -173.0841         0.001945   
    326. D(C  32,O  31,Ir  0,C   2)    173.3006         0.001945   
    327. D(C  32,O  31,Ir  0,C   3)    103.8595         0.001945   
    328. D(C  32,O  31,Ir  0,C   4)    110.8784         0.001945   
    329. D(C  32,O  31,Ir  0,C   5)    135.0349         0.001945   
    330. D(C  32,O  31,Ir  0,N   6)    -70.9008         0.001945   
    331. D(O  30,C  32,O  31,Ir  0)      1.9812         0.047969   
    332. D(C  33,C  32,O  31,Ir  0)   -176.5948         0.047969   
    333. D(H  34,C  33,C  32,O  30)     21.9350         0.012517   
    334. D(H  34,C  33,C  32,O  31)   -159.4380         0.012517   
    335. D(H  35,C  33,C  32,O  30)    -96.5072         0.012517   
    336. D(H  35,C  33,C  32,O  31)     82.1198         0.012517   
    337. D(H  36,C  33,C  32,O  30)    145.0150         0.012517   
    338. D(H  36,C  33,C  32,O  31)    -36.3580         0.012517   
    -----------------------------------------------------------------

Number of atoms                         .... 39
Number of degrees of freedom            .... 338

         *************************************************************
         *                GEOMETRY OPTIMIZATION CYCLE   1            *
         *************************************************************
---------------------------------
CARTESIAN COORDINATES (ANGSTROEM)
---------------------------------
  Ir     0.585637   -0.720593    0.442665
  C      0.035300   -2.802220    0.316161
  C      0.135494   -2.358771    1.686822
  C      2.205733   -2.130552    0.708981
  C      1.291072   -2.633444   -0.291752
  C      1.506742   -2.003188    1.921205
  N     -1.047988    0.185411   -0.520125
  C     -2.314847    0.529154    0.143815
  C     -3.139838    1.556057   -0.614140
  H     -3.970145    1.873185    0.015232
  H     -3.579091    1.156223   -1.529616
  H     -2.561864    2.447684   -0.859391
  C     -3.110255   -0.741901    0.414534
  H     -2.015848    0.962646    1.099720
  H     -4.020137   -0.493219    0.958566
  H     -3.402274   -1.232645   -0.514898
  H     -2.554518   -1.452467    1.024812
  C     -0.833355    0.386842   -1.759252
  C      0.523029    0.137967   -2.204229
  H     -1.598502    0.755787   -2.436388
  C      1.627199    0.543500   -1.464912
  C      2.831399    0.097379   -2.082642
  S      0.947691   -0.718910   -3.620858
  C      2.617411   -0.585803   -3.237949
  H      1.535416    1.401581   -0.690506
  H      3.817905    0.324090   -1.705090
  H      3.353834   -1.004685   -3.907103
  H     -0.860969   -3.162353   -0.168157
  H     -0.643447   -2.397476    2.434361
  H      1.906163   -1.616892    2.847951
  O      1.249369    2.480726    0.267995
  O      0.547173    0.891455    1.669069
  C      0.881298    2.108983    1.375622
  C      0.814800    3.060957    2.538003
  H      0.745461    4.087324    2.187948
  H      1.729271    2.969962    3.127387
  H     -0.018566    2.836002    3.200533
  H      3.247199   -1.893601    0.548840
  H      1.536421   -2.845007   -1.322473

----------------------------
CARTESIAN COORDINATES (A.U.)
----------------------------
  NO LB      ZA    FRAG     MASS         X           Y           Z
   0 Ir   17.0000*   0   192.220    1.106693   -1.361723    0.836516
   1 C     6.0000    0    12.011    0.066707   -5.295429    0.597458
   2 C     6.0000    0    12.011    0.256047   -4.457430    3.187632
   3 C     6.0000    0    12.011    4.168231   -4.026159    1.339779
   4 C     6.0000    0    12.011    2.439773   -4.976489   -0.551332
   5 C     6.0000    0    12.011    2.847330   -3.785476    3.630551
   6 N     7.0000    0    14.007   -1.980411    0.350376   -0.982894
   7 C     6.0000    0    12.011   -4.374427    0.999956    0.271772
   8 C     6.0000    0    12.011   -5.933434    2.940522   -1.160556
   9 H     1.0000    0     1.008   -7.502486    3.539806    0.028785
  10 H     1.0000    0     1.008   -6.763502    2.184944   -2.890556
  11 H     1.0000    0     1.008   -4.841222    4.625453   -1.624014
  12 C     6.0000    0    12.011   -5.877530   -1.401989    0.783357
  13 H     1.0000    0     1.008   -3.809401    1.819137    2.078169
  14 H     1.0000    0     1.008   -7.596957   -0.932049    1.811427
  15 H     1.0000    0     1.008   -6.429367   -2.329362   -0.973017
  16 H     1.0000    0     1.008   -4.827339   -2.744764    1.936614
  17 C     6.0000    0    12.011   -1.574813    0.731025   -3.324505
  18 C     6.0000    0    12.011    0.988381    0.260719   -4.165390
  19 H     1.0000    0     1.008   -3.020732    1.428231   -4.604106
  20 C     6.0000    0    12.011    3.074960    1.027066   -2.768283
  21 C     6.0000    0    12.011    5.350569    0.184020   -3.935623
  22 S    16.0000    0    32.060    1.790877   -1.358542   -6.842430
  23 C     6.0000    0    12.011    4.946189   -1.107007   -6.118837
  24 H     1.0000    0     1.008    2.901516    2.648605   -1.304867
  25 H     1.0000    0     1.008    7.214795    0.612442   -3.222154
  26 H     1.0000    0     1.008    6.337829   -1.898579   -7.383354
  27 H     1.0000    0     1.008   -1.626996   -5.975982   -0.317771
  28 H     1.0000    0     1.008   -1.215939   -4.530573    4.600275
  29 H     1.0000    0     1.008    3.602125   -3.055484    5.381848
  30 O     8.0000    0    15.999    2.360964    4.687893    0.506438
  31 O     8.0000    0    15.999    1.034006    1.684605    3.154083
  32 C     6.0000    0    12.011    1.665412    3.985400    2.599549
  33 C     6.0000    0    12.011    1.539749    5.784371    4.796130
  34 H     1.0000    0     1.008    1.408718    7.723924    4.134622
  35 H     1.0000    0     1.008    3.267848    5.612414    5.909906
  36 H     1.0000    0     1.008   -0.035085    5.359268    6.048130
  37 H     1.0000    0     1.008    6.136316   -3.578387    1.037157
  38 H     1.0000    0     1.008    2.903416   -5.376283   -2.499112
* core charge reduced due to ECP

--------------------------------
INTERNAL COORDINATES (ANGSTROEM)
--------------------------------
 Ir     0   0   0     0.000000000000     0.00000000     0.00000000
 C      1   0   0     2.156867651961     0.00000000     0.00000000
 C      2   1   0     1.444055954245    68.29955064     0.00000000
 C      1   2   3     2.164131527376    64.49637080    81.22975993
 C      2   1   3     1.405289625666    71.42604355   240.81487761
 C      4   1   2     1.405058135581    71.01645755   278.68662427
 N      1   2   3     2.102031057349   101.00378271   242.08669999
 C      7   1   2     1.471017274434   124.05190098    84.65195689
 C      8   7   1     1.519744656168   113.59691240   161.10355948
 H      9   8   7     1.089073143326   108.80850870   189.15630837
 H      9   8   7     1.091283986037   112.91187967    71.09755764
 H      9   8   7     1.090502274362   112.14368910   307.59039476
 C      8   7   1     1.523657469977   109.56272742   286.72736839
 H      8   7   1     1.091357906584   104.60774402    42.97117742
 H     13   8   7     1.088893843876   109.53997616   176.66161001
 H     13   8   7     1.090845704707   111.32488577   295.71862377
 H     13   8   7     1.089118558910   112.17536790    57.76911343
 C      7   1   2     1.275286812314   112.99047350   265.86673349
 C     18   7   1     1.449952975283   115.95661951   351.49802407
 H     18   7   1     1.086297213840   122.52411025   173.72734914
 C     19  18   7     1.389584175124   122.20310319   317.45388498
 C     21  19  18     1.424895423306   110.48575086   176.19399156
 S     19  18   7     1.709252710763   124.85431217   134.89288923
 C     22  21  19     1.358948528168   113.12780877     1.05869309
 H     21  19  18     1.159636038923   120.55463795   337.87486573
 H     22  21  19     1.080266863554   123.67148871   177.79891456
 H     24  22  21     1.079531155119   127.91930636   178.29128211
 H      2   1   3     1.080520107474   124.02863631   119.43503462
 H      3   2   1     1.080280638571   126.56606512   122.25349571
 H      6   4   1     1.080550008764   126.04662230   243.53349626
 O     25  21  19     1.485714285367   172.59981497    19.26334028
 O      1   2   3     2.025723337476   143.00317968   339.08232177
 C     31  25  21     1.224993238481   116.81788428    69.00482225
 C     33  31  25     1.503914787017   121.34725974   167.89712191
 H     34  33  31     1.086619660406   110.59366893    21.93580730
 H     34  33  31     1.091723848794   109.11508777   263.49410565
 H     34  33  31     1.088114350162   111.93616087   145.01621851
 H      4   1   2     1.079997041111   124.10290210   157.50857708
 H      5   2   1     1.080413509624   126.30248377   240.54921936

---------------------------
INTERNAL COORDINATES (A.U.)
---------------------------
 Ir     0   0   0     0.000000000000     0.00000000     0.00000000
 C      1   0   0     4.075889169320     0.00000000     0.00000000
 C      2   1   0     2.728870275581    68.29955064     0.00000000
 C      1   2   3     4.089615904526    64.49637080    81.22975993
 C      2   1   3     2.655612531350    71.42604355   240.81487761
 C      4   1   2     2.655175078486    71.01645755   278.68662427
 N      1   2   3     3.972263023386   101.00378271   242.08669999
 C      7   1   2     2.779819786948   124.05190098    84.65195689
 C      8   7   1     2.871901193648   113.59691240   161.10355948
 H      9   8   7     2.058049980695   108.80850870   189.15630837
 H      9   8   7     2.062227867943   112.91187967    71.09755764
 H      9   8   7     2.060750646963   112.14368910   307.59039476
 C      8   7   1     2.879295340159   109.56272742   286.72736839
 H      8   7   1     2.062367557533   104.60774402    42.97117742
 H     13   8   7     2.057711153838   109.53997616   176.66161001
 H     13   8   7     2.061399636261   111.32488577   295.71862377
 H     13   8   7     2.058135803711   112.17536790    57.76911343
 C      7   1   2     2.409942817475   112.99047350   265.86673349
 C     18   7   1     2.740014030350   115.95661951   351.49802407
 H     18   7   1     2.052804234200   122.52411025   173.72734914
 C     19  18   7     2.625933531014   122.20310319   317.45388498
 C     21  19  18     2.692662119527   110.48575086   176.19399156
 S     19  18   7     3.230019517004   124.85431217   134.89288923
 C     22  21  19     2.568040548333   113.12780877     1.05869309
 H     21  19  18     2.191394528589   120.55463795   337.87486573
 H     22  21  19     2.041408523667   123.67148871   177.79891456
 H     24  22  21     2.040018236211   127.91930636   178.29128211
 H      2   1   3     2.041887085321   124.02863631   119.43503462
 H      3   2   1     2.041434554677   126.56606512   122.25349571
 H      6   4   1     2.041943590571   126.04662230   243.53349626
 O     25  21  19     2.807593112598   172.59981497    19.26334028
 O      1   2   3     3.828062330923   143.00317968   339.08232177
 C     31  25  21     2.314901736633   116.81788428    69.00482225
 C     33  31  25     2.841987076216   121.34725974   167.89712191
 H     34  33  31     2.053413569902   110.59366893    21.93580730
 H     34  33  31     2.063059088092   109.11508777   263.49410565
 H     34  33  31     2.056238124196   111.93616087   145.01621851
 H      4   1   2     2.040898633146   124.10290210   157.50857708
 H      5   2   1     2.041685644579   126.30248377   240.54921936

---------------------
BASIS SET INFORMATION
---------------------
There are 6 groups of distinct atoms

 Group   1 Type Ir  : 7s6p5d1f contracted to 6s3p2d1f pattern {211111/411/41/1}
 Group   2 Type C   : 8s4p1d contracted to 4s2p1d pattern {5111/31/1}
 Group   3 Type N   : 8s4p1d contracted to 4s2p1d pattern {5111/31/1}
 Group   4 Type H   : 4s contracted to 2s pattern {31}
 Group   5 Type S   : 10s7p1d contracted to 4s3p1d pattern {5311/511/1}
 Group   6 Type O   : 8s4p1d contracted to 4s2p1d pattern {5111/31/1}

Atom   0Ir   basis set group =>   1
Atom   1C    basis set group =>   2
Atom   2C    basis set group =>   2
Atom   3C    basis set group =>   2
Atom   4C    basis set group =>   2
Atom   5C    basis set group =>   2
Atom   6N    basis set group =>   3
Atom   7C    basis set group =>   2
Atom   8C    basis set group =>   2
Atom   9H    basis set group =>   4
Atom  10H    basis set group =>   4
Atom  11H    basis set group =>   4
Atom  12C    basis set group =>   2
Atom  13H    basis set group =>   4
Atom  14H    basis set group =>   4
Atom  15H    basis set group =>   4
Atom  16H    basis set group =>   4
Atom  17C    basis set group =>   2
Atom  18C    basis set group =>   2
Atom  19H    basis set group =>   4
Atom  20C    basis set group =>   2
Atom  21C    basis set group =>   2
Atom  22S    basis set group =>   5
Atom  23C    basis set group =>   2
Atom  24H    basis set group =>   4
Atom  25H    basis set group =>   4
Atom  26H    basis set group =>   4
Atom  27H    basis set group =>   4
Atom  28H    basis set group =>   4
Atom  29H    basis set group =>   4
Atom  30O    basis set group =>   6
Atom  31O    basis set group =>   6
Atom  32C    basis set group =>   2
Atom  33C    basis set group =>   2
Atom  34H    basis set group =>   4
Atom  35H    basis set group =>   4
Atom  36H    basis set group =>   4
Atom  37H    basis set group =>   4
Atom  38H    basis set group =>   4
---------------------------------
AUXILIARY/J BASIS SET INFORMATION
---------------------------------
There are 6 groups of distinct atoms

 Group   1 Type Ir  : 11s5p5d3f3g contracted to 8s5p5d2f3g pattern {41111111/11111/11111/21/111}
 Group   2 Type C   : 12s5p4d2f1g contracted to 6s4p3d1f1g pattern {711111/2111/211/2/1}
 Group   3 Type N   : 12s5p4d2f1g contracted to 6s4p3d1f1g pattern {711111/2111/211/2/1}
 Group   4 Type H   : 5s2p1d contracted to 3s1p1d pattern {311/2/1}
 Group   5 Type S   : 14s5p5d2f1g contracted to 8s4p3d1f1g pattern {71111111/2111/311/2/1}
 Group   6 Type O   : 12s5p4d2f1g contracted to 6s4p3d1f1g pattern {711111/2111/211/2/1}

Atom   0Ir   basis set group =>   1
Atom   1C    basis set group =>   2
Atom   2C    basis set group =>   2
Atom   3C    basis set group =>   2
Atom   4C    basis set group =>   2
Atom   5C    basis set group =>   2
Atom   6N    basis set group =>   3
Atom   7C    basis set group =>   2
Atom   8C    basis set group =>   2
Atom   9H    basis set group =>   4
Atom  10H    basis set group =>   4
Atom  11H    basis set group =>   4
Atom  12C    basis set group =>   2
Atom  13H    basis set group =>   4
Atom  14H    basis set group =>   4
Atom  15H    basis set group =>   4
Atom  16H    basis set group =>   4
Atom  17C    basis set group =>   2
Atom  18C    basis set group =>   2
Atom  19H    basis set group =>   4
Atom  20C    basis set group =>   2
Atom  21C    basis set group =>   2
Atom  22S    basis set group =>   5
Atom  23C    basis set group =>   2
Atom  24H    basis set group =>   4
Atom  25H    basis set group =>   4
Atom  26H    basis set group =>   4
Atom  27H    basis set group =>   4
Atom  28H    basis set group =>   4
Atom  29H    basis set group =>   4
Atom  30O    basis set group =>   6
Atom  31O    basis set group =>   6
Atom  32C    basis set group =>   2
Atom  33C    basis set group =>   2
Atom  34H    basis set group =>   4
Atom  35H    basis set group =>   4
Atom  36H    basis set group =>   4
Atom  37H    basis set group =>   4
Atom  38H    basis set group =>   4
-------------------------
ECP PARAMETER INFORMATION
-------------------------

 Group 1, Type Ir ECP Def2-ECP (replacing 60 core electrons, lmax=3)

Atom   0Ir   ECP group =>   1

------------------------------------------------------------------------------
                           ORCA GTO INTEGRAL CALCULATION
                           -- RI-GTO INTEGRALS CHOSEN --
------------------------------------------------------------------------------
------------------------------------------------------------------------------
                   ___                                                        
                  /   \      - P O W E R E D   B Y -                         
                 /     \                                                     
                 |  |  |   _    _      __       _____    __    __             
                 |  |  |  | |  | |    /  \     |  _  \  |  |  /  |          
                  \  \/   | |  | |   /    \    | | | |  |  | /  /          
                 / \  \   | |__| |  /  /\  \   | |_| |  |  |/  /          
                |  |  |   |  __  | /  /__\  \  |    /   |      \           
                |  |  |   | |  | | |   __   |  |    \   |  |\   \          
                \     /   | |  | | |  |  |  |  | |\  \  |  | \   \       
                 \___/    |_|  |_| |__|  |__|  |_| \__\ |__|  \__/        
                                                                              
                      - O R C A' S   B I G   F R I E N D -                    
                                      &                                       
                       - I N T E G R A L  F E E D E R -                       
                                                                              
 v1 FN, 2020, v2 2021                                                         
------------------------------------------------------------------------------


Reading SHARK input file reaction4-IEIP_ts_guess_scan_2-2_orca.SHARKINP.tmp ... ok
----------------------
SHARK INTEGRAL PACKAGE
----------------------

Number of atoms                             ...     39
Number of basis functions                   ...    358
Number of shells                            ...    184
Maximum angular momentum                    ...      3
Integral batch strategy                     ... SHARK/LIBINT Hybrid
RI-J (if used) integral strategy            ... SPLIT-RIJ (Revised 2003 algorithm where possible)
Printlevel                                  ...      1
Contraction scheme used                     ... SEGMENTED contraction
Coulomb Range Separation                    ... NOT USED
Exchange Range Separation                   ... NOT USED
Finite Nucleus Model                        ... NOT USED
Auxiliary Coulomb fitting basis             ... AVAILABLE
   # of basis functions in Aux-J            ...   1231
   # of shells in Aux-J                     ...    405
   Maximum angular momentum in Aux-J        ...      4
Auxiliary J/K fitting basis                 ... NOT available
Auxiliary Correlation fitting basis         ... NOT available
Auxiliary 'external' fitting basis          ... NOT available
Integral threshold                          ...     2.500000e-11
Primitive cut-off                           ...     2.500000e-12
Primitive pair pre-selection threshold      ...     2.500000e-12

Calculating pre-screening integrals         ... done (  0.1 sec) Dimension = 184
Organizing shell pair data                  ... done (  0.1 sec)
Shell pair information
Total number of shell pairs                 ...     17020
Shell pairs after pre-screening             ...     12998
Total number of primitive shell pairs       ...     60705
Primitive shell pairs kept                  ...     29274
          la=0 lb=0:   4980 shell pairs
          la=1 lb=0:   4264 shell pairs
          la=1 lb=1:    857 shell pairs
          la=2 lb=0:   1753 shell pairs
          la=2 lb=1:    787 shell pairs
          la=2 lb=2:    180 shell pairs
          la=3 lb=0:    113 shell pairs
          la=3 lb=1:     42 shell pairs
          la=3 lb=2:     21 shell pairs
          la=3 lb=3:      1 shell pairs

Calculating one electron integrals          ... done (  0.1 sec)
Calculating ECP integrals                   ... done (  0.8 sec)
Calculating RI/J V-Matrix + Cholesky decomp.... done (  0.1 sec)
Calculating Nuclear repulsion               ... done (  0.0 sec) ENN=   2042.434082847268 Eh

SHARK setup successfully completed in   1.4 seconds

Maximum memory used throughout the entire GTOINT-calculation: 91.5 MB
-------------------------------------------------------------------------------
                                 ORCA SCF
-------------------------------------------------------------------------------

------------
SCF SETTINGS
------------
Hamiltonian:
 Density Functional     Method          .... DFT(GTOs)
 Exchange Functional    Exchange        .... PBE
   PBE kappa parameter   XKappa         ....  1.024500
   PBE mue parameter    XMuePBE         ....  0.123457
 Correlation Functional Correlation     .... PBE
   PBE beta parameter  CBetaPBE         ....  0.030000
 LDA part of GGA corr.  LDAOpt          .... PW91-LDA
 Gradients option       PostSCFGGA      .... off
 Hybrid DFT is turned on
   Fraction HF Exchange ScalHFX         ....  0.420000
   Scaling of DF-GGA-X  ScalDFX         ....  0.580000
   Scaling of DF-GGA-C  ScalDFC         ....  1.000000
   Scaling of DF-LDA-C  ScalLDAC        ....  1.000000
   Perturbative correction              ....  0.000000
   Density functional embedding theory  .... OFF
 RI-approximation to the Coulomb term is turned on
   Number of AuxJ basis functions       .... 1231
   RIJ-ON(X) (HFX calculated with O(N)) .... on
   Number of AuxJ basis functions       .... 1231
   RIJ-COSX (HFX calculated with COS-X)).... on


General Settings:
 Integral files         IntName         .... reaction4-IEIP_ts_guess_scan_2-2_orca
 Hartree-Fock type      HFTyp           .... RHF
 Total Charge           Charge          ....    1
 Multiplicity           Mult            ....    1
 Number of Electrons    NEL             ....  164
 Basis Dimension        Dim             ....  358
 Nuclear Repulsion      ENuc            ....   2042.4340828473 Eh

Convergence Acceleration:
 DIIS                   CNVDIIS         .... on
   Start iteration      DIISMaxIt       ....    12
   Startup error        DIISStart       ....  0.200000
   # of expansion vecs  DIISMaxEq       ....     5
   Bias factor          DIISBfac        ....   1.050
   Max. coefficient     DIISMaxC        ....  10.000
 Trust-Rad. Augm. Hess. CNVTRAH         .... auto
   Auto Start mean grad. ratio tolernc. ....  1.125000
   Auto Start start iteration           ....    20
   Auto Start num. interpolation iter.  ....    10
   Max. Number of Micro iterations      ....    16
   Max. Number of Macro iterations      .... Maxiter - #DIIS iter
   Number of Davidson start vectors     ....     2
   Converg. threshold I  (grad. norm)   ....   1.000e-05
   Converg. threshold II (energy diff.) ....   1.000e-08
   Grad. Scal. Fac. for Micro threshold ....   0.100
   Minimum threshold for Micro iter.    ....   0.010
   NR start threshold (gradient norm)   ....   0.001
   Initial trust radius                 ....   0.400
   Minimum AH scaling param. (alpha)    ....   1.000
   Maximum AH scaling param. (alpha)    .... 1000.000
   Orbital update algorithm             .... Taylor
   White noise on init. David. guess    .... on
   Maximum white noise                  ....   0.010
   Quad. conv. algorithm                .... NR
   COSX micro iterations for RIJONX calc.... off
 SOSCF                  CNVSOSCF        .... off
 Level Shifting         CNVShift        .... on
   Level shift para.    LevelShift      ....    0.2500
   Turn off err/grad.   ShiftErr        ....    0.0010
 Zerner damping         CNVZerner       .... off
 Static damping         CNVDamp         .... on
   Fraction old density DampFac         ....    0.7000
   Max. Damping (<1)    DampMax         ....    0.9800
   Min. Damping (>=0)   DampMin         ....    0.0000
   Turn off err/grad.   DampErr         ....    0.1000
 Fernandez-Rico         CNVRico         .... off

SCF Procedure:
 Maximum # iterations   MaxIter         ....   250
 SCF integral mode      SCFMode         .... Direct
   Integral package                     .... SHARK and LIBINT hybrid scheme
 Reset frequency        DirectResetFreq ....    20
 Integral Threshold     Thresh          ....  2.500e-11 Eh
 Primitive CutOff       TCut            ....  2.500e-12 Eh

Convergence Tolerance:
 Convergence Check Mode ConvCheckMode   .... Total+1el-Energy
 Convergence forced     ConvForced      .... 0
 Energy Change          TolE            ....  1.000e-08 Eh
 1-El. energy change                    ....  1.000e-05 Eh
 DIIS Error             TolErr          ....  5.000e-07


Diagonalization of the overlap matrix:
Smallest eigenvalue                        ... 1.057e-03
Time for diagonalization                   ...    0.027 sec
Threshold for overlap eigenvalues          ... 1.000e-08
Number of eigenvalues below threshold      ... 0
Time for construction of square roots      ...    0.008 sec
Total time needed                          ...    0.037 sec

--------------------
INITIAL GUESS: HCORE
--------------------
                      -----------------
                      INTIAL GUESS DONE 
                      -----------------
-------------------
DFT GRID GENERATION
-------------------

General Integration Accuracy     IntAcc      ... 4.159
Radial Grid Type                 RadialGrid  ... OptM3 with GC (2021)
Angular Grid (max. ang.)         AngularGrid ... 3 (Lebedev-194)
Angular grid pruning method      GridPruning ... 4 (adaptive)
Weight generation scheme         WeightScheme... Becke
Basis function cutoff            BFCut       ... 1.0000e-11
Integration weight cutoff        WCut        ... 1.0000e-14
Angular grids for H and He will be reduced by one unit
Partially contracted basis set               ... off
Rotationally invariant grid construction     ... off

Total number of grid points                  ...    93306
Total number of batches                      ...     1476
Average number of points per batch           ...       63
Average number of grid points per atom       ...     2392
Time for grid setup =    1.685 sec

--------------------
COSX GRID GENERATION
--------------------

GRIDX 1
-------
General Integration Accuracy     IntAcc      ... 3.816
Radial Grid Type                 RadialGrid  ... OptM3 with GC (2021)
Angular Grid (max. ang.)         AngularGrid ... 1 (Lebedev-50)
Angular grid pruning method      GridPruning ... 4 (adaptive)
Weight generation scheme         WeightScheme... Becke
Basis function cutoff            BFCut       ... 1.0000e-11
Integration weight cutoff        WCut        ... 1.0000e-14
Angular grids for H and He will be reduced by one unit
Partially contracted basis set               ... on
Rotationally invariant grid construction     ... off

Total number of grid points                  ...    23166
Total number of batches                      ...      380
Average number of points per batch           ...       60
Average number of grid points per atom       ...      594
UseSFitting                                  ... on

GRIDX 2
-------
General Integration Accuracy     IntAcc      ... 4.020
Radial Grid Type                 RadialGrid  ... OptM3 with GC (2021)
Angular Grid (max. ang.)         AngularGrid ... 2 (Lebedev-110)
Angular grid pruning method      GridPruning ... 4 (adaptive)
Weight generation scheme         WeightScheme... Becke
Basis function cutoff            BFCut       ... 1.0000e-11
Integration weight cutoff        WCut        ... 1.0000e-14
Angular grids for H and He will be reduced by one unit
Partially contracted basis set               ... on
Rotationally invariant grid construction     ... off

Total number of grid points                  ...    50316
Total number of batches                      ...      808
Average number of points per batch           ...       62
Average number of grid points per atom       ...     1290
UseSFitting                                  ... on

GRIDX 3
-------
General Integration Accuracy     IntAcc      ... 4.338
Radial Grid Type                 RadialGrid  ... OptM3 with GC (2021)
Angular Grid (max. ang.)         AngularGrid ... 3 (Lebedev-194)
Angular grid pruning method      GridPruning ... 4 (adaptive)
Weight generation scheme         WeightScheme... Becke
Basis function cutoff            BFCut       ... 1.0000e-11
Integration weight cutoff        WCut        ... 1.0000e-14
Angular grids for H and He will be reduced by one unit
Partially contracted basis set               ... on
Rotationally invariant grid construction     ... off

Total number of grid points                  ...   108779
Total number of batches                      ...     1720
Average number of points per batch           ...       63
Average number of grid points per atom       ...     2789
UseSFitting                                  ... on

Time for X-Grid setup             =    4.558 sec

--------------
SCF ITERATIONS
--------------
ITER       Energy         Delta-E        Max-DP      RMS-DP      [F,P]     Damp
               ***  Starting incremental Fock matrix formation  ***
  0   -862.7229790554   0.00000000000019.69715750  0.14474405  2.7351281 0.7000
  1  -1098.6555949671-235.932615911682 9.53962985  0.12718332  1.4769140 0.7000
  2  -1166.8005358787 -68.144940911552 5.52094898  0.06601825  1.0602789 0.7000
  3  -1192.6592436237 -25.858707745031 3.83226395  0.04534258  0.7716735 0.7000
  4  -1210.4867047022 -17.827461078458 2.70390911  0.03664468  0.4590260 0.7000
  5  -1224.9266411371 -14.439936434933 2.43802606  0.03057727  0.3676796 0.7000
  6  -1233.6756459916  -8.749004854533 1.80736250  0.02778022  0.3532681 0.7000
  7  -1241.8467660639  -8.171120072257 1.85741108  0.02494061  0.3327991 0.7000
  8  -1246.5714070331  -4.724640969239 1.77679256  0.02554667  0.3813796 0.7000
  9  -1250.3703377310  -3.798930697897 1.63831726  0.02328585  0.3627667 0.7000
 10  -1252.5396718402  -2.169334109165 1.67359414  0.02407245  0.4150553 0.7000
 11  -1254.5868358419  -2.047164001700 1.55198132  0.02331438  0.3749240 0.7000
                               ***Turning on DIIS***
 12  -1255.7202206866  -1.133384844715 1.72687551  0.02399809  0.4285604 0.7000
 13  -1256.6844293900  -0.964208703444 1.46336273  0.02008218  0.3820850 0.7000
 14  -1267.5063489103 -10.821919520254 1.03746733  0.01418150  0.2529521 0.7000
 15  -1273.9463529172  -6.440004006876 0.72409184  0.01006237  0.1587201 0.7000
 16  -1278.0119902445  -4.065637327313 0.50432716  0.00711591  0.1268690 0.7000
 17  -1280.7471771818  -2.735186937357 0.34892591  0.00503720  0.1645486 0.7000
 18  -1282.7607336734  -2.013556491606 0.24501204  0.00359294  0.1659853 0.7000
 19  -1284.2583103459  -1.497576672476 0.16956261  0.00268602  0.1573399 0.7000
               *** Restarting incremental Fock matrix formation ***
                                   *** Resetting DIIS ***
 20  -1285.4310171308  -1.172706784850 0.12775910  0.00249402  0.1340784 0.7000
 21  -1286.3748069249  -0.943789794083 0.29563612  0.00560474  0.0491646 0.0000
 22  -1288.3827492944  -2.007942369583 0.03719948  0.00095670  0.0639569 0.0000
 23  -1288.4307714559  -0.048022161444 0.04200209  0.00073923  0.0269065 0.0000
 24  -1288.4394943952  -0.008722939306 0.02556944  0.00030476  0.0198020 0.0000
 25  -1288.4431396804  -0.003645285211 0.00730396  0.00013642  0.0032721 0.0000
 26  -1288.4437632848  -0.000623604406 0.00405006  0.00007267  0.0021529 0.0000
 27  -1288.4439795807  -0.000216295861 0.00325252  0.00005570  0.0014471 0.0000
 28  -1288.4440851824  -0.000105601699 0.00368417  0.00006831  0.0008502 0.0000
               *** Restarting incremental Fock matrix formation ***
                                   *** Resetting DIIS ***
 29  -1288.4449566172  -0.000871434806 0.00471087  0.00008379  0.0008237 0.0000
 30  -1288.4449757331  -0.000019115893 0.00089035  0.00001466  0.0008982 0.0000
 31  -1288.4449772286  -0.000001495579 0.00052165  0.00000776  0.0007778 0.0000
 32  -1288.4449794384  -0.000002209737 0.00023941  0.00000257  0.0001097 0.0000
 33  -1288.4449795806  -0.000000142176 0.00019050  0.00000182  0.0000788 0.0000
 34  -1288.4449796450  -0.000000064481 0.00012660  0.00000105  0.0000368 0.0000
 35  -1288.4449796536  -0.000000008592 0.00009167  0.00000071  0.0000302 0.0000
 36  -1288.4449796719  -0.000000018293 0.00004703  0.00000037  0.0000178 0.0000
 37  -1288.4449796718   0.000000000102 0.00001049  0.00000012  0.0000049 0.0000
 38  -1288.4449796584   0.000000013408 0.00000732  0.00000008  0.0000065 0.0000
 39  -1288.4449796525   0.000000005910 0.00000215  0.00000003  0.0000017 0.0000
 40  -1288.4449796639  -0.000000011444 0.00000209  0.00000002  0.0000018 0.0000
                            ***DIIS convergence achieved***

               *****************************************************
               *                     SUCCESS                       *
               *           SCF CONVERGED AFTER  41 CYCLES          *
               *****************************************************

Old exchange energy                            =    -59.663662000 Eh
New exchange energy                            =    -59.663604032 Eh
Exchange energy change after final integration =      0.000057968 Eh
Total energy after final integration           =  -1288.444921700 Eh
Final COS-X integration done in                =    58.044 sec

----------------
TOTAL SCF ENERGY
----------------

Total Energy       :        -1288.44492170 Eh          -35060.36875 eV

Components:
Nuclear Repulsion  :         2042.43408285 Eh           55577.45690 eV
Electronic Energy  :        -3330.87900455 Eh          -90637.82565 eV
One Electron Energy:        -5840.25388453 Eh         -158921.38761 eV
Two Electron Energy:         2509.37487998 Eh           68283.56195 eV
Max COSX asymmetry :            0.00001781 Eh               0.00048 eV

Virial components:
Potential Energy   :        -2501.59119357 Eh          -68071.75708 eV
Kinetic Energy     :         1213.14627187 Eh           33011.38832 eV
Virial Ratio       :            2.06206890


DFT components:
N(Alpha)           :       82.000362095034 electrons
N(Beta)            :       82.000362095034 electrons
N(Total)           :      164.000724190068 electrons
E(X)               :      -79.596169894338 Eh       
E(C)               :       -7.454232055311 Eh       
E(XC)              :      -87.050401949649 Eh       
DFET-embed. en.    :        0.000000000000 Eh       

---------------
SCF CONVERGENCE
---------------

  Last Energy change         ...   -3.8833e-09  Tolerance :   1.0000e-08
  Last MAX-Density change    ...    0.0000e+00  Tolerance :   1.0000e-07
  Last RMS-Density change    ...    0.0000e+00  Tolerance :   5.0000e-09
  Last DIIS Error            ...    8.9307e-07  Tolerance :   5.0000e-07

             **** THE GBW FILE WAS UPDATED (reaction4-IEIP_ts_guess_scan_2-2_orca.gbw) ****
             **** DENSITY reaction4-IEIP_ts_guess_scan_2-2_orca.scfp WAS UPDATED ****
             **** ENERGY FILE WAS UPDATED (reaction4-IEIP_ts_guess_scan_2-2_orca.en.tmp) ****
             **** THE GBW FILE WAS UPDATED (reaction4-IEIP_ts_guess_scan_2-2_orca.gbw) ****
             **** DENSITY reaction4-IEIP_ts_guess_scan_2-2_orca.scfp WAS UPDATED ****
----------------
ORBITAL ENERGIES
----------------

  NO   OCC          E(Eh)            E(eV) 
   0   2.0000     -89.762893     -2442.5725 
   1   2.0000     -19.620729      -533.9072 
   2   2.0000     -19.581464      -532.8387 
   3   2.0000     -14.843122      -403.9019 
   4   2.0000     -10.676494      -290.5222 
   5   2.0000     -10.663985      -290.1818 
   6   2.0000     -10.638932      -289.5001 
   7   2.0000     -10.635863      -289.4165 
   8   2.0000     -10.635332      -289.4021 
   9   2.0000     -10.634955      -289.3918 
  10   2.0000     -10.633713      -289.3580 
  11   2.0000     -10.632530      -289.3259 
  12   2.0000     -10.617364      -288.9132 
  13   2.0000     -10.611210      -288.7457 
  14   2.0000     -10.585002      -288.0326 
  15   2.0000     -10.583604      -287.9945 
  16   2.0000     -10.557945      -287.2963 
  17   2.0000     -10.552836      -287.1573 
  18   2.0000     -10.530187      -286.5410 
  19   2.0000      -8.402125      -228.6334 
  20   2.0000      -6.292257      -171.2210 
  21   2.0000      -6.288597      -171.1214 
  22   2.0000      -6.286779      -171.0720 
  23   2.0000      -4.031830      -109.7117 
  24   2.0000      -2.351135       -63.9776 
  25   2.0000      -2.316919       -63.0466 
  26   2.0000      -2.315418       -63.0057 
  27   2.0000      -1.300267       -35.3821 
  28   2.0000      -1.216613       -33.1057 
  29   2.0000      -1.204274       -32.7700 
  30   2.0000      -1.175313       -31.9819 
  31   2.0000      -1.127961       -30.6934 
  32   2.0000      -1.028996       -28.0004 
  33   2.0000      -0.990424       -26.9508 
  34   2.0000      -0.980287       -26.6750 
  35   2.0000      -0.966584       -26.3021 
  36   2.0000      -0.961789       -26.1716 
  37   2.0000      -0.923513       -25.1301 
  38   2.0000      -0.904522       -24.6133 
  39   2.0000      -0.875237       -23.8164 
  40   2.0000      -0.798766       -21.7355 
  41   2.0000      -0.791344       -21.5336 
  42   2.0000      -0.789519       -21.4839 
  43   2.0000      -0.782525       -21.2936 
  44   2.0000      -0.774625       -21.0786 
  45   2.0000      -0.756223       -20.5779 
  46   2.0000      -0.744823       -20.2677 
  47   2.0000      -0.723978       -19.7004 
  48   2.0000      -0.695932       -18.9373 
  49   2.0000      -0.671755       -18.2794 
  50   2.0000      -0.665889       -18.1198 
  51   2.0000      -0.652904       -17.7664 
  52   2.0000      -0.648605       -17.6494 
  53   2.0000      -0.641540       -17.4572 
  54   2.0000      -0.635634       -17.2965 
  55   2.0000      -0.627223       -17.0676 
  56   2.0000      -0.624189       -16.9851 
  57   2.0000      -0.613204       -16.6861 
  58   2.0000      -0.610744       -16.6192 
  59   2.0000      -0.609621       -16.5886 
  60   2.0000      -0.597883       -16.2692 
  61   2.0000      -0.589242       -16.0341 
  62   2.0000      -0.578713       -15.7476 
  63   2.0000      -0.573919       -15.6171 
  64   2.0000      -0.564926       -15.3724 
  65   2.0000      -0.554214       -15.0809 
  66   2.0000      -0.552458       -15.0332 
  67   2.0000      -0.548805       -14.9338 
  68   2.0000      -0.539366       -14.6769 
  69   2.0000      -0.535773       -14.5791 
  70   2.0000      -0.528575       -14.3833 
  71   2.0000      -0.522480       -14.2174 
  72   2.0000      -0.516713       -14.0605 
  73   2.0000      -0.507296       -13.8042 
  74   2.0000      -0.488168       -13.2837 
  75   2.0000      -0.481788       -13.1101 
  76   2.0000      -0.466044       -12.6817 
  77   2.0000      -0.450855       -12.2684 
  78   2.0000      -0.440362       -11.9829 
  79   2.0000      -0.424983       -11.5644 
  80   2.0000      -0.417178       -11.3520 
  81   2.0000      -0.404780       -11.0146 
  82   0.0000      -0.199650        -5.4328 
  83   0.0000      -0.166001        -4.5171 
  84   0.0000      -0.142179        -3.8689 
  85   0.0000      -0.105294        -2.8652 
  86   0.0000      -0.077889        -2.1195 
  87   0.0000      -0.069928        -1.9028 
  88   0.0000      -0.062156        -1.6914 
  89   0.0000      -0.049797        -1.3551 
  90   0.0000      -0.044815        -1.2195 
  91   0.0000      -0.036077        -0.9817 
  92   0.0000      -0.004760        -0.1295 
  93   0.0000      -0.002236        -0.0609 
  94   0.0000       0.008890         0.2419 
  95   0.0000       0.021914         0.5963 
  96   0.0000       0.026952         0.7334 
  97   0.0000       0.035305         0.9607 
  98   0.0000       0.044082         1.1995 
  99   0.0000       0.054250         1.4762 
 100   0.0000       0.067604         1.8396 
 101   0.0000       0.068984         1.8772 
 102   0.0000       0.070192         1.9100 
 103   0.0000       0.077648         2.1129 
 104   0.0000       0.082097         2.2340 
 105   0.0000       0.087926         2.3926 
 106   0.0000       0.092494         2.5169 
 107   0.0000       0.099663         2.7120 
 108   0.0000       0.107888         2.9358 
 109   0.0000       0.113380         3.0852 
 110   0.0000       0.114802         3.1239 
 111   0.0000       0.119933         3.2636 
 112   0.0000       0.121812         3.3147 
 113   0.0000       0.125739         3.4215 
 114   0.0000       0.131640         3.5821 
 115   0.0000       0.139133         3.7860 
 116   0.0000       0.143279         3.8988 
 117   0.0000       0.151164         4.1134 
 118   0.0000       0.155436         4.2296 
 119   0.0000       0.160724         4.3735 
 120   0.0000       0.164532         4.4771 
 121   0.0000       0.176288         4.7970 
 122   0.0000       0.186017         5.0618 
 123   0.0000       0.199848         5.4382 
 124   0.0000       0.219903         5.9839 
 125   0.0000       0.229312         6.2399 
 126   0.0000       0.256816         6.9883 
 127   0.0000       0.270043         7.3482 
 128   0.0000       0.279617         7.6088 
 129   0.0000       0.294183         8.0051 
 130   0.0000       0.301016         8.1911 
 131   0.0000       0.309327         8.4172 
 132   0.0000       0.322028         8.7628 
 133   0.0000       0.335552         9.1308 
 134   0.0000       0.342278         9.3139 
 135   0.0000       0.357750         9.7349 
 136   0.0000       0.364767         9.9258 
 137   0.0000       0.368584        10.0297 
 138   0.0000       0.383846        10.4450 
 139   0.0000       0.395855        10.7718 
 140   0.0000       0.399676        10.8757 
 141   0.0000       0.414269        11.2728 
 142   0.0000       0.422318        11.4919 
 143   0.0000       0.435046        11.8382 
 144   0.0000       0.444952        12.1078 
 145   0.0000       0.446922        12.1614 
 146   0.0000       0.452314        12.3081 
 147   0.0000       0.459029        12.4908 
 148   0.0000       0.469187        12.7672 
 149   0.0000       0.472381        12.8541 
 150   0.0000       0.478168        13.0116 
 151   0.0000       0.487211        13.2577 
 152   0.0000       0.497997        13.5512 
 153   0.0000       0.501595        13.6491 
 154   0.0000       0.507477        13.8092 
 155   0.0000       0.515286        14.0217 
 156   0.0000       0.528967        14.3939 
 157   0.0000       0.530308        14.4304 
[...]

----------------------
LOEWDIN ATOMIC CHARGES
----------------------
   0 Ir:   -0.213577
   1 C :   -0.038697
   2 C :   -0.056352
   3 C :   -0.047677
   4 C :   -0.056775
   5 C :   -0.025073
   6 N :   -0.003717
   7 C :   -0.068184
   8 C :   -0.365076
   9 H :    0.158033
  10 H :    0.134105
  11 H :    0.147182
  12 C :   -0.343311
  13 H :    0.157225
  14 H :    0.153494
  15 H :    0.137315
  16 H :    0.134806
  17 C :    0.036500
  18 C :   -0.183873
  19 H :    0.163877
  20 C :   -0.178620
  21 C :   -0.141168
  22 S :    0.460583
  23 C :   -0.263002
  24 H :    0.273266
  25 H :    0.163188
  26 H :    0.168000
  27 H :    0.186038
  28 H :    0.186660
  29 H :    0.194389
  30 O :   -0.276835
  31 O :   -0.213341
  32 C :    0.149149
  33 C :   -0.377766
  34 H :    0.158587
  35 H :    0.165607
  36 H :    0.151669
  37 H :    0.187924
  38 H :    0.185449

-------------------------------
LOEWDIN REDUCED ORBITAL CHARGES
-------------------------------
  0 Irs       :     2.452378  s :     2.452378
      pz      :     2.238179  p :     6.742974
      px      :     2.235350
      py      :     2.269444
      dz2     :     1.852361  d :     7.928383
      dxz     :     1.755060
      dyz     :     1.252054
      dx2y2   :     1.641169
      dxy     :     1.427739
      f0      :     0.011616  f :     0.089842
      f+1     :     0.003036
      f-1     :     0.013013
      f+2     :     0.017589
      f-2     :     0.016425
      f+3     :     0.011099
      f-3     :     0.017065
  1 C s       :     2.875996  s :     2.875996
      pz      :     1.046399  p :     3.058472
      px      :     1.088939
      py      :     0.923134
      dz2     :     0.026545  d :     0.104229
      dxz     :     0.027187
      dyz     :     0.017473
      dx2y2   :     0.018372
      dxy     :     0.014652
  2 C s       :     2.874844  s :     2.874844
      pz      :     1.047331  p :     3.078627
      px      :     1.074013
      py      :     0.957284
      dz2     :     0.025852  d :     0.102881
      dxz     :     0.027629
      dyz     :     0.017729
      dx2y2   :     0.018393
      dxy     :     0.013278
  3 C s       :     2.875401  s :     2.875401
      pz      :     1.037706  p :     3.069878
      px      :     1.075349
      py      :     0.956823
      dz2     :     0.024413  d :     0.102398
      dxz     :     0.032223
      dyz     :     0.016309
      dx2y2   :     0.015014
      dxy     :     0.014439
  4 C s       :     2.874347  s :     2.874347
      pz      :     1.094756  p :     3.080448
      px      :     1.035658
      py      :     0.950033
      dz2     :     0.022563  d :     0.101981
      dxz     :     0.031907
      dyz     :     0.012867
      dx2y2   :     0.017481
      dxy     :     0.017162
  5 C s       :     2.877163  s :     2.877163
      pz      :     1.064905  p :     3.043791
      px      :     1.032580
      py      :     0.946306
      dz2     :     0.025583  d :     0.104120
      dxz     :     0.029939
      dyz     :     0.015694
      dx2y2   :     0.015495
      dxy     :     0.017410
  6 N s       :     3.123105  s :     3.123105
      pz      :     1.271097  p :     3.781737
      px      :     1.289690
      py      :     1.220950
      dz2     :     0.029890  d :     0.098875
      dxz     :     0.027783
      dyz     :     0.019435
      dx2y2   :     0.011563
      dxy     :     0.010203
  7 C s       :     2.861966  s :     2.861966
      pz      :     1.060432  p :     3.071776
      px      :     0.937724
      py      :     1.073620
      dz2     :     0.021488  d :     0.134442
      dxz     :     0.029765
      dyz     :     0.022171
      dx2y2   :     0.028441
      dxy     :     0.032577
  8 C s       :     2.953050  s :     2.953050
      pz      :     1.127700  p :     3.344600
      px      :     1.122424
      py      :     1.094476
      dz2     :     0.010196  d :     0.067426
      dxz     :     0.018339
      dyz     :     0.012618
      dx2y2   :     0.008344
      dxy     :     0.017929
  9 H s       :     0.841967  s :     0.841967
 10 H s       :     0.865895  s :     0.865895
 11 H s       :     0.852818  s :     0.852818
 12 C s       :     2.952835  s :     2.952835
      pz      :     1.137078  p :     3.322614
      px      :     1.113076
      py      :     1.072461
      dz2     :     0.008120  d :     0.067862
      dxz     :     0.014010
      dyz     :     0.017881
      dx2y2   :     0.010339
      dxy     :     0.017511
 13 H s       :     0.842775  s :     0.842775
 14 H s       :     0.846506  s :     0.846506
 15 H s       :     0.862685  s :     0.862685
 16 H s       :     0.865194  s :     0.865194
 17 C s       :     2.878917  s :     2.878917
      pz      :     1.024496  p :     2.943770
      px      :     1.057986
      py      :     0.861288
      dz2     :     0.041005  d :     0.140813
      dxz     :     0.051127
      dyz     :     0.024443
      dx2y2   :     0.011749
      dxy     :     0.012490
 18 C s       :     2.897098  s :     2.897098
      pz      :     1.035586  p :     3.175409
      px      :     1.088055
      py      :     1.051768
      dz2     :     0.028809  d :     0.111366
      dxz     :     0.027651
      dyz     :     0.016693
      dx2y2   :     0.023201
      dxy     :     0.015013
 19 H s       :     0.836123  s :     0.836123
 20 C s       :     2.918483  s :     2.918483
      pz      :     1.076739  p :     3.170835
      px      :     1.042862
      py      :     1.051234
      dz2     :     0.009915  d :     0.089302
      dxz     :     0.031285
      dyz     :     0.009554
      dx2y2   :     0.017837
      dxy     :     0.020711
 21 C s       :     2.898586  s :     2.898586
      pz      :     1.058018  p :     3.148803
      px      :     1.089775
      py      :     1.001011
      dz2     :     0.022371  d :     0.093779
      dxz     :     0.025752
      dyz     :     0.014668
      dx2y2   :     0.018372
      dxy     :     0.012616
 22 S s       :     5.505997  s :     5.505997
      pz      :     3.309754  p :     9.881605
      px      :     3.083905
      py      :     3.487946
      dz2     :     0.034694  d :     0.151816
      dxz     :     0.030611
      dyz     :     0.026208
      dx2y2   :     0.035387
      dxy     :     0.024917
 23 C s       :     2.964594  s :     2.964594
      pz      :     1.111835  p :     3.212527
      px      :     1.020381
      py      :     1.080312
      dz2     :     0.018978  d :     0.085881
      dxz     :     0.025342
      dyz     :     0.012787
      dx2y2   :     0.015577
      dxy     :     0.013196
 24 H s       :     0.726734  s :     0.726734
 25 H s       :     0.836812  s :     0.836812
 26 H s       :     0.832000  s :     0.832000
 27 H s       :     0.813962  s :     0.813962
 28 H s       :     0.813340  s :     0.813340
 29 H s       :     0.805611  s :     0.805611
 30 O s       :     3.506195  s :     3.506195
      pz      :     1.473353  p :     4.716256
      px      :     1.508916
      py      :     1.733987
      dz2     :     0.018143  d :     0.054385
      dxz     :     0.012624
      dyz     :     0.016545
      dx2y2   :     0.003555
      dxy     :     0.003518
 31 O s       :     3.447133  s :     3.447133
      pz      :     1.694713  p :     4.707607
      px      :     1.638737
      py      :     1.374158
      dz2     :     0.009511  d :     0.058601
      dxz     :     0.003221
      dyz     :     0.016250
      dx2y2   :     0.016091
      dxy     :     0.013529
 32 C s       :     2.814505  s :     2.814505
      pz      :     1.014925  p :     2.712809
      px      :     0.752001
      py      :     0.945884
      dz2     :     0.078250  d :     0.323537
      dxz     :     0.042827
      dyz     :     0.109609
      dx2y2   :     0.045289
      dxy     :     0.047562
 33 C s       :     2.960430  s :     2.960430
      pz      :     1.094074  p :     3.354635
      px      :     1.148677
      py      :     1.111884
      dz2     :     0.006780  d :     0.062700
      dxz     :     0.017243
      dyz     :     0.018331
      dx2y2   :     0.017864
      dxy     :     0.002482
 34 H s       :     0.841413  s :     0.841413
 35 H s       :     0.834393  s :     0.834393
 36 H s       :     0.848331  s :     0.848331
 37 H s       :     0.812076  s :     0.812076
 38 H s       :     0.814551  s :     0.814551


                      *****************************
                      * MAYER POPULATION ANALYSIS *
                      *****************************

  NA   - Mulliken gross atomic population
  ZA   - Total nuclear charge
  QA   - Mulliken gross atomic charge
  VA   - Mayer's total valence
  BVA  - Mayer's bonded valence
  FA   - Mayer's free valence

  ATOM       NA         ZA         QA         VA         BVA        FA
  0 Ir    16.3804    17.0000     0.6196     3.7526     3.7526    -0.0000
  1 C      6.2079     6.0000    -0.2079     3.6959     3.6959    -0.0000
  2 C      6.2954     6.0000    -0.2954     3.7442     3.7442    -0.0000
  3 C      6.2319     6.0000    -0.2319     3.7292     3.7292    -0.0000
  4 C      6.2463     6.0000    -0.2463     3.7200     3.7200    -0.0000
  5 C      6.1640     6.0000    -0.1640     3.6889     3.6889    -0.0000
  6 N      7.4223     7.0000    -0.4223     3.2166     3.2166     0.0000
  7 C      6.1158     6.0000    -0.1158     3.6972     3.6972     0.0000
  8 C      6.6965     6.0000    -0.6965     3.6867     3.6867     0.0000
  9 H      0.7262     1.0000     0.2738     0.8960     0.8960     0.0000
 10 H      0.7739     1.0000     0.2261     0.9092     0.9092     0.0000
 11 H      0.7388     1.0000     0.2612     0.8971     0.8971     0.0000
 12 C      6.6407     6.0000    -0.6407     3.6725     3.6725     0.0000
 13 H      0.7179     1.0000     0.2821     0.8751     0.8751     0.0000
 14 H      0.7344     1.0000     0.2656     0.8962     0.8962     0.0000
 15 H      0.7691     1.0000     0.2309     0.9093     0.9093     0.0000
 16 H      0.7663     1.0000     0.2337     0.9049     0.9049    -0.0000
 17 C      5.9319     6.0000     0.0681     3.6305     3.6305     0.0000
 18 C      6.2189     6.0000    -0.2189     3.7114     3.7114    -0.0000
 19 H      0.7060     1.0000     0.2940     0.8851     0.8851     0.0000
 20 C      6.4095     6.0000    -0.4095     3.4533     3.4533    -0.0000
 21 C      6.1365     6.0000    -0.1365     3.7427     3.7427    -0.0000
 22 S     15.7062    16.0000     0.2938     2.5618     2.5618    -0.0000
 23 C      6.4303     6.0000    -0.4303     3.7407     3.7407    -0.0000
 24 H      0.5061     1.0000     0.4939     0.7512     0.7512     0.0000
 25 H      0.7313     1.0000     0.2687     0.9015     0.9015    -0.0000
 26 H      0.7023     1.0000     0.2977     0.8974     0.8974     0.0000
 27 H      0.7073     1.0000     0.2927     0.9012     0.9012    -0.0000
 28 H      0.7058     1.0000     0.2942     0.9042     0.9042    -0.0000
 29 H      0.6921     1.0000     0.3079     0.8911     0.8911    -0.0000
 30 O      8.4771     8.0000    -0.4771     2.1196     2.1196     0.0000
 31 O      8.5467     8.0000    -0.5467     2.0661     2.0661    -0.0000
 32 C      5.3911     6.0000     0.6089     3.9310     3.9310     0.0000
 33 C      6.7458     6.0000    -0.7458     3.6706     3.6706    -0.0000
 34 H      0.7320     1.0000     0.2680     0.8960     0.8960     0.0000
 35 H      0.7358     1.0000     0.2642     0.8964     0.8964    -0.0000
 36 H      0.7498     1.0000     0.2502     0.9021     0.9021     0.0000
 37 H      0.7044     1.0000     0.2956     0.9004     0.9004     0.0000
 38 H      0.7051     1.0000     0.2949     0.9039     0.9039    -0.0000

  Mayer bond orders larger than 0.100000
B(  0-Ir,  1-C ) :   0.4190 B(  0-Ir,  2-C ) :   0.5482 B(  0-Ir,  3-C ) :   0.4646 
B(  0-Ir,  4-C ) :   0.4489 B(  0-Ir,  5-C ) :   0.4019 B(  0-Ir,  6-N ) :   0.4609 
B(  0-Ir, 20-C ) :   0.2178 B(  0-Ir, 31-O ) :   0.5982 B(  1-C ,  2-C ) :   1.1136 
B(  1-C ,  4-C ) :   1.2491 B(  1-C , 27-H ) :   0.9029 B(  2-C ,  5-C ) :   1.1313 
B(  2-C , 28-H ) :   0.9065 B(  3-C ,  4-C ) :   1.1033 B(  3-C ,  5-C ) :   1.2347 
B(  3-C , 37-H ) :   0.9028 B(  4-C , 38-H ) :   0.8974 B(  5-C , 29-H ) :   0.8972 
B(  6-N ,  7-C ) :   0.8907 B(  6-N , 17-C ) :   1.7051 B(  7-C ,  8-C ) :   0.9927 
B(  7-C , 12-C ) :   0.9697 B(  7-C , 13-H ) :   0.8702 B(  8-C ,  9-H ) :   0.9030 
B(  8-C , 10-H ) :   0.9122 B(  8-C , 11-H ) :   0.9076 B( 12-C , 14-H ) :   0.9061 
B( 12-C , 15-H ) :   0.9152 B( 12-C , 16-H ) :   0.9103 B( 17-C , 18-C ) :   1.0396 
B( 17-C , 19-H ) :   0.8734 B( 18-C , 20-C ) :   1.3060 B( 18-C , 22-S ) :   1.2209 
B( 20-C , 21-C ) :   1.2564 B( 20-C , 24-H ) :   0.5222 B( 21-C , 23-C ) :   1.5508 
B( 21-C , 25-H ) :   0.9034 B( 22-S , 23-C ) :   1.1988 B( 23-C , 26-H ) :   0.8923 
B( 24-H , 30-O ) :   0.2117 B( 30-O , 32-C ) :   1.7304 B( 31-O , 32-C ) :   1.2503 
B( 32-C , 33-C ) :   0.9454 B( 33-C , 34-H ) :   0.9061 B( 33-C , 35-H ) :   0.9002 
B( 33-C , 36-H ) :   0.9104 


------------------
HIRSHFELD ANALYSIS
------------------

Total integrated alpha density =     82.000362232
Total integrated beta density  =     82.000362232

  ATOM     CHARGE      SPIN    
   0 Ir   0.209800    0.000000
   1 C    0.008272    0.000000
   2 C    0.004253    0.000000
   3 C    0.004169    0.000000
   4 C   -0.004883    0.000000
   5 C    0.018838    0.000000
   6 N   -0.065055    0.000000
   7 C    0.054869    0.000000
   8 C   -0.070616    0.000000
   9 H    0.054541    0.000000
  10 H    0.037996    0.000000
  11 H    0.044397    0.000000
  12 C   -0.069943    0.000000
  13 H    0.047860    0.000000
  14 H    0.051995    0.000000
  15 H    0.036637    0.000000
  16 H    0.030859    0.000000
  17 C    0.103261    0.000000
  18 C   -0.003312    0.000000
  19 H    0.079329    0.000000
  20 C   -0.058525    0.000000
  21 C   -0.032560    0.000000
  22 S    0.119222    0.000000
  23 C   -0.027310    0.000000
  24 H    0.055873    0.000000
  25 H    0.070472    0.000000
  26 H    0.077620    0.000000
  27 H    0.084678    0.000000
  28 H    0.086562    0.000000
  29 H    0.095521    0.000000
  30 O   -0.267495    0.000000
  31 O   -0.263732    0.000000
  32 C    0.237643    0.000000
  33 C   -0.069506    0.000000
  34 H    0.053148    0.000000
  35 H    0.057670    0.000000
  36 H    0.046689    0.000000
  37 H    0.085811    0.000000
  38 H    0.074227    0.000000

  TOTAL   0.999276    0.000000

-------
TIMINGS
-------

Total SCF time: 0 days 0 hours 4 min 48 sec 

Total time                  ....     288.862 sec
Sum of individual times     ....     288.260 sec  ( 99.8%)

Fock matrix formation       ....     280.328 sec  ( 97.0%)
  Split-RI-J                ....      22.869 sec  (  8.2% of F)
  Chain of spheres X        ....     243.498 sec  ( 86.9% of F)
  XC integration            ....      13.938 sec  (  5.0% of F)
    Basis function eval.    ....       6.409 sec  ( 46.0% of XC)
    Density eval.           ....       3.696 sec  ( 26.5% of XC)
    XC-Functional eval.     ....       1.020 sec  (  7.3% of XC)
    XC-Potential eval.      ....       2.260 sec  ( 16.2% of XC)
Diagonalization             ....       0.215 sec  (  0.1%)
Density matrix formation    ....       0.035 sec  (  0.0%)
Population analysis         ....       1.152 sec  (  0.4%)
Initial guess               ....       0.031 sec  (  0.0%)
Orbital Transformation      ....       0.000 sec  (  0.0%)
Orbital Orthonormalization  ....       0.023 sec  (  0.0%)
DIIS solution               ....       0.091 sec  (  0.0%)
Grid generation             ....       6.408 sec  (  2.2%)

Maximum memory used throughout the entire SCF-calculation: 174.0 MB


-------------------------------------------------------------------------------
                          DFT DISPERSION CORRECTION                            
                                                                               
                              DFTD3 V3.1  Rev 1                                
                          USING Becke-Johnson damping                          
-------------------------------------------------------------------------------
The PBEh-3c composite method is recognized
Using three-body term ABC
Active option DFTDOPT                   ...         4   

molecular C6(AA) [au] = 19565.399804 


            DFT-D V3
 parameters
 s6 scaling factor         :     1.0000 
 a1 scaling factor         :     0.4860 
 s8 scaling factor         :     0.0000 
 a2 scaling factor         :     4.5000 
 Damping factor alpha9(ATM):    16.0000 
 ad hoc parameters k1-k3   :    16.0000     1.3333    -4.0000 

 Edisp/kcal,au: -19.426686440248  -0.030958392137 
 E6   /kcal   : -19.779134285 
 E8   /kcal   :  -0.000000000 
 E6(ABC)      :   0.352447845 
 % E8         :   0.000000000 
 % E6(ABC)    :  -1.814245812 

-------------------------   ----------------
Dispersion correction           -0.030958392
-------------------------   ----------------

 ** NOTE ** -> element ir will be treated as co
NOTIFICATION: Different basis set in ORCA and otool_gcp:
ORCA: 358  gCP: 357 
If you are NOT using ECPs, check your basis set inputs!
------------------   -----------------
gCP correction             0.077684973
------------------   -----------------

-------------------------   --------------------
FINAL SINGLE POINT ENERGY     -1288.398322468355
-------------------------   --------------------

                                *** OPTIMIZATION RUN DONE ***

                            ***************************************
                            *     ORCA property calculations      *
                            ***************************************

                                    ---------------------
                                    Active property flags
                                    ---------------------
   (+) Dipole Moment


------------------------------------------------------------------------------
                       ORCA ELECTRIC PROPERTIES CALCULATION
------------------------------------------------------------------------------

Dipole Moment Calculation                       ... on
Quadrupole Moment Calculation                   ... off
Polarizability Calculation                      ... off
GBWName                                         ... reaction4-IEIP_ts_guess_scan_2-2_orca.gbw
Electron density                                ... reaction4-IEIP_ts_guess_scan_2-2_orca.scfp
The origin for moment calculation is the CENTER OF MASS  = ( 0.848825, -0.641129 -0.134298)

-------------
DIPOLE MOMENT
-------------
                                X             Y             Z
Electronic contribution:     35.05039     -67.19533      71.88779
Nuclear contribution   :    -35.69035      65.86111     -72.18642
                        -----------------------------------------
Total Dipole Moment    :     -0.63996      -1.33422      -0.29863
                        -----------------------------------------
Magnitude (a.u.)       :      1.50960
Magnitude (Debye)      :      3.83709



--------------------
Rotational spectrum 
--------------------
 
Rotational constants in cm-1:     0.010818     0.009121     0.008276 
Rotational constants in MHz :   324.319694   273.441343   248.110568 

 Dipole components along the rotational axes: 
x,y,z [a.u.] :    -0.360879    -0.487089     1.382530 
x,y,z [Debye]:    -0.917282    -1.238082     3.514112 

 

Timings for individual modules:

Sum of individual times         ...     4020.979 sec (=  67.016 min)
GTO integral calculation        ...       11.631 sec (=   0.194 min)   0.3 %
SCF iterations                  ...     3316.755 sec (=  55.279 min)  82.5 %
SCF Gradient evaluation         ...      690.916 sec (=  11.515 min)  17.2 %
Geometry relaxation             ...        1.677 sec (=   0.028 min)   0.0 %
                             ****ORCA TERMINATED NORMALLY****
TOTAL RUN TIME: 0 days 1 hours 7 minutes 3 seconds 460 msec
