
                                 *****************
                                 * O   R   C   A *
                                 *****************

                                            #,                                       
                                            ###                                      
                                            ####                                     
                                            #####                                    
                                            ######                                   
                                           ########,                                 
                                     ,,################,,,,,                         
                               ,,#################################,,                 
                          ,,##########################################,,             
                       ,#########################################, ''#####,          
                    ,#############################################,,   '####,        
                  ,##################################################,,,,####,       
                ,###########''''           ''''###############################       
              ,#####''   ,,,,##########,,,,          '''####'''          '####       
            ,##' ,,,,###########################,,,                        '##       
           ' ,,###''''                  '''############,,,                           
         ,,##''                                '''############,,,,        ,,,,,,###''
      ,#''                                            '''#######################'''  
     '                                                          ''''####''''         
             ,#######,   #######,   ,#######,      ##                                
            ,#'     '#,  ##    ##  ,#'     '#,    #''#        ######   ,####,        
            ##       ##  ##   ,#'  ##            #'  '#       #        #'  '#        
            ##       ##  #######   ##           ,######,      #####,   #    #        
            '#,     ,#'  ##    ##  '#,     ,#' ,#      #,         ##   #,  ,#        
             '#######'   ##     ##  '#######'  #'      '#     #####' # '####'        



                  #######################################################
                  #                        -***-                        #
                  #          Department of theory and spectroscopy      #
                  #    Directorship and core code : Frank Neese         #
                  #        Max Planck Institute fuer Kohlenforschung    #
                  #                Kaiser Wilhelm Platz 1               #
                  #                 D-45470 Muelheim/Ruhr               #
                  #                      Germany                        #
                  #                                                     #
                  #                  All rights reserved                #
                  #                        -***-                        #
                  #######################################################


                         Program Version 5.0.3 -  RELEASE  -


 With contributions from (in alphabetic order):
   Daniel Aravena         : Magnetic Suceptibility
   Michael Atanasov       : Ab Initio Ligand Field Theory (pilot matlab implementation)
   Alexander A. Auer      : GIAO ZORA, VPT2 properties, NMR spectrum
   Ute Becker             : Parallelization
   Giovanni Bistoni       : ED, misc. LED, open-shell LED, HFLD
   Martin Brehm           : Molecular dynamics
   Dmytro Bykov           : SCF Hessian
   Vijay G. Chilkuri      : MRCI spin determinant printing, contributions to CSF-ICE
   Dipayan Datta          : RHF DLPNO-CCSD density
   Achintya Kumar Dutta   : EOM-CC, STEOM-CC
   Dmitry Ganyushin       : Spin-Orbit,Spin-Spin,Magnetic field MRCI
   Miquel Garcia          : C-PCM and meta-GGA Hessian, CC/C-PCM, Gaussian charge scheme
   Yang Guo               : DLPNO-NEVPT2, F12-NEVPT2, CIM, IAO-localization
   Andreas Hansen         : Spin unrestricted coupled pair/coupled cluster methods
   Benjamin Helmich-Paris : MC-RPA, TRAH-SCF, COSX integrals
   Lee Huntington         : MR-EOM, pCC
   Robert Izsak           : Overlap fitted RIJCOSX, COSX-SCS-MP3, EOM
   Marcus Kettner         : VPT2
   Christian Kollmar      : KDIIS, OOCD, Brueckner-CCSD(T), CCSD density, CASPT2, CASPT2-K
   Simone Kossmann        : Meta GGA functionals, TD-DFT gradient, OOMP2, MP2 Hessian
   Martin Krupicka        : Initial AUTO-CI
   Lucas Lang             : DCDCAS
   Marvin Lechner         : AUTO-CI (C++ implementation), FIC-MRCC
   Dagmar Lenk            : GEPOL surface, SMD
   Dimitrios Liakos       : Extrapolation schemes; Compound Job, initial MDCI parallelization
   Dimitrios Manganas     : Further ROCIS development; embedding schemes
   Dimitrios Pantazis     : SARC Basis sets
   Anastasios Papadopoulos: AUTO-CI, single reference methods and gradients
   Taras Petrenko         : DFT Hessian,TD-DFT gradient, ASA, ECA, R-Raman, ABS, FL, XAS/XES, NRVS
   Peter Pinski           : DLPNO-MP2, DLPNO-MP2 Gradient
   Christoph Reimann      : Effective Core Potentials
   Marius Retegan         : Local ZFS, SOC
   Christoph Riplinger    : Optimizer, TS searches, QM/MM, DLPNO-CCSD(T), (RO)-DLPNO pert. Triples
   Tobias Risthaus        : Range-separated hybrids, TD-DFT gradient, RPA, STAB
   Michael Roemelt        : Original ROCIS implementation
   Masaaki Saitow         : Open-shell DLPNO-CCSD energy and density
   Barbara Sandhoefer     : DKH picture change effects
   Avijit Sen             : IP-ROCIS
   Kantharuban Sivalingam : CASSCF convergence, NEVPT2, FIC-MRCI
   Bernardo de Souza      : ESD, SOC TD-DFT
   Georgi Stoychev        : AutoAux, RI-MP2 NMR, DLPNO-MP2 response
   Willem Van den Heuvel  : Paramagnetic NMR
   Boris Wezisla          : Elementary symmetry handling
   Frank Wennmohs         : Technical directorship


 We gratefully acknowledge several colleagues who have allowed us to
 interface, adapt or use parts of their codes:
   Stefan Grimme, W. Hujo, H. Kruse, P. Pracht,  : VdW corrections, initial TS optimization,
                  C. Bannwarth, S. Ehlert          DFT functionals, gCP, sTDA/sTD-DF
   Ed Valeev, F. Pavosevic, A. Kumar             : LibInt (2-el integral package), F12 methods
   Garnet Chan, S. Sharma, J. Yang, R. Olivares  : DMRG
   Ulf Ekstrom                                   : XCFun DFT Library
   Mihaly Kallay                                 : mrcc  (arbitrary order and MRCC methods)
   Jiri Pittner, Ondrej Demel                    : Mk-CCSD
   Frank Weinhold                                : gennbo (NPA and NBO analysis)
   Christopher J. Cramer and Donald G. Truhlar   : smd solvation model
   Lars Goerigk                                  : TD-DFT with DH, B97 family of functionals
   V. Asgeirsson, H. Jonsson                     : NEB implementation
   FAccTs GmbH                                   : IRC, NEB, NEB-TS, DLPNO-Multilevel, CI-OPT
                                                   MM, QMMM, 2- and 3-layer-ONIOM, Crystal-QMMM,
                                                   LR-CPCM, SF, NACMEs, symmetry and pop. for TD-DFT,
                                                   nearIR, NL-DFT gradient (VV10), updates on ESD,
                                                   ML-optimized integration grids
   S Lehtola, MJT Oliveira, MAL Marques          : LibXC Library
   Liviu Ungur et al                             : ANISO software


 Your calculation uses the libint2 library for the computation of 2-el integrals
 For citations please refer to: http://libint.valeyev.net

 Your ORCA version has been built with support for libXC version: 5.1.0
 For citations please refer to: https://tddft.org/programs/libxc/

 This ORCA versions uses:
   CBLAS   interface :  Fast vector & matrix operations
   LAPACKE interface :  Fast linear algebra routines
   SCALAPACK package :  Parallel linear algebra routines
   Shared memory     :  Shared parallel matrices
   BLAS/LAPACK       :  OpenBLAS 0.3.15  USE64BITINT DYNAMIC_ARCH NO_AFFINITY SkylakeX SINGLE_THREADED
        Core in use  :  SkylakeX
   Copyright (c) 2011-2014, The OpenBLAS Project


Your calculation utilizes the geometrical counterpoise correction gCP
Please cite in your paper:
H.Kruse, S. Grimme J.Chem.Phys., 136, (2012), 154101 
   

Your calculation utilizes the atom-pairwise dispersion correction
with the Becke-Johnson damping scheme (D3BJ)
Cite in your paper:
S.Grimme, S.Ehrlich, L.Goerigk, J Comput Chem, (2011), 32, 1456–1465 
S.Grimme, J.Antony, S.Ehrlich and H.Krieg, J.Chem.Phys., 132, (2010), 154104 
   

Your calculation employs the composite approach PBEh-3c.
Please cite in your paper:
S. Grimme, J. G. Brandenburg, C. Bannwarth, A. Hansen J.Chem.Phys., 143, (2015), 054107 
   

================================================================================

cite the ECPs for Ir [Def2-ECP] as follows:
Ce-Yb(ecp-28): M. Dolg, H. Stoll, H.Preuss, J. Chem. Phys., 1989, 90, 1730-1734.
Y-Cd(ecp-28), Hf-Hg(ecp-46): D. Andrae,U. Haeussermann, M. Dolg, H. Stoll, H. Preuss, Theor. Chim. Acta, 1990, 77, 123-141.
In-Sb(ecp-28), Tl-Bi(ecp-46): B. Metz, H. Stoll, M. Dolg, J. Chem. Phys., 2000, 113, 2563-2569.
Te-Xe(ecp-28), Po-Rn(ecp-46): K. A. Peterson, D. Figgen, E. Goll, H. Stoll, M. Dolg, J. Chem. Phys., 2003, 119, 11113-11123.
Rb(ecp-28), Cs(ecp-46): T. Leininger, A. Nicklass, W. Kuechle, H. Stoll, M. Dolg, A. Bergner, Chem. Phys. Lett., 1996, 255, 274-280.
Sr(ecp-28), Ba(ecp-46): M. Kaupp, P. V. Schleyer, H. Stoll and H. Preuss, J. Chem. Phys., 1991, 94, 1360-1366.
La(ecp-46): M. Dolg, H. Stoll, A. Savin, H. Preuss, Theor. Chim. Acta, 1989, 75, 173-194.
Lu(ecp-28): X. Cao, M. Dolg, J. Chem. Phys., 2001, 115, 7348-7355.

ECP parameters for Ir [Def2-ECP] have been obtained from:
TURBOMOLE (7.0.2)

----- Orbital basis set information -----
Your calculation utilizes the basis: def2-mSVP

----- AuxJ basis set information -----
Your calculation utilizes the auxiliary basis: def2/J
   F. Weigend, Phys. Chem. Chem. Phys. 8, 1057 (2006).

================================================================================
                                        WARNINGS
                       Please study these warnings very carefully!
================================================================================


WARNING: Geometry Optimization
  ===> : Switching off AutoStart
         For restart on a previous wavefunction, please use MOREAD

WARNING: No Hueckel Guess possible with ECP basis!
  ===> : Switching to HCORE guess!

INFO   : the flag for use of the SHARK integral package has been found!

================================================================================
                                       INPUT FILE
================================================================================
NAME = reaction4-IEIP_ts_guess_scan_1-14_orca.inp
|  1> ! Opt PBEh-3c
|  2> %geom Constraints
|  3> { B 0 20 2.5571428571428574 C }
|  4> { B 24 30 1.3 C }
|  5>     end
|  6> end
|  7> %output 
|  8> xyzfile=True 
|  9> end 
| 10> %scf 
| 11> maxiter 250 
| 12> end
| 13> %output
| 14> Print[P_Hirshfeld] = 1
| 15> end
| 16> % maxcore
| 17> 4000
| 18> *xyz 1 1
| 19> Ir   0.56010222  -0.74953433   0.53546343 
| 20> C    0.00212736  -2.82347288   0.39938735 
| 21> C    0.04703897  -2.37881623   1.77087700 
| 22> C    2.16037102  -2.16690694   0.88119602 
| 23> C    1.28376167  -2.66228033  -0.15668122 
| 24> C    1.40962245  -2.03032198   2.06125554 
| 25> N   -1.03434403   0.13755248  -0.49881077 
| 26> C   -2.32290487   0.44846457   0.14454990 
| 27> C   -3.11465695   1.53327099  -0.56911340 
| 28> H   -3.95265429   1.82885239   0.06073945 
| 29> H   -3.54214042   1.19743761  -1.51510055 
| 30> H   -2.51500370   2.42552932  -0.75117914 
| 31> C   -3.14073963  -0.82724939   0.30539826 
| 32> H   -2.05683126   0.81801770   1.13648705 
| 33> H   -4.06992061  -0.60322683   0.82732406 
| 34> H   -3.39865606  -1.25707007  -0.66344733 
| 35> H   -2.61592703  -1.58061874   0.89108055 
| 36> C   -0.82789804   0.34814686  -1.74392403 
| 37> C    0.51593328   0.17548764  -2.23905784 
| 38> H   -1.62442064   0.68462011  -2.40210204 
| 39> C    1.63037798   0.49976514  -1.47793187 
| 40> C    2.82093433   0.15449635  -2.17493118 
| 41> S    0.91564871  -0.46398256  -3.77679653 
| 42> C    2.58765454  -0.36192228  -3.41366821 
| 43> H    1.55515085   1.39489704  -0.60391135 
| 44> H    3.81592520   0.33548247  -1.79467477 
| 45> H    3.31438173  -0.67157320  -4.14964454 
| 46> H   -0.87418827  -3.17912901  -0.12320867 
| 47> H   -0.76359095  -2.41192757   2.48403993 
| 48> H    1.77249422  -1.64662211   3.00395678 
| 49> O    1.40495544   2.38728512   0.24458978 
| 50> O    0.53976319   0.92539597   1.69199135 
| 51> C    0.96424322   2.09124776   1.36141624 
| 52> C    0.93265989   3.11902621   2.45448872 
| 53> H    0.87257927   4.12164419   2.03971626 
| 54> H    1.85955799   3.05320499   3.02787791 
| 55> H    0.10956628   2.94798950   3.14438760 
| 56> H    3.20973795  -1.93938309   0.76566779 
| 57> H    1.56865901  -2.87458686  -1.17696741 
| 58> *
| 59> 
| 60>                          ****END OF INPUT****
================================================================================

                       *****************************
                       * Geometry Optimization Run *
                       *****************************

Geometry optimization settings:
Update method            Update   .... BFGS
Choice of coordinates    CoordSys .... Z-matrix Internals
Initial Hessian          InHess   .... Almoef's Model

Convergence Tolerances:
Energy Change            TolE     ....  5.0000e-06 Eh
Max. Gradient            TolMAXG  ....  3.0000e-04 Eh/bohr
RMS Gradient             TolRMSG  ....  1.0000e-04 Eh/bohr
Max. Displacement        TolMAXD  ....  4.0000e-03 bohr
RMS Displacement         TolRMSD  ....  2.0000e-03 bohr
Strict Convergence                ....  False
------------------------------------------------------------------------------
                        ORCA OPTIMIZATION COORDINATE SETUP
------------------------------------------------------------------------------

The optimization will be done in new redundant internal coordinates
Making redundant internal coordinates   ...  (new redundants) done
Evaluating the initial hessian          ...  (Almloef) done
Evaluating the coordinates              ...  done
Calculating the B-matrix                .... done
Calculating the G-matrix                .... done
Diagonalizing the G-matrix              .... done
Imposing constraints:
 Iter   0:  RMS(Cart)=    0.0219227214 RMS(Int)=    0.0077879639
 Iter   1:  RMS(Cart)=    0.0029321962 RMS(Int)=    0.0011574487
 Iter   2:  RMS(Cart)=    0.0004325373 RMS(Int)=    0.0001741756
 Iter   3:  RMS(Cart)=    0.0000648584 RMS(Int)=    0.0000262425
 Iter   4:  RMS(Cart)=    0.0000097612 RMS(Int)=    0.0000039546
 Iter   5:  RMS(Cart)=    0.0000014705 RMS(Int)=    0.0000005959
 Iter   6:  RMS(Cart)=    0.0000002216 RMS(Int)=    0.0000000898
 Iter   7:  RMS(Cart)=    0.0000000334 RMS(Int)=    0.0000000135
CONVERGED
Small eigenvalue found = 1.334e-02
Small eigenvalue found = 2.482e-02
Small eigenvalue found = 2.640e-02
The first mode is                       ....  234
The number of degrees of freedom        ....  111
Storing new coordinates                 .... done

    -----------------------------------------------------------------
                    Redundant Internal Coordinates


    -----------------------------------------------------------------
         Definition                    Initial Value    Approx d2E/dq
    -----------------------------------------------------------------
      1. B(C   1,Ir  0)                  2.1518         0.088507   
      2. B(C   2,C   1)                  1.4427         0.515259   
      3. B(C   2,Ir  0)                  2.1080         0.103998   
      4. B(C   3,Ir  0)                  2.1654         0.084226   
      5. B(C   4,Ir  0)                  2.1589         0.086253   
      6. B(C   4,C   1)                  1.4068         0.588403   
      7. B(C   4,C   3)                  1.4462         0.508549   
      8. B(C   5,C   3)                  1.4056         0.590685   
      9. B(C   5,C   2)                  1.4363         0.527447   
     10. B(C   5,Ir  0)                  2.1656         0.084169   
     11. B(N   6,Ir  0)                  2.0964         0.096891   
     12. B(C   7,N   6)                  1.4734         0.411892   
     13. B(C   8,C   7)                  1.5209         0.386342   
     14. B(H   9,C   8)                  1.0892         0.361181   
     15. B(H  10,C   8)                  1.0911         0.358697   
     16. B(H  11,C   8)                  1.0903         0.359641   
     17. B(C  12,C   7)                  1.5239         0.382086   
     18. B(H  13,C   7)                  1.0915         0.358162   
     19. B(H  14,C  12)                  1.0890         0.361395   
     20. B(H  15,C  12)                  1.0908         0.358993   
     21. B(H  16,C  12)                  1.0890         0.361367   
     22. B(C  17,N   6)                  1.2760         0.839602   
     23. B(C  18,C  17)                  1.4403         0.515173   
     24. B(H  19,C  17)                  1.0867         0.364527   
     25. B(C  20,C  18)                  1.3883         0.629478   
     26. B(C  20,Ir  0)                  2.5571         0.017069 C 
     27. B(C  21,C  20)                  1.4225         0.555243   
     28. B(S  22,C  18)                  1.7128         0.514828   
     29. B(C  23,C  21)                  1.3620         0.691988   
     30. B(C  23,S  22)                  1.7136         0.512324   
     31. B(H  24,C  20)                  1.2527         0.197626   
     32. B(H  25,C  21)                  1.0805         0.372967   
     33. B(H  26,C  23)                  1.0797         0.374034   
     34. B(H  27,C   1)                  1.0805         0.372860   
     35. B(H  28,C   2)                  1.0802         0.373309   
     36. B(H  29,C   5)                  1.0806         0.372821   
     37. B(O  30,H  24)                  1.3000         0.141490 C 
     38. B(O  31,Ir  0)                  2.0358         0.121600   
     39. B(C  32,O  30)                  1.2339         0.983159   
     40. B(C  32,O  31)                  1.2819         0.826001   
     41. B(C  33,C  32)                  1.5007         0.416012   
     42. B(H  34,C  33)                  1.0867         0.364509   
     43. B(H  35,C  33)                  1.0919         0.357594   
     44. B(H  36,C  33)                  1.0875         0.363397   
     45. B(H  37,C   3)                  1.0800         0.373648   
     46. B(H  38,C   4)                  1.0804         0.373051   
     47. A(C   4,Ir  0,N   6)          118.1303         0.250893   
     48. A(C   3,Ir  0,C   5)           37.8774         0.246098   
     49. A(C   3,Ir  0,N   6)          156.5592         0.250024   
     50. A(C   5,Ir  0,O  31)           95.1401         0.258492   
     51. A(C   1,Ir  0,C   4)           38.0941         0.248753   
     52. A(C   1,Ir  0,N   6)          100.3000         0.251841   
     53. A(C   3,Ir  0,O  31)          117.0735         0.258519   
     54. A(C   4,Ir  0,O  31)          156.1297         0.259434   
     55. A(C   2,Ir  0,C   5)           39.2479         0.253778   
     56. A(C   1,Ir  0,C   2)           39.5745         0.255663   
     57. A(C   2,Ir  0,N   6)          115.4753         0.257895   
     58. A(C   2,Ir  0,C   4)           65.4840         0.254693   
     59. A(C   3,Ir  0,C   4)           39.0754         0.246971   
     60. A(C   1,Ir  0,O  31)          145.6734         0.260432   
     61. A(N   6,Ir  0,O  31)           85.6775         0.262728   
     62. A(C   4,Ir  0,C   5)           64.5763         0.246946   
     63. A(C   1,Ir  0,C   3)           64.6085         0.247896   
     64. A(C   2,Ir  0,C   3)           65.2102         0.253803   
     65. A(C   2,Ir  0,O  31)          107.4354         0.266805   
     66. A(C   5,Ir  0,N   6)          153.5631         0.249999   
     67. A(C   1,Ir  0,C   5)           64.9465         0.247871   
     68. A(C   4,C   1,H  27)          125.8492         0.351866   
     69. A(Ir  0,C   1,C   2)           68.5741         0.314815   
     70. A(C   2,C   1,H  27)          125.9108         0.344086   
     71. A(C   2,C   1,C   4)          108.1924         0.416017   
     72. A(Ir  0,C   1,H  27)          123.9266         0.270517   
     73. A(Ir  0,C   1,C   4)           71.2241         0.321703   
     74. A(C   1,C   2,C   5)          107.2552         0.408022   
     75. A(C   5,C   2,H  28)          125.8705         0.345509   
     76. A(Ir  0,C   2,C   5)           72.5403         0.324454   
     77. A(Ir  0,C   2,C   1)           71.8514         0.323211   
     78. A(Ir  0,C   2,H  28)          126.3935         0.277317   
     79. A(C   1,C   2,H  28)          126.5064         0.344156   
     80. A(Ir  0,C   3,H  37)          124.2752         0.268578   
     81. A(Ir  0,C   3,C   5)           71.0685         0.319308   
     82. A(C   5,C   3,H  37)          126.0542         0.352223   
     83. A(C   4,C   3,H  37)          125.7572         0.343452   
     84. A(Ir  0,C   3,C   4)           70.2191         0.311634   
     85. A(C   4,C   3,C   5)          108.1883         0.415334   
     86. A(C   3,C   4,H  38)          125.8155         0.343360   
     87. A(Ir  0,C   4,C   1)           70.6818         0.320348   
     88. A(C   1,C   4,H  38)          126.2513         0.351897   
     89. A(Ir  0,C   4,H  38)          124.4230         0.269482   
     90. A(Ir  0,C   4,C   3)           70.7055         0.312836   
     91. A(C   1,C   4,C   3)          107.9325         0.415048   
     92. A(Ir  0,C   5,H  29)          122.4431         0.268460   
     93. A(C   3,C   5,H  29)          125.9953         0.352091   
     94. A(C   2,C   5,H  29)          125.5322         0.345434   
     95. A(Ir  0,C   5,C   3)           71.0541         0.319272   
     96. A(C   2,C   5,C   3)          108.2725         0.418040   
     97. A(Ir  0,C   5,C   2)           68.2118         0.313446   
     98. A(Ir  0,N   6,C  17)          114.7126         0.342477   
     99. A(C   7,N   6,C  17)          122.3555         0.420383   
    100. A(Ir  0,N   6,C   7)          122.8857         0.304742   
    101. A(N   6,C   7,C   8)          113.6344         0.369298   
    102. A(N   6,C   7,C  12)          109.8032         0.368596   
    103. A(C   8,C   7,C  12)          111.5472         0.366859   
    104. A(N   6,C   7,H  13)          104.7783         0.327306   
    105. A(C   8,C   7,H  13)          108.1717         0.325826   
    106. A(C  12,C   7,H  13)          108.5630         0.325233   
    107. A(C   7,C   8,H  11)          112.0704         0.326047   
    108. A(H   9,C   8,H  11)          107.3148         0.290918   
    109. A(H  10,C   8,H  11)          108.8192         0.290603   
    110. A(C   7,C   8,H   9)          108.8293         0.326276   
    111. A(C   7,C   8,H  10)          113.0341         0.325906   
    112. A(H   9,C   8,H  10)          106.4674         0.290798   
    113. A(C   7,C  12,H  14)          109.6511         0.325714   
    114. A(C   7,C  12,H  15)          111.2848         0.325357   
    115. A(H  14,C  12,H  15)          107.7571         0.290863   
    116. A(C   7,C  12,H  16)          112.1638         0.325710   
    117. A(H  14,C  12,H  16)          107.2013         0.291164   
    118. A(H  15,C  12,H  16)          108.6035         0.290859   
    119. A(N   6,C  17,C  18)          117.1179         0.440489   
    120. A(N   6,C  17,H  19)          121.7564         0.370107   
    121. A(C  18,C  17,H  19)          121.0879         0.342775   
    122. A(C  17,C  18,C  20)          122.2004         0.421038   
    123. A(C  17,C  18,S  22)          124.6527         0.428539   
    124. A(C  20,C  18,S  22)          113.1359         0.444294   
    125. A(C  18,C  20,C  21)          110.1892         0.426715   
    126. A(C  18,C  20,H  24)          120.2718         0.320189   
    127. A(C  21,C  20,H  24)          124.2295         0.313715   
    128. A(C  20,C  21,H  25)          123.8727         0.348455   
    129. A(C  23,C  21,H  25)          122.7313         0.361711   
    130. A(C  20,C  21,C  23)          113.2950         0.434030   
    131. A(C  18,S  22,C  23)           90.8707         0.451920   
    132. A(C  21,C  23,H  26)          127.8382         0.361888   
    133. A(S  22,C  23,H  26)          119.6838         0.361836   
    134. A(C  21,C  23,S  22)          112.4615         0.451589   
    135. L(C  20,H  24,O  30,C  18, 1) 175.8738         0.229965   
    136. L(C  20,H  24,O  30,C  18, 2) 184.8384         0.229965   
    137. A(H  24,O  30,C  32)          115.8833         0.321418   
    138. A(Ir  0,O  31,C  32)          126.6373         0.354864   
    139. A(O  30,C  32,O  31)          124.2534         0.491017   
    140. A(O  30,C  32,C  33)          120.2553         0.436067   
    141. A(O  31,C  32,C  33)          115.4681         0.422651   
    142. A(C  32,C  33,H  34)          110.7955         0.330785   
    143. A(C  32,C  33,H  35)          108.8649         0.329739   
    144. A(H  34,C  33,H  35)          107.6370         0.291077   
    145. A(C  32,C  33,H  36)          111.7330         0.330618   
    146. A(H  34,C  33,H  36)          110.2058         0.291814   
    147. A(H  35,C  33,H  36)          107.4498         0.290937   
    148. D(H  27,C   1,Ir  0,N   6)      1.8990         0.001715   
    149. D(C   2,C   1,Ir  0,C   5)     39.0806         0.001715   
    150. D(C   2,C   1,Ir  0,N   6)   -117.7963         0.001715   
    151. D(C   2,C   1,Ir  0,C   4)    119.1858         0.001715   
    152. D(H  27,C   1,Ir  0,C   2)    119.6953         0.001715   
    153. D(C   4,C   1,Ir  0,C   2)   -119.1858         0.001715   
    154. D(C   4,C   1,Ir  0,C   3)    -38.0586         0.001715   
    155. D(C   4,C   1,Ir  0,C   5)    -80.1052         0.001715   
    156. D(H  27,C   1,Ir  0,O  31)     99.3857         0.001715   
    157. D(C   4,C   1,Ir  0,N   6)    123.0179         0.001715   
    158. D(H  27,C   1,Ir  0,C   5)    158.7759         0.001715   
    159. D(H  27,C   1,Ir  0,C   4)   -121.1189         0.001715   
    160. D(C   4,C   1,Ir  0,O  31)   -139.4954         0.001715   
    161. D(C   2,C   1,Ir  0,C   3)     81.1272         0.001715   
    162. D(C   2,C   1,Ir  0,O  31)    -20.3095         0.001715   
    163. D(H  27,C   1,Ir  0,C   3)   -159.1775         0.001715   
    164. D(C   5,C   2,C   1,H  27)    178.4871         0.021057   
    165. D(C   1,C   2,Ir  0,C   5)   -115.4886         0.001796   
    166. D(C   5,C   2,Ir  0,N   6)   -169.9117         0.001796   
    167. D(C   1,C   2,Ir  0,C   3)    -79.4785         0.001796   
    168. D(H  28,C   2,Ir  0,C   4)   -158.7203         0.001796   
    169. D(C   5,C   2,Ir  0,C   1)    115.4886         0.001796   
    170. D(Ir  0,C   2,C   1,C   4)     60.4674         0.021057   
    171. D(C   5,C   2,Ir  0,C   3)     36.0101         0.001796   
    172. D(H  28,C   2,Ir  0,N   6)    -47.8216         0.001796   
    173. D(H  28,C   2,Ir  0,C   5)    122.0901         0.001796   
    174. D(C   5,C   2,C   1,C   4)     -3.9103         0.021057   
    175. D(H  28,C   2,C   1,H  27)      5.1543         0.021057   
    176. D(H  28,C   2,Ir  0,C   1)   -122.4213         0.001796   
    177. D(H  28,C   2,C   1,C   4)   -177.2430         0.021057   
    178. D(C   1,C   2,Ir  0,O  31)    168.1615         0.001796   
    179. D(C   5,C   2,Ir  0,C   4)     79.1896         0.001796   
    180. D(H  28,C   2,C   1,Ir  0)    122.2896         0.021057   
    181. D(Ir  0,C   2,C   1,H  27)   -117.1352         0.021057   
    182. D(C   1,C   2,Ir  0,N   6)     74.5997         0.001796   
    183. D(C   5,C   2,Ir  0,O  31)    -76.3499         0.001796   
    184. D(H  28,C   2,Ir  0,O  31)     45.7402         0.001796   
    185. D(H  28,C   2,Ir  0,C   3)    158.1002         0.001796   
    186. D(C   1,C   2,Ir  0,C   4)    -36.2990         0.001796   
    187. D(C   5,C   2,C   1,Ir  0)    -64.3777         0.021057   
    188. D(C   4,C   3,Ir  0,C   5)    118.2968         0.001695   
    189. D(C   4,C   3,Ir  0,O  31)    178.7424         0.001695   
    190. D(C   4,C   3,Ir  0,N   6)    -16.2200         0.001695   
    191. D(C   4,C   3,Ir  0,C   1)     37.1119         0.001695   
    192. D(C   5,C   3,Ir  0,O  31)     60.4456         0.001695   
    193. D(C   5,C   3,Ir  0,C   2)    -37.2892         0.001695   
    194. D(C   4,C   3,Ir  0,C   2)     81.0076         0.001695   
    195. D(H  37,C   3,Ir  0,C   4)    120.4239         0.001695   
    196. D(H  37,C   3,Ir  0,C   1)    157.5358         0.001695   
    197. D(C   5,C   3,Ir  0,C   1)    -81.1848         0.001695   
    198. D(C   5,C   3,Ir  0,C   4)   -118.2968         0.001695   
    199. D(H  37,C   3,Ir  0,C   5)   -121.2794         0.001695   
    200. D(H  37,C   3,Ir  0,N   6)    104.2039         0.001695   
    201. D(H  37,C   3,Ir  0,O  31)    -60.8337         0.001695   
    202. D(C   5,C   3,Ir  0,N   6)   -134.5167         0.001695   
    203. D(H  37,C   3,Ir  0,C   2)   -158.5685         0.001695   
    204. D(C   1,C   4,Ir  0,C   3)    117.9309         0.001705   
    205. D(H  38,C   4,C   3,H  37)      0.4870         0.020496   
    206. D(C   1,C   4,Ir  0,C   5)     81.1631         0.001705   
    207. D(C   1,C   4,Ir  0,N   6)    -69.3076         0.001705   
    208. D(C   1,C   4,Ir  0,O  31)    115.1628         0.001705   
    209. D(C   1,C   4,Ir  0,C   2)     37.6844         0.001705   
    210. D(C   3,C   4,Ir  0,C   1)   -117.9309         0.001705   
    211. D(H  38,C   4,C   3,C   5)   -179.6798         0.020496   
    212. D(C   3,C   4,Ir  0,C   5)    -36.7678         0.001705   
    213. D(C   3,C   4,Ir  0,N   6)    172.7615         0.001705   
    214. D(C   3,C   4,Ir  0,O  31)     -2.7681         0.001705   
    215. D(Ir  0,C   4,C   1,C   2)    -58.8116         0.027796   
    216. D(H  38,C   4,Ir  0,C   2)    158.9761         0.001705   
    217. D(H  38,C   4,Ir  0,C   3)   -120.7773         0.001705   
    218. D(H  38,C   4,C   1,C   2)   -177.8742         0.027796   
    219. D(H  38,C   4,Ir  0,N   6)     51.9842         0.001705   
    220. D(H  38,C   4,Ir  0,O  31)   -123.5454         0.001705   
    221. D(Ir  0,C   4,C   1,H  27)    118.7929         0.027796   
    222. D(C   3,C   4,C   1,Ir  0)     61.2191         0.027796   
    223. D(C   3,C   4,C   1,H  27)   -179.9880         0.027796   
    224. D(H  38,C   4,C   1,Ir  0)   -119.0625         0.027796   
    225. D(H  38,C   4,Ir  0,C   5)   -157.5451         0.001705   
    226. D(H  38,C   4,C   1,H  27)     -0.2696         0.027796   
    227. D(Ir  0,C   4,C   3,C   5)     61.2442         0.020496   
    228. D(Ir  0,C   4,C   3,H  37)   -118.5891         0.020496   
    229. D(C   3,C   4,C   1,C   2)      2.4075         0.027796   
    230. D(C   1,C   4,C   3,C   5)      0.0401         0.020496   
    231. D(C   1,C   4,C   3,H  37)   -179.7931         0.020496   
    232. D(H  38,C   4,C   3,Ir  0)    119.0760         0.020496   
    233. D(H  38,C   4,Ir  0,C   1)    121.2918         0.001705   
    234. D(C   1,C   4,C   3,Ir  0)    -61.2040         0.020496   
    235. D(C   3,C   4,Ir  0,C   2)    -80.2465         0.001705   
    236. D(C   2,C   5,Ir  0,C   1)    -39.4052         0.001695   
    237. D(H  29,C   5,C   3,C   4)   -177.5582         0.028025   
    238. D(C   2,C   5,Ir  0,C   4)    -81.7001         0.001695   
    239. D(C   2,C   5,Ir  0,N   6)     20.8050         0.001695   
    240. D(C   2,C   5,Ir  0,O  31)    111.4321         0.001695   
    241. D(C   3,C   5,Ir  0,C   1)     80.2128         0.001695   
    242. D(C   3,C   5,Ir  0,C   2)    119.6180         0.001695   
    243. D(C   3,C   5,Ir  0,C   4)     37.9179         0.001695   
    244. D(H  29,C   5,C   2,C   1)    179.0379         0.022100   
    245. D(C   3,C   5,Ir  0,O  31)   -128.9499         0.001695   
    246. D(H  29,C   5,Ir  0,C   1)   -158.5829         0.001695   
    247. D(C   3,C   5,C   2,Ir  0)    -59.9863         0.022100   
    248. D(H  29,C   5,Ir  0,C   3)    121.2043         0.001695   
    249. D(H  29,C   5,Ir  0,C   4)    159.1222         0.001695   
    250. D(H  29,C   5,Ir  0,N   6)    -98.3727         0.001695   
    251. D(H  29,C   5,Ir  0,O  31)     -7.7456         0.001695   
    252. D(Ir  0,C   5,C   2,C   1)     63.9211         0.022100   
    253. D(H  29,C   5,Ir  0,C   2)   -119.1777         0.001695   
    254. D(Ir  0,C   5,C   2,H  28)   -122.6920         0.022100   
    255. D(C   3,C   5,C   2,C   1)      3.9348         0.022100   
    256. D(C   3,C   5,C   2,H  28)    177.3217         0.022100   
    257. D(C   3,C   5,Ir  0,N   6)    140.4231         0.001695   
    258. D(H  29,C   5,C   2,Ir  0)    115.1168         0.022100   
    259. D(H  29,C   5,C   2,H  28)     -7.5752         0.022100   
    260. D(Ir  0,C   5,C   3,C   4)    -60.7064         0.028025   
    261. D(Ir  0,C   5,C   3,H  37)    119.1262         0.028025   
    262. D(C   2,C   5,C   3,Ir  0)     58.2227         0.028025   
    263. D(C   2,C   5,C   3,C   4)     -2.4837         0.028025   
    264. D(C   2,C   5,C   3,H  37)    177.3489         0.028025   
    265. D(C   2,C   5,Ir  0,C   3)   -119.6180         0.001695   
    266. D(H  29,C   5,C   3,Ir  0)   -116.8517         0.028025   
    267. D(H  29,C   5,C   3,H  37)      2.2744         0.028025   
    268. D(C  17,N   6,Ir  0,C   1)    -93.8956         0.001778   
    269. D(C   7,N   6,Ir  0,C   2)     45.0530         0.001778   
    270. D(C   7,N   6,Ir  0,C   3)    131.1148         0.001778   
    271. D(C   7,N   6,Ir  0,C   4)    119.5980         0.001778   
    272. D(C   7,N   6,Ir  0,C   5)     30.6392         0.001778   
    273. D(C   7,N   6,Ir  0,C   1)     83.6813         0.001778   
    274. D(C   7,N   6,Ir  0,O  31)    -62.2146         0.001778   
    275. D(C  17,N   6,Ir  0,C   2)   -132.5239         0.001778   
    276. D(C  17,N   6,Ir  0,C   3)    -46.4622         0.001778   
    277. D(C  17,N   6,Ir  0,C   4)    -57.9789         0.001778   
    278. D(C  17,N   6,Ir  0,C   5)   -146.9377         0.001778   
    279. D(C  17,N   6,Ir  0,O  31)    120.2084         0.001778   
    280. D(C   8,C   7,N   6,Ir  0)    157.4985         0.014471   
    281. D(C   8,C   7,N   6,C  17)    -25.1073         0.014471   
    282. D(C  12,C   7,N   6,Ir  0)    -76.7927         0.014471   
    283. D(C  12,C   7,N   6,C  17)    100.6015         0.014471   
    284. D(H  13,C   7,N   6,Ir  0)     39.6259         0.014471   
    285. D(H  13,C   7,N   6,C  17)   -142.9799         0.014471   
    286. D(H   9,C   8,C   7,N   6)   -169.7395         0.011877   
    287. D(H   9,C   8,C   7,C  12)     65.4832         0.011877   
    288. D(H   9,C   8,C   7,H  13)    -53.8468         0.011877   
    289. D(H  10,C   8,C   7,N   6)     72.1983         0.011877   
    290. D(H  10,C   8,C   7,C  12)    -52.5789         0.011877   
    291. D(H  10,C   8,C   7,H  13)   -171.9090         0.011877   
    292. D(H  11,C   8,C   7,N   6)    -51.2125         0.011877   
    293. D(H  11,C   8,C   7,C  12)   -175.9898         0.011877   
    294. D(H  11,C   8,C   7,H  13)     64.6801         0.011877   
    295. D(H  14,C  12,C   7,N   6)    177.0860         0.011629   
    296. D(H  14,C  12,C   7,C   8)    -56.0229         0.011629   
    297. D(H  14,C  12,C   7,H  13)     63.0748         0.011629   
    298. D(H  15,C  12,C   7,N   6)    -63.7925         0.011629   
    299. D(H  15,C  12,C   7,C   8)     63.0986         0.011629   
    300. D(H  15,C  12,C   7,H  13)   -177.8037         0.011629   
    301. D(H  16,C  12,C   7,N   6)     58.1039         0.011629   
    302. D(H  16,C  12,C   7,C   8)   -175.0050         0.011629   
    303. D(H  16,C  12,C   7,H  13)    -55.9073         0.011629   
    304. D(C  18,C  17,N   6,Ir  0)    -10.0602         0.060837   
    305. D(C  18,C  17,N   6,C   7)    172.3485         0.060837   
    306. D(H  19,C  17,N   6,Ir  0)    172.1533         0.060837   
    307. D(H  19,C  17,N   6,C   7)     -5.4379         0.060837   
    308. D(C  20,C  18,C  17,N   6)    -35.3848         0.018093   
    309. D(C  20,C  18,C  17,H  19)    142.4174         0.018093   
    310. D(S  22,C  18,C  17,N   6)    143.3216         0.018093   
    311. D(S  22,C  18,C  17,H  19)    -38.8762         0.018093   
    312. D(C  21,C  20,C  18,C  17)    176.4589         0.029856   
    313. D(C  21,C  20,C  18,S  22)     -2.3840         0.029856   
    314. D(H  24,C  20,C  18,C  17)    -28.2297         0.029856   
    315. D(H  24,C  20,C  18,S  22)    152.9274         0.029856   
    316. D(C  23,C  21,C  20,C  18)      1.8549         0.022905   
    317. D(C  23,C  21,C  20,H  24)   -152.2768         0.022905   
    318. D(H  25,C  21,C  20,C  18)    178.2830         0.022905   
    319. D(H  25,C  21,C  20,H  24)     24.1513         0.022905   
    320. D(C  23,S  22,C  18,C  17)   -177.0018         0.005440   
    321. D(C  23,S  22,C  18,C  20)      1.8079         0.005440   
    322. D(S  22,C  23,C  21,C  20)     -0.5326         0.033661   
    323. D(S  22,C  23,C  21,H  25)   -177.0072         0.033661   
    324. D(H  26,C  23,C  21,C  20)    177.9685         0.033661   
    325. D(H  26,C  23,C  21,H  25)      1.4939         0.033661   
    326. D(C  21,C  23,S  22,C  18)     -0.7077         0.005400   
    327. D(H  26,C  23,S  22,C  18)   -179.3452         0.005400   
    328. D(C  32,O  30,C  20,C  18)     85.9235         0.001504   
    329. D(C  32,O  30,C  20,C  21)   -124.7418         0.001504   
    330. D(C  32,O  31,Ir  0,C   1)   -176.6074         0.001914   
    331. D(C  32,O  31,Ir  0,C   2)    169.9911         0.001914   
    332. D(C  32,O  31,Ir  0,C   3)     99.4442         0.001914   
    333. D(C  32,O  31,Ir  0,C   4)    101.4034         0.001914   
    334. D(C  32,O  31,Ir  0,C   5)    131.8726         0.001914   
    335. D(C  32,O  31,Ir  0,N   6)    -74.6439         0.001914   
    336. D(O  31,C  32,O  30,H  24)     -6.4217         0.078772   
    337. D(C  33,C  32,O  30,H  24)    171.7488         0.078772   
    338. D(O  30,C  32,O  31,Ir  0)      2.9630         0.052995   
    339. D(C  33,C  32,O  31,Ir  0)   -175.2866         0.052995   
    340. D(H  34,C  33,C  32,O  30)     26.5865         0.012805   
    341. D(H  34,C  33,C  32,O  31)   -155.0884         0.012805   
    342. D(H  35,C  33,C  32,O  30)    -91.5948         0.012805   
    343. D(H  35,C  33,C  32,O  31)     86.7302         0.012805   
    344. D(H  36,C  33,C  32,O  30)    149.8930         0.012805   
    345. D(H  36,C  33,C  32,O  31)    -31.7819         0.012805   
    -----------------------------------------------------------------

Number of atoms                         .... 39
Number of degrees of freedom            .... 345

         *************************************************************
         *                GEOMETRY OPTIMIZATION CYCLE   1            *
         *************************************************************
---------------------------------
CARTESIAN COORDINATES (ANGSTROEM)
---------------------------------
  Ir     0.561839   -0.741908    0.520744
  C      0.008642   -2.816680    0.380474
  C      0.059847   -2.376580    1.753412
  C      2.168094   -2.155636    0.852739
  C      1.287183   -2.649920   -0.182184
  C      1.423183   -2.025225    2.037614
  N     -1.040969    0.143227   -0.500168
  C     -2.328457    0.452205    0.146275
  C     -3.123469    1.535941   -0.565399
  H     -3.960404    1.830242    0.066468
  H     -3.552704    1.199589   -1.510411
  H     -2.525538    2.429087   -0.748789
  C     -3.144064   -0.824711    0.308923
  H     -2.060572    0.822037    1.137622
  H     -4.072335   -0.602089    0.833071
  H     -3.403651   -1.254801   -0.659358
  H     -2.616775   -1.577382    0.893283
  C     -0.833040    0.351025   -1.741878
  C      0.512686    0.168824   -2.221679
  H     -1.624944    0.686679   -2.406064
  C      1.622421    0.491369   -1.452368
  C      2.816180    0.134839   -2.138936
  S      0.921126   -0.482821   -3.752113
  C      2.590301   -0.388194   -3.376079
  H      1.550096    1.394182   -0.587002
  H      3.809288    0.312880   -1.752350
  H      3.321313   -0.706464   -4.104198
  H     -0.869589   -3.172904   -0.138524
  H     -0.746809   -2.414345    2.470875
  H      1.790056   -1.643694    2.979658
  O      1.405482    2.384763    0.242357
  O      0.542232    0.928315    1.684545
  C      0.963752    2.093834    1.357115
  C      0.930733    3.122402    2.449404
  H      0.870846    4.124702    2.033836
  H      1.857031    3.057233    3.023838
  H      0.106941    2.951661    3.138542
  H      3.216170   -1.924712    0.732189
  H      1.567247   -2.857782   -1.204744

----------------------------
CARTESIAN COORDINATES (A.U.)
----------------------------
  NO LB      ZA    FRAG     MASS         X           Y           Z
   0 Ir   17.0000*   0   192.220    1.061722   -1.402002    0.984063
   1 C     6.0000    0    12.011    0.016331   -5.322754    0.718992
   2 C     6.0000    0    12.011    0.113095   -4.491086    3.313469
   3 C     6.0000    0    12.011    4.097103   -4.073562    1.611444
   4 C     6.0000    0    12.011    2.432424   -5.007622   -0.344278
   5 C     6.0000    0    12.011    2.689427   -3.827120    3.850533
   6 N     7.0000    0    14.007   -1.967146    0.270659   -0.945180
   7 C     6.0000    0    12.011   -4.400147    0.854543    0.276420
   8 C     6.0000    0    12.011   -5.902501    2.902507   -1.068450
   9 H     1.0000    0     1.008   -7.484078    3.458656    0.125606
  10 H     1.0000    0     1.008   -6.713638    2.266895   -2.854262
  11 H     1.0000    0     1.008   -4.772576    4.590309   -1.415006
  12 C     6.0000    0    12.011   -5.941421   -1.558477    0.583779
  13 H     1.0000    0     1.008   -3.893916    1.553426    2.149794
  14 H     1.0000    0     1.008   -7.695597   -1.137783    1.574276
  15 H     1.0000    0     1.008   -6.431968   -2.371231   -1.246007
  16 H     1.0000    0     1.008   -4.944988   -2.980821    1.688060
  17 C     6.0000    0    12.011   -1.574217    0.663342   -3.291673
  18 C     6.0000    0    12.011    0.968836    0.319030   -4.198365
  19 H     1.0000    0     1.008   -3.070700    1.297636   -4.546802
  20 C     6.0000    0    12.011    3.065932    0.928553   -2.744579
  21 C     6.0000    0    12.011    5.321810    0.254809   -4.042004
  22 S    16.0000    0    32.060    1.740675   -0.912399   -7.090466
  23 C     6.0000    0    12.011    4.894960   -0.733580   -6.379865
  24 H     1.0000    0     1.008    2.929257    2.634623   -1.109273
  25 H     1.0000    0     1.008    7.198511    0.591257   -3.311462
  26 H     1.0000    0     1.008    6.276372   -1.335023   -7.755810
  27 H     1.0000    0     1.008   -1.643284   -5.995920   -0.261773
  28 H     1.0000    0     1.008   -1.411265   -4.562450    4.669278
  29 H     1.0000    0     1.008    3.382715   -3.106131    5.630738
  30 O     8.0000    0    15.999    2.655977    4.506549    0.457989
  31 O     8.0000    0    15.999    1.024670    1.754262    3.183329
  32 C     6.0000    0    12.011    1.821227    3.956774    2.564576
  33 C     6.0000    0    12.011    1.758831    5.900485    4.628703
  34 H     1.0000    0     1.008    1.645660    7.794558    3.843393
  35 H     1.0000    0     1.008    3.509280    5.777333    5.714227
  36 H     1.0000    0     1.008    0.202089    5.577831    5.930986
  37 H     1.0000    0     1.008    6.077681   -3.637178    1.383636
  38 H     1.0000    0     1.008    2.961668   -5.400426   -2.276637
* core charge reduced due to ECP

--------------------------------
INTERNAL COORDINATES (ANGSTROEM)
--------------------------------
 Ir     0   0   0     0.000000000000     0.00000000     0.00000000
 C      1   0   0     2.151992972367     0.00000000     0.00000000
 C      2   1   0     1.442470259367    68.57558034     0.00000000
 C      1   2   3     2.165487559793    64.59045348    81.12148598
 C      2   1   3     1.406336303054    71.23114903   240.81736951
 C      4   1   2     1.405282653916    71.07440538   278.81383185
 N      1   2   3     2.097356663374   100.33018501   242.16217788
 C      7   1   2     1.473420618083   122.59952644    83.59944715
 C      8   7   1     1.520852271203   113.63441065   157.46610501
 H      9   8   7     1.089184336339   108.82932304   190.26051606
 H      9   8   7     1.091062722400   113.03395936    72.19826889
 H      9   8   7     1.090347138012   112.07046827   308.78732166
 C      8   7   1     1.523867447424   109.80301002   283.17485803
 H      8   7   1     1.091468731289   104.77840295    39.59359516
 H     13   8   7     1.089022470699   109.65088188   177.08597863
 H     13   8   7     1.090838429412   111.28498075   296.20763733
 H     13   8   7     1.089044254132   112.16386180    58.10395086
 C      7   1   2     1.279561241169   115.26548666   265.97940010
 C     18   7   1     1.442515619558   117.68477678   349.68680259
 H     18   7   1     1.086674189039   121.47149418   172.13015988
 C     19  18   7     1.387968165547   122.12800735   324.78813986
 C     21  19  18     1.422126224361   110.28568890   176.43803161
 S     19  18   7     1.712698117121   124.77022570   143.52518604
 C     22  21  19     1.362195687604   113.22637255     1.90912641
 H     21  19  18     1.253328412216   120.07169338   332.02638080
 H     22  21  19     1.080443309185   123.90337388   178.34147295
 H     24  22  21     1.079665345958   127.83195489   177.96154311
 H      2   1   3     1.080521617696   123.92295544   119.69996492
 H      3   2   1     1.080193775562   126.50659333   122.28658576
 H      6   4   1     1.080549461894   125.99473505   243.15119330
 O     25  21  19     1.314285710994   175.10526258   325.11596744
 O      1   2   3     2.035524997572   145.72459614   339.70624215
 C     31  25  21     1.236594808791   116.29767947   120.48930189
 C     33  31  25     1.500710996678   120.09076872   171.74013719
 H     34  33  31     1.086687024075   110.79551940    26.49795250
 H     34  33  31     1.091900949718   108.86495647   268.31664427
 H     34  33  31     1.087518786787   111.73295009   149.80445343
 H      4   1   2     1.079946678324   124.26954557   157.53886013
 H      5   2   1     1.080381630038   126.24238111   240.93758608

---------------------------
INTERNAL COORDINATES (A.U.)
---------------------------
 Ir     0   0   0     0.000000000000     0.00000000     0.00000000
 C      1   0   0     4.066677359897     0.00000000     0.00000000
 C      2   1   0     2.725873746531    68.57558034     0.00000000
 C      1   2   3     4.092178434423    64.59045348    81.12148598
 C      2   1   3     2.657590464963    71.23114903   240.81736951
 C      4   1   2     2.655599356652    71.07440538   278.81383185
 N      1   2   3     3.963429698932   100.33018501   242.16217788
 C      7   1   2     2.784361448250   122.59952644    83.59944715
 C      8   7   1     2.873994282726   113.63441065   157.46610501
 H      9   8   7     2.058260105037   108.82932304   190.26051606
 H      9   8   7     2.061809740266   113.03395936    72.19826889
 H      9   8   7     2.060457481748   112.07046827   308.78732166
 C      8   7   1     2.879692140029   109.80301002   283.17485803
 H      8   7   1     2.062576985874   104.77840295    39.59359516
 H     13   8   7     2.057954223308   109.65088188   177.08597863
 H     13   8   7     2.061385887945   111.28498075   296.20763733
 H     13   8   7     2.057995388030   112.16386180    58.10395086
 C      7   1   2     2.418020317390   115.26548666   265.97940010
 C     18   7   1     2.725959464869   117.68477678   349.68680259
 H     18   7   1     2.053516614085   121.47149418   172.13015988
 C     19  18   7     2.622879715486   122.12800735   324.78813986
 C     21  19  18     2.687429091909   110.28568890   176.43803161
 S     19  18   7     3.236530391442   124.77022570   143.52518604
 C     22  21  19     2.574176790380   113.22637255     1.90912641
 H     21  19  18     2.368447454950   120.07169338   332.02638080
 H     22  21  19     2.041741957587   123.90337388   178.34147295
 H     24  22  21     2.040271820146   127.83195489   177.96154311
 H      2   1   3     2.041889939227   123.92295544   119.69996492
 H      3   2   1     2.041270407378   126.50659333   122.28658576
 H      6   4   1     2.041942557135   125.99473505   243.15119330
 O     25  21  19     2.483640055504   175.10526258   325.11596744
 O      1   2   3     3.846584784161   145.72459614   339.70624215
 C     31  25  21     2.336825527244   116.29767947   120.48930189
 C     33  31  25     2.835932789886   120.09076872   171.74013719
 H     34  33  31     2.053540868788   110.79551940    26.49795250
 H     34  33  31     2.063393760335   108.86495647   268.31664427
 H     34  33  31     2.055112672523   111.73295009   149.80445343
 H      4   1   2     2.040803461271   124.26954557   157.53886013
 H      5   2   1     2.041625400892   126.24238111   240.93758608

---------------------
BASIS SET INFORMATION
---------------------
There are 6 groups of distinct atoms

 Group   1 Type Ir  : 7s6p5d1f contracted to 6s3p2d1f pattern {211111/411/41/1}
 Group   2 Type C   : 8s4p1d contracted to 4s2p1d pattern {5111/31/1}
 Group   3 Type N   : 8s4p1d contracted to 4s2p1d pattern {5111/31/1}
 Group   4 Type H   : 4s contracted to 2s pattern {31}
 Group   5 Type S   : 10s7p1d contracted to 4s3p1d pattern {5311/511/1}
 Group   6 Type O   : 8s4p1d contracted to 4s2p1d pattern {5111/31/1}

Atom   0Ir   basis set group =>   1
Atom   1C    basis set group =>   2
Atom   2C    basis set group =>   2
Atom   3C    basis set group =>   2
Atom   4C    basis set group =>   2
Atom   5C    basis set group =>   2
Atom   6N    basis set group =>   3
Atom   7C    basis set group =>   2
Atom   8C    basis set group =>   2
Atom   9H    basis set group =>   4
Atom  10H    basis set group =>   4
Atom  11H    basis set group =>   4
Atom  12C    basis set group =>   2
Atom  13H    basis set group =>   4
Atom  14H    basis set group =>   4
Atom  15H    basis set group =>   4
Atom  16H    basis set group =>   4
Atom  17C    basis set group =>   2
Atom  18C    basis set group =>   2
Atom  19H    basis set group =>   4
Atom  20C    basis set group =>   2
Atom  21C    basis set group =>   2
Atom  22S    basis set group =>   5
Atom  23C    basis set group =>   2
Atom  24H    basis set group =>   4
Atom  25H    basis set group =>   4
Atom  26H    basis set group =>   4
Atom  27H    basis set group =>   4
Atom  28H    basis set group =>   4
Atom  29H    basis set group =>   4
Atom  30O    basis set group =>   6
Atom  31O    basis set group =>   6
Atom  32C    basis set group =>   2
Atom  33C    basis set group =>   2
Atom  34H    basis set group =>   4
Atom  35H    basis set group =>   4
Atom  36H    basis set group =>   4
Atom  37H    basis set group =>   4
Atom  38H    basis set group =>   4
---------------------------------
AUXILIARY/J BASIS SET INFORMATION
---------------------------------
There are 6 groups of distinct atoms

 Group   1 Type Ir  : 11s5p5d3f3g contracted to 8s5p5d2f3g pattern {41111111/11111/11111/21/111}
 Group   2 Type C   : 12s5p4d2f1g contracted to 6s4p3d1f1g pattern {711111/2111/211/2/1}
 Group   3 Type N   : 12s5p4d2f1g contracted to 6s4p3d1f1g pattern {711111/2111/211/2/1}
 Group   4 Type H   : 5s2p1d contracted to 3s1p1d pattern {311/2/1}
 Group   5 Type S   : 14s5p5d2f1g contracted to 8s4p3d1f1g pattern {71111111/2111/311/2/1}
 Group   6 Type O   : 12s5p4d2f1g contracted to 6s4p3d1f1g pattern {711111/2111/211/2/1}

Atom   0Ir   basis set group =>   1
Atom   1C    basis set group =>   2
Atom   2C    basis set group =>   2
Atom   3C    basis set group =>   2
Atom   4C    basis set group =>   2
Atom   5C    basis set group =>   2
Atom   6N    basis set group =>   3
Atom   7C    basis set group =>   2
Atom   8C    basis set group =>   2
Atom   9H    basis set group =>   4
Atom  10H    basis set group =>   4
Atom  11H    basis set group =>   4
Atom  12C    basis set group =>   2
Atom  13H    basis set group =>   4
Atom  14H    basis set group =>   4
Atom  15H    basis set group =>   4
Atom  16H    basis set group =>   4
Atom  17C    basis set group =>   2
Atom  18C    basis set group =>   2
Atom  19H    basis set group =>   4
Atom  20C    basis set group =>   2
Atom  21C    basis set group =>   2
Atom  22S    basis set group =>   5
Atom  23C    basis set group =>   2
Atom  24H    basis set group =>   4
Atom  25H    basis set group =>   4
Atom  26H    basis set group =>   4
Atom  27H    basis set group =>   4
Atom  28H    basis set group =>   4
Atom  29H    basis set group =>   4
Atom  30O    basis set group =>   6
Atom  31O    basis set group =>   6
Atom  32C    basis set group =>   2
Atom  33C    basis set group =>   2
Atom  34H    basis set group =>   4
Atom  35H    basis set group =>   4
Atom  36H    basis set group =>   4
Atom  37H    basis set group =>   4
Atom  38H    basis set group =>   4
-------------------------
ECP PARAMETER INFORMATION
-------------------------

 Group 1, Type Ir ECP Def2-ECP (replacing 60 core electrons, lmax=3)

Atom   0Ir   ECP group =>   1

------------------------------------------------------------------------------
                           ORCA GTO INTEGRAL CALCULATION
                           -- RI-GTO INTEGRALS CHOSEN --
------------------------------------------------------------------------------
------------------------------------------------------------------------------
                   ___                                                        
                  /   \      - P O W E R E D   B Y -                         
                 /     \                                                     
                 |  |  |   _    _      __       _____    __    __             
                 |  |  |  | |  | |    /  \     |  _  \  |  |  /  |          
                  \  \/   | |  | |   /    \    | | | |  |  | /  /          
                 / \  \   | |__| |  /  /\  \   | |_| |  |  |/  /          
                |  |  |   |  __  | /  /__\  \  |    /   |      \           
                |  |  |   | |  | | |   __   |  |    \   |  |\   \          
                \     /   | |  | | |  |  |  |  | |\  \  |  | \   \       
                 \___/    |_|  |_| |__|  |__|  |_| \__\ |__|  \__/        
                                                                              
                      - O R C A' S   B I G   F R I E N D -                    
                                      &                                       
                       - I N T E G R A L  F E E D E R -                       
                                                                              
 v1 FN, 2020, v2 2021                                                         
------------------------------------------------------------------------------


Reading SHARK input file reaction4-IEIP_ts_guess_scan_1-14_orca.SHARKINP.tmp ... ok
----------------------
SHARK INTEGRAL PACKAGE
----------------------

Number of atoms                             ...     39
Number of basis functions                   ...    358
Number of shells                            ...    184
Maximum angular momentum                    ...      3
Integral batch strategy                     ... SHARK/LIBINT Hybrid
RI-J (if used) integral strategy            ... SPLIT-RIJ (Revised 2003 algorithm where possible)
Printlevel                                  ...      1
Contraction scheme used                     ... SEGMENTED contraction
Coulomb Range Separation                    ... NOT USED
Exchange Range Separation                   ... NOT USED
Finite Nucleus Model                        ... NOT USED
Auxiliary Coulomb fitting basis             ... AVAILABLE
   # of basis functions in Aux-J            ...   1231
   # of shells in Aux-J                     ...    405
   Maximum angular momentum in Aux-J        ...      4
Auxiliary J/K fitting basis                 ... NOT available
Auxiliary Correlation fitting basis         ... NOT available
Auxiliary 'external' fitting basis          ... NOT available
Integral threshold                          ...     2.500000e-11
Primitive cut-off                           ...     2.500000e-12
Primitive pair pre-selection threshold      ...     2.500000e-12

Calculating pre-screening integrals         ... done (  0.1 sec) Dimension = 184
Organizing shell pair data                  ... done (  0.1 sec)
Shell pair information
Total number of shell pairs                 ...     17020
Shell pairs after pre-screening             ...     12933
Total number of primitive shell pairs       ...     60705
Primitive shell pairs kept                  ...     29050
          la=0 lb=0:   4951 shell pairs
          la=1 lb=0:   4244 shell pairs
          la=1 lb=1:    856 shell pairs
          la=2 lb=0:   1741 shell pairs
          la=2 lb=1:    786 shell pairs
          la=2 lb=2:    179 shell pairs
          la=3 lb=0:    112 shell pairs
          la=3 lb=1:     42 shell pairs
          la=3 lb=2:     21 shell pairs
          la=3 lb=3:      1 shell pairs

Calculating one electron integrals          ... done (  0.1 sec)
Calculating ECP integrals                   ... done (  0.7 sec)
Calculating RI/J V-Matrix + Cholesky decomp.... done (  0.1 sec)
Calculating Nuclear repulsion               ... done (  0.0 sec) ENN=   2030.755771730182 Eh

SHARK setup successfully completed in   1.3 seconds

Maximum memory used throughout the entire GTOINT-calculation: 90.6 MB
-------------------------------------------------------------------------------
                                 ORCA SCF
-------------------------------------------------------------------------------

------------
SCF SETTINGS
------------
Hamiltonian:
 Density Functional     Method          .... DFT(GTOs)
 Exchange Functional    Exchange        .... PBE
   PBE kappa parameter   XKappa         ....  1.024500
   PBE mue parameter    XMuePBE         ....  0.123457
 Correlation Functional Correlation     .... PBE
   PBE beta parameter  CBetaPBE         ....  0.030000
 LDA part of GGA corr.  LDAOpt          .... PW91-LDA
 Gradients option       PostSCFGGA      .... off
 Hybrid DFT is turned on
   Fraction HF Exchange ScalHFX         ....  0.420000
   Scaling of DF-GGA-X  ScalDFX         ....  0.580000
   Scaling of DF-GGA-C  ScalDFC         ....  1.000000
   Scaling of DF-LDA-C  ScalLDAC        ....  1.000000
   Perturbative correction              ....  0.000000
   Density functional embedding theory  .... OFF
 RI-approximation to the Coulomb term is turned on
   Number of AuxJ basis functions       .... 1231
   RIJ-ON(X) (HFX calculated with O(N)) .... on
   Number of AuxJ basis functions       .... 1231
   RIJ-COSX (HFX calculated with COS-X)).... on


General Settings:
 Integral files         IntName         .... reaction4-IEIP_ts_guess_scan_1-14_orca
 Hartree-Fock type      HFTyp           .... RHF
 Total Charge           Charge          ....    1
 Multiplicity           Mult            ....    1
 Number of Electrons    NEL             ....  164
 Basis Dimension        Dim             ....  358
 Nuclear Repulsion      ENuc            ....   2030.7557717302 Eh

Convergence Acceleration:
 DIIS                   CNVDIIS         .... on
   Start iteration      DIISMaxIt       ....    12
   Startup error        DIISStart       ....  0.200000
   # of expansion vecs  DIISMaxEq       ....     5
   Bias factor          DIISBfac        ....   1.050
   Max. coefficient     DIISMaxC        ....  10.000
 Trust-Rad. Augm. Hess. CNVTRAH         .... auto
   Auto Start mean grad. ratio tolernc. ....  1.125000
   Auto Start start iteration           ....    20
   Auto Start num. interpolation iter.  ....    10
   Max. Number of Micro iterations      ....    16
   Max. Number of Macro iterations      .... Maxiter - #DIIS iter
   Number of Davidson start vectors     ....     2
   Converg. threshold I  (grad. norm)   ....   1.000e-05
   Converg. threshold II (energy diff.) ....   1.000e-08
   Grad. Scal. Fac. for Micro threshold ....   0.100
   Minimum threshold for Micro iter.    ....   0.010
   NR start threshold (gradient norm)   ....   0.001
   Initial trust radius                 ....   0.400
   Minimum AH scaling param. (alpha)    ....   1.000
   Maximum AH scaling param. (alpha)    .... 1000.000
   Orbital update algorithm             .... Taylor
   White noise on init. David. guess    .... on
   Maximum white noise                  ....   0.010
   Quad. conv. algorithm                .... NR
   COSX micro iterations for RIJONX calc.... off
 SOSCF                  CNVSOSCF        .... off
 Level Shifting         CNVShift        .... on
   Level shift para.    LevelShift      ....    0.2500
   Turn off err/grad.   ShiftErr        ....    0.0010
 Zerner damping         CNVZerner       .... off
 Static damping         CNVDamp         .... on
   Fraction old density DampFac         ....    0.7000
   Max. Damping (<1)    DampMax         ....    0.9800
   Min. Damping (>=0)   DampMin         ....    0.0000
   Turn off err/grad.   DampErr         ....    0.1000
 Fernandez-Rico         CNVRico         .... off

SCF Procedure:
 Maximum # iterations   MaxIter         ....   250
 SCF integral mode      SCFMode         .... Direct
   Integral package                     .... SHARK and LIBINT hybrid scheme
 Reset frequency        DirectResetFreq ....    20
 Integral Threshold     Thresh          ....  2.500e-11 Eh
 Primitive CutOff       TCut            ....  2.500e-12 Eh

Convergence Tolerance:
 Convergence Check Mode ConvCheckMode   .... Total+1el-Energy
 Convergence forced     ConvForced      .... 0
 Energy Change          TolE            ....  1.000e-08 Eh
 1-El. energy change                    ....  1.000e-05 Eh
 DIIS Error             TolErr          ....  5.000e-07


Diagonalization of the overlap matrix:
Smallest eigenvalue                        ... 1.135e-03
Time for diagonalization                   ...    0.034 sec
Threshold for overlap eigenvalues          ... 1.000e-08
Number of eigenvalues below threshold      ... 0
Time for construction of square roots      ...    0.011 sec
Total time needed                          ...    0.046 sec

--------------------
INITIAL GUESS: HCORE
--------------------
                      -----------------
                      INTIAL GUESS DONE 
                      -----------------
-------------------
DFT GRID GENERATION
-------------------

General Integration Accuracy     IntAcc      ... 4.159
Radial Grid Type                 RadialGrid  ... OptM3 with GC (2021)
Angular Grid (max. ang.)         AngularGrid ... 3 (Lebedev-194)
Angular grid pruning method      GridPruning ... 4 (adaptive)
Weight generation scheme         WeightScheme... Becke
Basis function cutoff            BFCut       ... 1.0000e-11
Integration weight cutoff        WCut        ... 1.0000e-14
Angular grids for H and He will be reduced by one unit
Partially contracted basis set               ... off
Rotationally invariant grid construction     ... off

Total number of grid points                  ...    93336
Total number of batches                      ...     1480
Average number of points per batch           ...       63
Average number of grid points per atom       ...     2393
Time for grid setup =    1.649 sec

--------------------
COSX GRID GENERATION
--------------------

GRIDX 1
-------
General Integration Accuracy     IntAcc      ... 3.816
Radial Grid Type                 RadialGrid  ... OptM3 with GC (2021)
Angular Grid (max. ang.)         AngularGrid ... 1 (Lebedev-50)
Angular grid pruning method      GridPruning ... 4 (adaptive)
Weight generation scheme         WeightScheme... Becke
Basis function cutoff            BFCut       ... 1.0000e-11
Integration weight cutoff        WCut        ... 1.0000e-14
Angular grids for H and He will be reduced by one unit
Partially contracted basis set               ... on
Rotationally invariant grid construction     ... off

Total number of grid points                  ...    23181
Total number of batches                      ...      382
Average number of points per batch           ...       60
Average number of grid points per atom       ...      594
UseSFitting                                  ... on

GRIDX 2
-------
General Integration Accuracy     IntAcc      ... 4.020
Radial Grid Type                 RadialGrid  ... OptM3 with GC (2021)
Angular Grid (max. ang.)         AngularGrid ... 2 (Lebedev-110)
Angular grid pruning method      GridPruning ... 4 (adaptive)
Weight generation scheme         WeightScheme... Becke
Basis function cutoff            BFCut       ... 1.0000e-11
Integration weight cutoff        WCut        ... 1.0000e-14
Angular grids for H and He will be reduced by one unit
Partially contracted basis set               ... on
Rotationally invariant grid construction     ... off

Total number of grid points                  ...    50340
Total number of batches                      ...      806
Average number of points per batch           ...       62
Average number of grid points per atom       ...     1291
UseSFitting                                  ... on

GRIDX 3
-------
General Integration Accuracy     IntAcc      ... 4.338
Radial Grid Type                 RadialGrid  ... OptM3 with GC (2021)
Angular Grid (max. ang.)         AngularGrid ... 3 (Lebedev-194)
Angular grid pruning method      GridPruning ... 4 (adaptive)
Weight generation scheme         WeightScheme... Becke
Basis function cutoff            BFCut       ... 1.0000e-11
Integration weight cutoff        WCut        ... 1.0000e-14
Angular grids for H and He will be reduced by one unit
Partially contracted basis set               ... on
Rotationally invariant grid construction     ... off

Total number of grid points                  ...   108854
Total number of batches                      ...     1723
Average number of points per batch           ...       63
Average number of grid points per atom       ...     2791
UseSFitting                                  ... on

Time for X-Grid setup             =    4.368 sec

--------------
SCF ITERATIONS
--------------
ITER       Energy         Delta-E        Max-DP      RMS-DP      [F,P]     Damp
               ***  Starting incremental Fock matrix formation  ***
  0   -871.4967745027   0.00000000000019.68076105  0.14978220  2.8169592 0.7000
  1  -1100.6596591737-229.16288467093814.42117362  0.14833799  1.4875752 0.7000
  2  -1166.4861572422 -65.826498068516 5.33072497  0.07104469  1.0228900 0.7000
  3  -1192.5258612294 -26.039703987237 3.71302476  0.04790746  0.7266128 0.7000
  4  -1209.5346039685 -17.008742739054 2.60900039  0.03837145  0.4452539 0.7000
  5  -1225.9648318641 -16.430227895604 2.12656809  0.03056431  0.3370927 0.7000
  6  -1237.0005415942 -11.035709730081 2.06790348  0.03154317  0.3127358 0.7000
  7  -1242.9617480468  -5.961206452597 1.87327169  0.02617876  0.3354643 0.7000
  8  -1246.0618943476  -3.100146300893 1.53394840  0.02473277  0.4069206 0.7000
  9  -1250.8843940715  -4.822499723853 1.53552651  0.02443413  0.3503757 0.7000
 10  -1254.6626755937  -3.778281522246 1.69227222  0.02595950  0.3843365 0.7000
 11  -1256.2016817507  -1.539006156952 1.47097491  0.02461042  0.3542332 0.7000
                               ***Turning on DIIS***
 12  -1257.3143940980  -1.112712347306 1.73292367  0.02561628  0.4058413 0.7000
 13  -1257.9286183488  -0.614224250781 1.33037320  0.02080584  0.3554940 0.7000
 14  -1268.4189529981 -10.490334649315 0.89697829  0.01478021  0.2064628 0.7000
 15  -1274.5283143362  -6.109361338094 0.60365212  0.01047978  0.1531012 0.7000
 16  -1278.5737038414  -4.045389505189 1.38862334  0.02466173  0.0720489 0.0000
 17  -1288.0158517636  -9.442147922199 0.02880803  0.00061348  0.1411892 0.7000
 18  -1288.1296417668  -0.113790003269 0.04119551  0.00072901  0.1126957 0.7000
 19  -1288.2335582316  -0.103916464753 0.09900253  0.00225682  0.0783159 0.0000
               *** Restarting incremental Fock matrix formation ***
                                   *** Resetting DIIS ***
 20  -1288.4270713779  -0.193513146347 0.01437076  0.00040890  0.0087259 0.0000
 21  -1288.4331680173  -0.006096639327 0.00805801  0.00022502  0.0052105 0.0000
 22  -1288.4349655280  -0.001797510755 0.00622658  0.00015121  0.0048994 0.0000
 23  -1288.4357228865  -0.000757358517 0.00427435  0.00008764  0.0018072 0.0000
 24  -1288.4359870382  -0.000264151637 0.00298334  0.00005609  0.0011546 0.0000
 25  -1288.4360926172  -0.000105579021 0.00481941  0.00007323  0.0007116 0.0000
               *** Restarting incremental Fock matrix formation ***
                                   *** Resetting DIIS ***
 26  -1288.4373261460  -0.001233528817 0.00472930  0.00008666  0.0006548 0.0000
 27  -1288.4373451946  -0.000019048605 0.00139044  0.00001821  0.0007557 0.0000
 28  -1288.4373482897  -0.000003095057 0.00113501  0.00001084  0.0005694 0.0000
 29  -1288.4373513332  -0.000003043480 0.00057175  0.00000430  0.0002668 0.0000
 30  -1288.4373516816  -0.000000348409 0.00030912  0.00000258  0.0001337 0.0000
 31  -1288.4373518604  -0.000000178793 0.00017215  0.00000141  0.0000401 0.0000
 32  -1288.4373518933  -0.000000032898 0.00008742  0.00000076  0.0000243 0.0000
 33  -1288.4373518971  -0.000000003837 0.00003595  0.00000034  0.0000142 0.0000
 34  -1288.4373518857   0.000000011398 0.00001962  0.00000014  0.0000060 0.0000
 35  -1288.4373518714   0.000000014314 0.00001210  0.00000010  0.0000062 0.0000
 36  -1288.4373518801  -0.000000008736 0.00000455  0.00000004  0.0000020 0.0000
 37  -1288.4373518771   0.000000003041 0.00000310  0.00000003  0.0000019 0.0000
                 **** Energy Check signals convergence ****

               *****************************************************
               *                     SUCCESS                       *
               *           SCF CONVERGED AFTER  38 CYCLES          *
               *****************************************************

Old exchange energy                            =    -59.657037094 Eh
New exchange energy                            =    -59.657007358 Eh
Exchange energy change after final integration =      0.000029736 Eh
Total energy after final integration           =  -1288.437322131 Eh
Final COS-X integration done in                =    55.581 sec

----------------
TOTAL SCF ENERGY
----------------

Total Energy       :        -1288.43732213 Eh          -35060.16196 eV

Components:
Nuclear Repulsion  :         2030.75577173 Eh           55259.67390 eV
Electronic Energy  :        -3319.19309386 Eh          -90319.83586 eV
One Electron Energy:        -5817.06514371 Eh         -158290.38989 eV
Two Electron Energy:         2497.87204985 Eh           67970.55403 eV
Max COSX asymmetry :            0.00001698 Eh               0.00046 eV

Virial components:
Potential Energy   :        -2501.56902650 Eh          -68071.15388 eV
Kinetic Energy     :         1213.13170437 Eh           33010.99192 eV
Virial Ratio       :            2.06207539


DFT components:
N(Alpha)           :       82.000177618828 electrons
N(Beta)            :       82.000177618828 electrons
N(Total)           :      164.000355237656 electrons
E(X)               :      -79.591711172968 Eh       
E(C)               :       -7.453647098041 Eh       
E(XC)              :      -87.045358271009 Eh       
DFET-embed. en.    :        0.000000000000 Eh       

---------------
SCF CONVERGENCE
---------------

  Last Energy change         ...    9.7566e-09  Tolerance :   1.0000e-08
  Last MAX-Density change    ...    0.0000e+00  Tolerance :   1.0000e-07
  Last RMS-Density change    ...    0.0000e+00  Tolerance :   5.0000e-09
  Last DIIS Error            ...    5.4727e-07  Tolerance :   5.0000e-07

             **** THE GBW FILE WAS UPDATED (reaction4-IEIP_ts_guess_scan_1-14_orca.gbw) ****
             **** DENSITY reaction4-IEIP_ts_guess_scan_1-14_orca.scfp WAS UPDATED ****
             **** ENERGY FILE WAS UPDATED (reaction4-IEIP_ts_guess_scan_1-14_orca.en.tmp) ****
             **** THE GBW FILE WAS UPDATED (reaction4-IEIP_ts_guess_scan_1-14_orca.gbw) ****
             **** DENSITY reaction4-IEIP_ts_guess_scan_1-14_orca.scfp WAS UPDATED ****
----------------
ORBITAL ENERGIES
----------------

  NO   OCC          E(Eh)            E(eV) 
   0   2.0000     -89.753567     -2442.3187 
   1   2.0000     -19.630784      -534.1808 
   2   2.0000     -19.600557      -533.3583 
   3   2.0000     -14.836800      -403.7298 
   4   2.0000     -10.690662      -290.9077 
   5   2.0000     -10.657897      -290.0161 
   6   2.0000     -10.637393      -289.4582 
   7   2.0000     -10.634755      -289.3864 
   8   2.0000     -10.634273      -289.3733 
   9   2.0000     -10.632619      -289.3283 
  10   2.0000     -10.632128      -289.3149 
  11   2.0000     -10.621698      -289.0311 
  12   2.0000     -10.615551      -288.8638 
  13   2.0000     -10.604053      -288.5510 
  14   2.0000     -10.576435      -287.7994 
  15   2.0000     -10.573475      -287.7189 
  16   2.0000     -10.556546      -287.2582 
  17   2.0000     -10.551495      -287.1208 
  18   2.0000     -10.538405      -286.7646 
  19   2.0000      -8.392975      -228.3845 
  20   2.0000      -6.283027      -170.9699 
  21   2.0000      -6.279441      -170.8723 
  22   2.0000      -6.277709      -170.8251 
  23   2.0000      -4.030605      -109.6783 
  24   2.0000      -2.350125       -63.9501 
  25   2.0000      -2.315805       -63.0163 
  26   2.0000      -2.313491       -62.9533 
  27   2.0000      -1.318915       -35.8895 
  28   2.0000      -1.221609       -33.2417 
  29   2.0000      -1.209626       -32.9156 
  30   2.0000      -1.174394       -31.9569 
  31   2.0000      -1.118202       -30.4278 
  32   2.0000      -1.024158       -27.8688 
  33   2.0000      -0.989341       -26.9213 
  34   2.0000      -0.979284       -26.6477 
  35   2.0000      -0.959275       -26.1032 
  36   2.0000      -0.952793       -25.9268 
  37   2.0000      -0.934044       -25.4166 
  38   2.0000      -0.902440       -24.5566 
  39   2.0000      -0.869626       -23.6637 
  40   2.0000      -0.795330       -21.6420 
  41   2.0000      -0.790129       -21.5005 
  42   2.0000      -0.788521       -21.4568 
  43   2.0000      -0.777646       -21.1608 
  44   2.0000      -0.771962       -21.0061 
  45   2.0000      -0.765045       -20.8179 
  46   2.0000      -0.742751       -20.2113 
  47   2.0000      -0.723914       -19.6987 
  48   2.0000      -0.693361       -18.8673 
  49   2.0000      -0.675898       -18.3921 
  50   2.0000      -0.663618       -18.0580 
  51   2.0000      -0.654997       -17.8234 
  52   2.0000      -0.649869       -17.6838 
  53   2.0000      -0.641540       -17.4572 
  54   2.0000      -0.640750       -17.4357 
  55   2.0000      -0.635444       -17.2913 
  56   2.0000      -0.623123       -16.9560 
  57   2.0000      -0.610418       -16.6103 
  58   2.0000      -0.609745       -16.5920 
  59   2.0000      -0.606873       -16.5139 
  60   2.0000      -0.594174       -16.1683 
  61   2.0000      -0.585098       -15.9213 
  62   2.0000      -0.573171       -15.5968 
  63   2.0000      -0.567220       -15.4348 
  64   2.0000      -0.561129       -15.2691 
  65   2.0000      -0.557302       -15.1650 
  66   2.0000      -0.553360       -15.0577 
  67   2.0000      -0.548482       -14.9250 
  68   2.0000      -0.540301       -14.7023 
  69   2.0000      -0.533687       -14.5223 
  70   2.0000      -0.527026       -14.3411 
  71   2.0000      -0.520531       -14.1644 
  72   2.0000      -0.516403       -14.0520 
  73   2.0000      -0.508751       -13.8438 
  74   2.0000      -0.495180       -13.4745 
  75   2.0000      -0.480091       -13.0639 
  76   2.0000      -0.462206       -12.5773 
  77   2.0000      -0.452682       -12.3181 
  78   2.0000      -0.443606       -12.0711 
  79   2.0000      -0.418957       -11.4004 
  80   2.0000      -0.415523       -11.3069 
  81   2.0000      -0.400971       -10.9110 
  82   0.0000      -0.198687        -5.4065 
  83   0.0000      -0.164115        -4.4658 
  84   0.0000      -0.140684        -3.8282 
  85   0.0000      -0.092858        -2.5268 
  86   0.0000      -0.074872        -2.0374 
  87   0.0000      -0.068106        -1.8533 
  88   0.0000      -0.059845        -1.6285 
  89   0.0000      -0.053843        -1.4651 
  90   0.0000      -0.042089        -1.1453 
  91   0.0000      -0.035199        -0.9578 
  92   0.0000      -0.004951        -0.1347 
  93   0.0000      -0.003038        -0.0827 
  94   0.0000       0.011004         0.2994 
  95   0.0000       0.020937         0.5697 
  96   0.0000       0.029657         0.8070 
  97   0.0000       0.038437         1.0459 
  98   0.0000       0.044252         1.2041 
  99   0.0000       0.056774         1.5449 
 100   0.0000       0.069249         1.8844 
 101   0.0000       0.071878         1.9559 
 102   0.0000       0.075421         2.0523 
 103   0.0000       0.077779         2.1165 
 104   0.0000       0.082193         2.2366 
 105   0.0000       0.088855         2.4179 
 106   0.0000       0.094258         2.5649 
 107   0.0000       0.100392         2.7318 
 108   0.0000       0.107311         2.9201 
 109   0.0000       0.112192         3.0529 
 110   0.0000       0.115477         3.1423 
 111   0.0000       0.119620         3.2550 
 112   0.0000       0.123924         3.3721 
 113   0.0000       0.126081         3.4308 
 114   0.0000       0.129397         3.5211 
 115   0.0000       0.135778         3.6947 
 116   0.0000       0.141408         3.8479 
 117   0.0000       0.153550         4.1783 
 118   0.0000       0.156022         4.2456 
 119   0.0000       0.158426         4.3110 
 120   0.0000       0.168480         4.5846 
 121   0.0000       0.180094         4.9006 
 122   0.0000       0.190413         5.1814 
 123   0.0000       0.202915         5.5216 
 124   0.0000       0.227262         6.1841 
 125   0.0000       0.233291         6.3482 
 126   0.0000       0.260109         7.0779 
 127   0.0000       0.270720         7.3667 
 128   0.0000       0.280413         7.6304 
 129   0.0000       0.294758         8.0208 
 130   0.0000       0.301697         8.2096 
 131   0.0000       0.311531         8.4772 
 132   0.0000       0.322438         8.7740 
 133   0.0000       0.340454         9.2642 
 134   0.0000       0.344033         9.3616 
 135   0.0000       0.356376         9.6975 
 136   0.0000       0.362490         9.8639 
 137   0.0000       0.375448        10.2165 
 138   0.0000       0.383611        10.4386 
 139   0.0000       0.397898        10.8273 
 140   0.0000       0.402675        10.9573 
 141   0.0000       0.419638        11.4189 
 142   0.0000       0.421772        11.4770 
 143   0.0000       0.437432        11.9031 
 144   0.0000       0.444201        12.0873 
 145   0.0000       0.449586        12.2339 
 146   0.0000       0.457854        12.4588 
 147   0.0000       0.459496        12.5035 
 148   0.0000       0.465889        12.6775 
 149   0.0000       0.481088        13.0911 
 150   0.0000       0.486329        13.2337 
 151   0.0000       0.489955        13.3323 
[...]

----------------------
LOEWDIN ATOMIC CHARGES
----------------------
   0 Ir:   -0.212356
   1 C :   -0.043412
   2 C :   -0.062526
   3 C :   -0.054738
   4 C :   -0.046987
   5 C :   -0.023825
   6 N :   -0.019512
   7 C :   -0.068606
   8 C :   -0.363486
   9 H :    0.156242
  10 H :    0.133500
  11 H :    0.145745
  12 C :   -0.344029
  13 H :    0.154314
  14 H :    0.152180
  15 H :    0.137544
  16 H :    0.132028
  17 C :    0.036378
  18 C :   -0.206040
  19 H :    0.159873
  20 C :   -0.204706
  21 C :   -0.150091
  22 S :    0.457932
  23 C :   -0.259507
  24 H :    0.314603
  25 H :    0.158658
  26 H :    0.166421
  27 H :    0.185714
  28 H :    0.185727
  29 H :    0.192971
  30 O :   -0.273061
  31 O :   -0.195142
  32 C :    0.167650
  33 C :   -0.373533
  34 H :    0.162331
  35 H :    0.170134
  36 H :    0.155092
  37 H :    0.187958
  38 H :    0.188563

-------------------------------
LOEWDIN REDUCED ORBITAL CHARGES
-------------------------------
  0 Irs       :     2.457051  s :     2.457051
      pz      :     2.237801  p :     6.742400
      px      :     2.236514
      py      :     2.268086
      dz2     :     1.832616  d :     7.924576
      dxz     :     1.716385
      dyz     :     1.292564
      dx2y2   :     1.648649
      dxy     :     1.434363
      f0      :     0.011031  f :     0.088329
      f+1     :     0.003339
      f-1     :     0.012940
      f+2     :     0.016727
      f-2     :     0.016344
      f+3     :     0.011457
      f-3     :     0.016491
  1 C s       :     2.874818  s :     2.874818
      pz      :     1.049079  p :     3.064300
      px      :     1.085848
      py      :     0.929373
      dz2     :     0.026247  d :     0.104293
      dxz     :     0.026747
      dyz     :     0.017103
      dx2y2   :     0.018797
      dxy     :     0.015400
  2 C s       :     2.874255  s :     2.874255
      pz      :     1.042489  p :     3.085476
      px      :     1.078810
      py      :     0.964177
      dz2     :     0.025271  d :     0.102795
      dxz     :     0.028155
      dyz     :     0.017693
      dx2y2   :     0.018447
      dxy     :     0.013229
  3 C s       :     2.875265  s :     2.875265
      pz      :     1.032713  p :     3.077924
      px      :     1.080453
      py      :     0.964758
      dz2     :     0.023731  d :     0.101548
      dxz     :     0.032232
      dyz     :     0.015912
      dx2y2   :     0.015364
      dxy     :     0.014310
  4 C s       :     2.874979  s :     2.874979
      pz      :     1.090762  p :     3.069248
      px      :     1.036974
      py      :     0.941511
      dz2     :     0.022648  d :     0.102761
      dxz     :     0.031386
      dyz     :     0.012914
      dx2y2   :     0.018098
      dxy     :     0.017716
  5 C s       :     2.877767  s :     2.877767
      pz      :     1.062519  p :     3.041739
      px      :     1.033746
      py      :     0.945474
      dz2     :     0.024451  d :     0.104319
      dxz     :     0.030729
      dyz     :     0.015553
      dx2y2   :     0.015642
      dxy     :     0.017945
  6 N s       :     3.121538  s :     3.121538
      pz      :     1.268364  p :     3.800865
      px      :     1.290349
      py      :     1.242152
      dz2     :     0.029931  d :     0.097109
      dxz     :     0.027515
      dyz     :     0.018204
      dx2y2   :     0.011569
      dxy     :     0.009891
  7 C s       :     2.862565  s :     2.862565
      pz      :     1.064079  p :     3.071849
      px      :     0.933077
      py      :     1.074693
      dz2     :     0.025980  d :     0.134192
      dxz     :     0.027126
      dyz     :     0.017696
      dx2y2   :     0.030121
      dxy     :     0.033268
  8 C s       :     2.953400  s :     2.953400
      pz      :     1.131564  p :     3.342602
      px      :     1.125221
      py      :     1.085817
      dz2     :     0.013115  d :     0.067485
      dxz     :     0.017269
      dyz     :     0.009181
      dx2y2   :     0.009322
      dxy     :     0.018598
  9 H s       :     0.843758  s :     0.843758
 10 H s       :     0.866500  s :     0.866500
 11 H s       :     0.854255  s :     0.854255
 12 C s       :     2.953046  s :     2.953046
      pz      :     1.141377  p :     3.322987
      px      :     1.110772
      py      :     1.070839
      dz2     :     0.011680  d :     0.067996
      dxz     :     0.012739
      dyz     :     0.014188
      dx2y2   :     0.011795
      dxy     :     0.017594
 13 H s       :     0.845686  s :     0.845686
 14 H s       :     0.847820  s :     0.847820
 15 H s       :     0.862456  s :     0.862456
 16 H s       :     0.867972  s :     0.867972
 17 C s       :     2.878193  s :     2.878193
      pz      :     1.019518  p :     2.944293
      px      :     1.071112
      py      :     0.853663
      dz2     :     0.039996  d :     0.141136
      dxz     :     0.051709
      dyz     :     0.024989
      dx2y2   :     0.011558
      dxy     :     0.012883
 18 C s       :     2.894891  s :     2.894891
      pz      :     1.042462  p :     3.199425
      px      :     1.090176
      py      :     1.066788
      dz2     :     0.032775  d :     0.111723
      dxz     :     0.030717
      dyz     :     0.016350
      dx2y2   :     0.019628
      dxy     :     0.012254
 19 H s       :     0.840127  s :     0.840127
 20 C s       :     2.936615  s :     2.936615
      pz      :     1.127907  p :     3.180918
      px      :     1.048219
      py      :     1.004791
      dz2     :     0.010813  d :     0.087173
      dxz     :     0.034360
      dyz     :     0.008252
      dx2y2   :     0.016026
      dxy     :     0.017722
 21 C s       :     2.899318  s :     2.899318
      pz      :     1.072295  p :     3.156195
      px      :     1.091600
      py      :     0.992301
      dz2     :     0.026678  d :     0.094578
      dxz     :     0.029793
      dyz     :     0.014191
      dx2y2   :     0.015500
      dxy     :     0.008415
 22 S s       :     5.505886  s :     5.505886
      pz      :     3.261431  p :     9.883937
      px      :     3.091536
      py      :     3.530970
      dz2     :     0.045717  d :     0.152245
      dxz     :     0.029597
      dyz     :     0.020984
      dx2y2   :     0.031569
      dxy     :     0.024377
 23 C s       :     2.966246  s :     2.966246
      pz      :     1.121090  p :     3.207041
      px      :     1.023622
      py      :     1.062328
      dz2     :     0.022726  d :     0.086220
      dxz     :     0.027857
      dyz     :     0.011793
      dx2y2   :     0.013311
      dxy     :     0.010533
 24 H s       :     0.685397  s :     0.685397
 25 H s       :     0.841342  s :     0.841342
 26 H s       :     0.833579  s :     0.833579
 27 H s       :     0.814286  s :     0.814286
 28 H s       :     0.814273  s :     0.814273
 29 H s       :     0.807029  s :     0.807029
 30 O s       :     3.503109  s :     3.503109
      pz      :     1.446930  p :     4.714770
      px      :     1.553971
      py      :     1.713869
      dz2     :     0.016723  d :     0.055182
      dxz     :     0.013397
      dyz     :     0.016592
      dx2y2   :     0.005022
      dxy     :     0.003447
 31 O s       :     3.442011  s :     3.442011
      pz      :     1.696257  p :     4.693472
      px      :     1.610096
      py      :     1.387119
      dz2     :     0.009147  d :     0.059660
      dxz     :     0.004029
      dyz     :     0.016350
      dx2y2   :     0.014984
      dxy     :     0.015149
 32 C s       :     2.812135  s :     2.812135
      pz      :     0.984667  p :     2.699289
      px      :     0.758654
      py      :     0.955967
      dz2     :     0.073922  d :     0.320926
      dxz     :     0.047921
      dyz     :     0.103898
      dx2y2   :     0.046391
      dxy     :     0.048795
 33 C s       :     2.958757  s :     2.958757
      pz      :     1.100011  p :     3.352111
      px      :     1.151472
      py      :     1.100628
      dz2     :     0.004680  d :     0.062665
      dxz     :     0.017115
      dyz     :     0.020407
      dx2y2   :     0.018353
      dxy     :     0.002111
 34 H s       :     0.837669  s :     0.837669
 35 H s       :     0.829866  s :     0.829866
 36 H s       :     0.844908  s :     0.844908
 37 H s       :     0.812042  s :     0.812042
 38 H s       :     0.811437  s :     0.811437


                      *****************************
                      * MAYER POPULATION ANALYSIS *
                      *****************************

  NA   - Mulliken gross atomic population
  ZA   - Total nuclear charge
  QA   - Mulliken gross atomic charge
  VA   - Mayer's total valence
  BVA  - Mayer's bonded valence
  FA   - Mayer's free valence

  ATOM       NA         ZA         QA         VA         BVA        FA
  0 Ir    16.3822    17.0000     0.6178     3.7619     3.7619    -0.0000
  1 C      6.2133     6.0000    -0.2133     3.6976     3.6976     0.0000
  2 C      6.2949     6.0000    -0.2949     3.7408     3.7408     0.0000
  3 C      6.2348     6.0000    -0.2348     3.7308     3.7308     0.0000
  4 C      6.2394     6.0000    -0.2394     3.7237     3.7237    -0.0000
  5 C      6.1680     6.0000    -0.1680     3.6906     3.6906     0.0000
  6 N      7.4427     7.0000    -0.4427     3.2140     3.2140     0.0000
  7 C      6.1233     6.0000    -0.1233     3.7043     3.7043     0.0000
  8 C      6.6876     6.0000    -0.6876     3.6881     3.6881    -0.0000
  9 H      0.7300     1.0000     0.2700     0.8972     0.8972     0.0000
 10 H      0.7740     1.0000     0.2260     0.9100     0.9100     0.0000
 11 H      0.7416     1.0000     0.2584     0.8986     0.8986    -0.0000
 12 C      6.6358     6.0000    -0.6358     3.6740     3.6740     0.0000
 13 H      0.7218     1.0000     0.2782     0.8751     0.8751     0.0000
 14 H      0.7374     1.0000     0.2626     0.8972     0.8972    -0.0000
 15 H      0.7683     1.0000     0.2317     0.9095     0.9095    -0.0000
 16 H      0.7708     1.0000     0.2292     0.9066     0.9066    -0.0000
 17 C      5.9305     6.0000     0.0695     3.6496     3.6496    -0.0000
 18 C      6.1994     6.0000    -0.1994     3.7155     3.7155    -0.0000
 19 H      0.7141     1.0000     0.2859     0.8877     0.8877    -0.0000
 20 C      6.4035     6.0000    -0.4035     3.4710     3.4710     0.0000
 21 C      6.1576     6.0000    -0.1576     3.7757     3.7757     0.0000
 22 S     15.6979    16.0000     0.3021     2.5596     2.5596    -0.0000
 23 C      6.4227     6.0000    -0.4227     3.7495     3.7495    -0.0000
 24 H      0.5028     1.0000     0.4972     0.7268     0.7268     0.0000
 25 H      0.7396     1.0000     0.2604     0.9052     0.9052    -0.0000
 26 H      0.7060     1.0000     0.2940     0.8986     0.8986     0.0000
 27 H      0.7076     1.0000     0.2924     0.9017     0.9017     0.0000
 28 H      0.7073     1.0000     0.2927     0.9047     0.9047    -0.0000
 29 H      0.6944     1.0000     0.3056     0.8922     0.8922    -0.0000
 30 O      8.4977     8.0000    -0.4977     2.0905     2.0905    -0.0000
 31 O      8.5305     8.0000    -0.5305     2.0900     2.0900     0.0000
 32 C      5.3717     6.0000     0.6283     3.8993     3.8993     0.0000
 33 C      6.7460     6.0000    -0.7460     3.6630     3.6630    -0.0000
 34 H      0.7275     1.0000     0.2725     0.8940     0.8940     0.0000
 35 H      0.7291     1.0000     0.2709     0.8933     0.8933     0.0000
 36 H      0.7424     1.0000     0.2576     0.8993     0.8993     0.0000
 37 H      0.7045     1.0000     0.2955     0.8999     0.8999     0.0000
 38 H      0.7015     1.0000     0.2985     0.8998     0.8998    -0.0000

  Mayer bond orders larger than 0.100000
B(  0-Ir,  1-C ) :   0.4256 B(  0-Ir,  2-C ) :   0.5483 B(  0-Ir,  3-C ) :   0.4584 
B(  0-Ir,  4-C ) :   0.4590 B(  0-Ir,  5-C ) :   0.4053 B(  0-Ir,  6-N ) :   0.4743 
B(  0-Ir, 20-C ) :   0.2562 B(  0-Ir, 31-O ) :   0.5571 B(  1-C ,  2-C ) :   1.1138 
B(  1-C ,  4-C ) :   1.2396 B(  1-C , 27-H ) :   0.9031 B(  2-C ,  5-C ) :   1.1305 
B(  2-C , 28-H ) :   0.9069 B(  3-C ,  4-C ) :   1.1071 B(  3-C ,  5-C ) :   1.2341 
B(  3-C , 37-H ) :   0.9042 B(  4-C , 38-H ) :   0.8999 B(  5-C , 29-H ) :   0.8980 
B(  6-N ,  7-C ) :   0.8917 B(  6-N , 17-C ) :   1.6662 B(  7-C ,  8-C ) :   0.9919 
B(  7-C , 12-C ) :   0.9688 B(  7-C , 13-H ) :   0.8765 B(  8-C ,  9-H ) :   0.9042 
B(  8-C , 10-H ) :   0.9127 B(  8-C , 11-H ) :   0.9097 B( 12-C , 14-H ) :   0.9069 
B( 12-C , 15-H ) :   0.9156 B( 12-C , 16-H ) :   0.9128 B( 17-C , 18-C ) :   1.0854 
B( 17-C , 19-H ) :   0.8752 B( 18-C , 20-C ) :   1.3065 B( 18-C , 22-S ) :   1.1997 
B( 20-C , 21-C ) :   1.2953 B( 20-C , 24-H ) :   0.4193 B( 21-C , 23-C ) :   1.5339 
B( 21-C , 25-H ) :   0.9063 B( 22-S , 23-C ) :   1.2167 B( 23-C , 26-H ) :   0.8929 
B( 24-H , 30-O ) :   0.2707 B( 30-O , 32-C ) :   1.6221 B( 31-O , 32-C ) :   1.3228 
B( 32-C , 33-C ) :   0.9496 B( 33-C , 34-H ) :   0.9026 B( 33-C , 35-H ) :   0.8955 
B( 33-C , 36-H ) :   0.9083 


------------------
HIRSHFELD ANALYSIS
------------------

Total integrated alpha density =     81.999913292
Total integrated beta density  =     81.999913292

  ATOM     CHARGE      SPIN    
   0 Ir   0.203944    0.000000
   1 C    0.006329    0.000000
   2 C    0.000364    0.000000
   3 C    0.002000    0.000000
   4 C    0.002120    0.000000
   5 C    0.018845    0.000000
   6 N   -0.075729    0.000000
   7 C    0.052756    0.000000
   8 C   -0.071324    0.000000
   9 H    0.053120    0.000000
  10 H    0.037922    0.000000
  11 H    0.042814    0.000000
  12 C   -0.071290    0.000000
  13 H    0.044834    0.000000
  14 H    0.050833    0.000000
  15 H    0.036891    0.000000
  16 H    0.029772    0.000000
  17 C    0.098811    0.000000
  18 C   -0.020360    0.000000
  19 H    0.075195    0.000000
  20 C   -0.079863    0.000000
  21 C   -0.040681    0.000000
  22 S    0.111651    0.000000
  23 C   -0.026523    0.000000
  24 H    0.071670    0.000000
  25 H    0.065806    0.000000
  26 H    0.076547    0.000000
  27 H    0.084431    0.000000
  28 H    0.085042    0.000000
  29 H    0.094432    0.000000
  30 O   -0.234394    0.000000
  31 O   -0.250679    0.000000
  32 C    0.251300    0.000000
  33 C   -0.065108    0.000000
  34 H    0.056651    0.000000
  35 H    0.061994    0.000000
  36 H    0.050213    0.000000
  37 H    0.087191    0.000000
  38 H    0.082645    0.000000

  TOTAL   1.000173    0.000000

-------
TIMINGS
-------

Total SCF time: 0 days 0 hours 4 min 34 sec 

Total time                  ....     274.400 sec
Sum of individual times     ....     273.873 sec  ( 99.8%)

Fock matrix formation       ....     266.014 sec  ( 96.9%)
  Split-RI-J                ....      20.168 sec  (  7.6% of F)
  Chain of spheres X        ....     233.504 sec  ( 87.8% of F)
  XC integration            ....      12.319 sec  (  4.6% of F)
    Basis function eval.    ....       5.730 sec  ( 46.5% of XC)
    Density eval.           ....       3.233 sec  ( 26.2% of XC)
    XC-Functional eval.     ....       0.918 sec  (  7.5% of XC)
    XC-Potential eval.      ....       1.951 sec  ( 15.8% of XC)
Diagonalization             ....       0.190 sec  (  0.1%)
Density matrix formation    ....       0.030 sec  (  0.0%)
Population analysis         ....       1.159 sec  (  0.4%)
Initial guess               ....       0.024 sec  (  0.0%)
Orbital Transformation      ....       0.000 sec  (  0.0%)
Orbital Orthonormalization  ....       0.017 sec  (  0.0%)
DIIS solution               ....       0.080 sec  (  0.0%)
Grid generation             ....       6.376 sec  (  2.3%)

Maximum memory used throughout the entire SCF-calculation: 172.5 MB


-------------------------------------------------------------------------------
                          DFT DISPERSION CORRECTION                            
                                                                               
                              DFTD3 V3.1  Rev 1                                
                          USING Becke-Johnson damping                          
-------------------------------------------------------------------------------
The PBEh-3c composite method is recognized
Using three-body term ABC
Active option DFTDOPT                   ...         4   

molecular C6(AA) [au] = 19590.418669 


            DFT-D V3
 parameters
 s6 scaling factor         :     1.0000 
 a1 scaling factor         :     0.4860 
 s8 scaling factor         :     0.0000 
 a2 scaling factor         :     4.5000 
 Damping factor alpha9(ATM):    16.0000 
 ad hoc parameters k1-k3   :    16.0000     1.3333    -4.0000 

 Edisp/kcal,au: -19.109145100398  -0.030452357856 
 E6   /kcal   : -19.448507613 
 E8   /kcal   :  -0.000000000 
 E6(ABC)      :   0.339362513 
 % E8         :   0.000000000 
 % E6(ABC)    :  -1.775916773 

-------------------------   ----------------
Dispersion correction           -0.030452358
-------------------------   ----------------

 ** NOTE ** -> element ir will be treated as co
NOTIFICATION: Different basis set in ORCA and otool_gcp:
ORCA: 358  gCP: 357 
If you are NOT using ECPs, check your basis set inputs!
------------------   -----------------
gCP correction             0.076936710
------------------   -----------------

-------------------------   --------------------
FINAL SINGLE POINT ENERGY     -1288.391561305978
-------------------------   --------------------

                                *** OPTIMIZATION RUN DONE ***

                            ***************************************
                            *     ORCA property calculations      *
                            ***************************************

                                    ---------------------
                                    Active property flags
                                    ---------------------
   (+) Dipole Moment


------------------------------------------------------------------------------
                       ORCA ELECTRIC PROPERTIES CALCULATION
------------------------------------------------------------------------------

Dipole Moment Calculation                       ... on
Quadrupole Moment Calculation                   ... off
Polarizability Calculation                      ... off
GBWName                                         ... reaction4-IEIP_ts_guess_scan_1-14_orca.gbw
Electron density                                ... reaction4-IEIP_ts_guess_scan_1-14_orca.scfp
The origin for moment calculation is the CENTER OF MASS  = ( 0.833154, -0.628598 -0.078586)

-------------
DIPOLE MOMENT
-------------
                                X             Y             Z
Electronic contribution:     33.37936     -71.89459      82.26930
Nuclear contribution   :    -33.99756      70.89068     -82.24869
                        -----------------------------------------
Total Dipole Moment    :     -0.61820      -1.00391       0.02061
                        -----------------------------------------
Magnitude (a.u.)       :      1.17916
Magnitude (Debye)      :      2.99719



--------------------
Rotational spectrum 
--------------------
 
Rotational constants in cm-1:     0.010542     0.008711     0.008046 
Rotational constants in MHz :   316.036023   261.147066   241.212262 

 Dipole components along the rotational axes: 
x,y,z [a.u.] :     0.228081     0.415050    -1.079878 
x,y,z [Debye]:     0.579735     1.054973    -2.744833 

 

Timings for individual modules:

Sum of individual times         ...     6144.657 sec (= 102.411 min)
GTO integral calculation        ...       20.381 sec (=   0.340 min)   0.3 %
SCF iterations                  ...     4867.779 sec (=  81.130 min)  79.2 %
SCF Gradient evaluation         ...     1253.530 sec (=  20.892 min)  20.4 %
Geometry relaxation             ...        2.966 sec (=   0.049 min)   0.0 %
                             ****ORCA TERMINATED NORMALLY****
TOTAL RUN TIME: 0 days 1 hours 42 minutes 28 seconds 989 msec
