
                                 *****************
                                 * O   R   C   A *
                                 *****************

                                            #,                                       
                                            ###                                      
                                            ####                                     
                                            #####                                    
                                            ######                                   
                                           ########,                                 
                                     ,,################,,,,,                         
                               ,,#################################,,                 
                          ,,##########################################,,             
                       ,#########################################, ''#####,          
                    ,#############################################,,   '####,        
                  ,##################################################,,,,####,       
                ,###########''''           ''''###############################       
              ,#####''   ,,,,##########,,,,          '''####'''          '####       
            ,##' ,,,,###########################,,,                        '##       
           ' ,,###''''                  '''############,,,                           
         ,,##''                                '''############,,,,        ,,,,,,###''
      ,#''                                            '''#######################'''  
     '                                                          ''''####''''         
             ,#######,   #######,   ,#######,      ##                                
            ,#'     '#,  ##    ##  ,#'     '#,    #''#        ######   ,####,        
            ##       ##  ##   ,#'  ##            #'  '#       #        #'  '#        
            ##       ##  #######   ##           ,######,      #####,   #    #        
            '#,     ,#'  ##    ##  '#,     ,#' ,#      #,         ##   #,  ,#        
             '#######'   ##     ##  '#######'  #'      '#     #####' # '####'        



                  #######################################################
                  #                        -***-                        #
                  #          Department of theory and spectroscopy      #
                  #    Directorship and core code : Frank Neese         #
                  #        Max Planck Institute fuer Kohlenforschung    #
                  #                Kaiser Wilhelm Platz 1               #
                  #                 D-45470 Muelheim/Ruhr               #
                  #                      Germany                        #
                  #                                                     #
                  #                  All rights reserved                #
                  #                        -***-                        #
                  #######################################################


                         Program Version 5.0.3 -  RELEASE  -


 With contributions from (in alphabetic order):
   Daniel Aravena         : Magnetic Suceptibility
   Michael Atanasov       : Ab Initio Ligand Field Theory (pilot matlab implementation)
   Alexander A. Auer      : GIAO ZORA, VPT2 properties, NMR spectrum
   Ute Becker             : Parallelization
   Giovanni Bistoni       : ED, misc. LED, open-shell LED, HFLD
   Martin Brehm           : Molecular dynamics
   Dmytro Bykov           : SCF Hessian
   Vijay G. Chilkuri      : MRCI spin determinant printing, contributions to CSF-ICE
   Dipayan Datta          : RHF DLPNO-CCSD density
   Achintya Kumar Dutta   : EOM-CC, STEOM-CC
   Dmitry Ganyushin       : Spin-Orbit,Spin-Spin,Magnetic field MRCI
   Miquel Garcia          : C-PCM and meta-GGA Hessian, CC/C-PCM, Gaussian charge scheme
   Yang Guo               : DLPNO-NEVPT2, F12-NEVPT2, CIM, IAO-localization
   Andreas Hansen         : Spin unrestricted coupled pair/coupled cluster methods
   Benjamin Helmich-Paris : MC-RPA, TRAH-SCF, COSX integrals
   Lee Huntington         : MR-EOM, pCC
   Robert Izsak           : Overlap fitted RIJCOSX, COSX-SCS-MP3, EOM
   Marcus Kettner         : VPT2
   Christian Kollmar      : KDIIS, OOCD, Brueckner-CCSD(T), CCSD density, CASPT2, CASPT2-K
   Simone Kossmann        : Meta GGA functionals, TD-DFT gradient, OOMP2, MP2 Hessian
   Martin Krupicka        : Initial AUTO-CI
   Lucas Lang             : DCDCAS
   Marvin Lechner         : AUTO-CI (C++ implementation), FIC-MRCC
   Dagmar Lenk            : GEPOL surface, SMD
   Dimitrios Liakos       : Extrapolation schemes; Compound Job, initial MDCI parallelization
   Dimitrios Manganas     : Further ROCIS development; embedding schemes
   Dimitrios Pantazis     : SARC Basis sets
   Anastasios Papadopoulos: AUTO-CI, single reference methods and gradients
   Taras Petrenko         : DFT Hessian,TD-DFT gradient, ASA, ECA, R-Raman, ABS, FL, XAS/XES, NRVS
   Peter Pinski           : DLPNO-MP2, DLPNO-MP2 Gradient
   Christoph Reimann      : Effective Core Potentials
   Marius Retegan         : Local ZFS, SOC
   Christoph Riplinger    : Optimizer, TS searches, QM/MM, DLPNO-CCSD(T), (RO)-DLPNO pert. Triples
   Tobias Risthaus        : Range-separated hybrids, TD-DFT gradient, RPA, STAB
   Michael Roemelt        : Original ROCIS implementation
   Masaaki Saitow         : Open-shell DLPNO-CCSD energy and density
   Barbara Sandhoefer     : DKH picture change effects
   Avijit Sen             : IP-ROCIS
   Kantharuban Sivalingam : CASSCF convergence, NEVPT2, FIC-MRCI
   Bernardo de Souza      : ESD, SOC TD-DFT
   Georgi Stoychev        : AutoAux, RI-MP2 NMR, DLPNO-MP2 response
   Willem Van den Heuvel  : Paramagnetic NMR
   Boris Wezisla          : Elementary symmetry handling
   Frank Wennmohs         : Technical directorship


 We gratefully acknowledge several colleagues who have allowed us to
 interface, adapt or use parts of their codes:
   Stefan Grimme, W. Hujo, H. Kruse, P. Pracht,  : VdW corrections, initial TS optimization,
                  C. Bannwarth, S. Ehlert          DFT functionals, gCP, sTDA/sTD-DF
   Ed Valeev, F. Pavosevic, A. Kumar             : LibInt (2-el integral package), F12 methods
   Garnet Chan, S. Sharma, J. Yang, R. Olivares  : DMRG
   Ulf Ekstrom                                   : XCFun DFT Library
   Mihaly Kallay                                 : mrcc  (arbitrary order and MRCC methods)
   Jiri Pittner, Ondrej Demel                    : Mk-CCSD
   Frank Weinhold                                : gennbo (NPA and NBO analysis)
   Christopher J. Cramer and Donald G. Truhlar   : smd solvation model
   Lars Goerigk                                  : TD-DFT with DH, B97 family of functionals
   V. Asgeirsson, H. Jonsson                     : NEB implementation
   FAccTs GmbH                                   : IRC, NEB, NEB-TS, DLPNO-Multilevel, CI-OPT
                                                   MM, QMMM, 2- and 3-layer-ONIOM, Crystal-QMMM,
                                                   LR-CPCM, SF, NACMEs, symmetry and pop. for TD-DFT,
                                                   nearIR, NL-DFT gradient (VV10), updates on ESD,
                                                   ML-optimized integration grids
   S Lehtola, MJT Oliveira, MAL Marques          : LibXC Library
   Liviu Ungur et al                             : ANISO software


 Your calculation uses the libint2 library for the computation of 2-el integrals
 For citations please refer to: http://libint.valeyev.net

 Your ORCA version has been built with support for libXC version: 5.1.0
 For citations please refer to: https://tddft.org/programs/libxc/

 This ORCA versions uses:
   CBLAS   interface :  Fast vector & matrix operations
   LAPACKE interface :  Fast linear algebra routines
   SCALAPACK package :  Parallel linear algebra routines
   Shared memory     :  Shared parallel matrices
   BLAS/LAPACK       :  OpenBLAS 0.3.15  USE64BITINT DYNAMIC_ARCH NO_AFFINITY SkylakeX SINGLE_THREADED
        Core in use  :  SkylakeX
   Copyright (c) 2011-2014, The OpenBLAS Project


Your calculation utilizes the geometrical counterpoise correction gCP
Please cite in your paper:
H.Kruse, S. Grimme J.Chem.Phys., 136, (2012), 154101 
   

Your calculation utilizes the atom-pairwise dispersion correction
with the Becke-Johnson damping scheme (D3BJ)
Cite in your paper:
S.Grimme, S.Ehrlich, L.Goerigk, J Comput Chem, (2011), 32, 1456–1465 
S.Grimme, J.Antony, S.Ehrlich and H.Krieg, J.Chem.Phys., 132, (2010), 154104 
   

Your calculation employs the composite approach PBEh-3c.
Please cite in your paper:
S. Grimme, J. G. Brandenburg, C. Bannwarth, A. Hansen J.Chem.Phys., 143, (2015), 054107 
   

================================================================================

cite the ECPs for Ir [Def2-ECP] as follows:
Ce-Yb(ecp-28): M. Dolg, H. Stoll, H.Preuss, J. Chem. Phys., 1989, 90, 1730-1734.
Y-Cd(ecp-28), Hf-Hg(ecp-46): D. Andrae,U. Haeussermann, M. Dolg, H. Stoll, H. Preuss, Theor. Chim. Acta, 1990, 77, 123-141.
In-Sb(ecp-28), Tl-Bi(ecp-46): B. Metz, H. Stoll, M. Dolg, J. Chem. Phys., 2000, 113, 2563-2569.
Te-Xe(ecp-28), Po-Rn(ecp-46): K. A. Peterson, D. Figgen, E. Goll, H. Stoll, M. Dolg, J. Chem. Phys., 2003, 119, 11113-11123.
Rb(ecp-28), Cs(ecp-46): T. Leininger, A. Nicklass, W. Kuechle, H. Stoll, M. Dolg, A. Bergner, Chem. Phys. Lett., 1996, 255, 274-280.
Sr(ecp-28), Ba(ecp-46): M. Kaupp, P. V. Schleyer, H. Stoll and H. Preuss, J. Chem. Phys., 1991, 94, 1360-1366.
La(ecp-46): M. Dolg, H. Stoll, A. Savin, H. Preuss, Theor. Chim. Acta, 1989, 75, 173-194.
Lu(ecp-28): X. Cao, M. Dolg, J. Chem. Phys., 2001, 115, 7348-7355.

ECP parameters for Ir [Def2-ECP] have been obtained from:
TURBOMOLE (7.0.2)

----- Orbital basis set information -----
Your calculation utilizes the basis: def2-mSVP

----- AuxJ basis set information -----
Your calculation utilizes the auxiliary basis: def2/J
   F. Weigend, Phys. Chem. Chem. Phys. 8, 1057 (2006).

================================================================================
                                        WARNINGS
                       Please study these warnings very carefully!
================================================================================


WARNING: Geometry Optimization
  ===> : Switching off AutoStart
         For restart on a previous wavefunction, please use MOREAD

WARNING: No Hueckel Guess possible with ECP basis!
  ===> : Switching to HCORE guess!

INFO   : the flag for use of the SHARK integral package has been found!

================================================================================
                                       INPUT FILE
================================================================================
NAME = reaction4-IEIP_ts_guess_scan_10-6_orca.inp
|  1> ! Opt PBEh-3c
|  2> %geom Constraints
|  3> { B 0 20 2.1714285714285713 C }
|  4> { B 24 30 1.4142857142857144 C }
|  5>     end
|  6> end
|  7> %output 
|  8> xyzfile=True 
|  9> end 
| 10> %scf 
| 11> maxiter 250 
| 12> end
| 13> %output
| 14> Print[P_Hirshfeld] = 1
| 15> end
| 16> % maxcore
| 17> 4000
| 18> *xyz 1 1
| 19> Ir   0.62260981  -0.71998194   0.43534858 
| 20> C    0.12920487  -2.83053869   0.32715926 
| 21> C   -0.00408916  -2.37442559   1.68607727 
| 22> C    2.19636745  -2.08429717   1.04007077 
| 23> C    1.46915478  -2.64875259  -0.06962335 
| 24> C    1.28514476  -1.94687462   2.11356349 
| 25> N   -1.05130119   0.13031479  -0.51227320 
| 26> C   -2.31764243   0.38155809   0.19362410 
| 27> C   -3.09815979   1.56703201  -0.35537297 
| 28> H   -3.92180769   1.79032358   0.32125237 
| 29> H   -3.54330549   1.36682089  -1.33088118 
| 30> H   -2.48190807   2.46346960  -0.42703621 
| 31> C   -3.15721576  -0.89112640   0.19337357 
| 32> H   -2.02666976   0.60967123   1.21982421 
| 33> H   -4.05720480  -0.74006291   0.78786470 
| 34> H   -3.46650465  -1.15907296  -0.81772656 
| 35> H   -2.61943440  -1.73552129   0.62180434 
| 36> C   -0.89986720   0.40805627  -1.75335290 
| 37> C    0.42537362   0.21916941  -2.27455505 
| 38> H   -1.70947648   0.79775508  -2.36272696 
| 39> C    1.49672414   0.19485397  -1.38180873 
| 40> C    2.70571575  -0.10365773  -2.08047562 
| 41> S    0.87749139  -0.09905154  -3.87830610 
| 42> C    2.51958402  -0.28150933  -3.41641736 
| 43> H    1.55983976   1.18334806  -0.63553996 
| 44> H    3.68041005  -0.12745422  -1.61523082 
| 45> H    3.26590587  -0.48765426  -4.16851662 
| 46> H   -0.66034438  -3.23899119  -0.28686472 
| 47> H   -0.89166063  -2.42114231   2.29881952 
| 48> H    1.51331502  -1.51680176   3.07861096 
| 49> O    1.54758353   2.37600290   0.15074277 
| 50> O    0.55541488   0.98517764   1.57827446 
| 51> C    1.03211444   2.12678411   1.24814838 
| 52> C    0.96851463   3.19119179   2.30566076 
| 53> H    0.92392054   4.17983055   1.85638989 
| 54> H    1.87758183   3.14342324   2.90808746 
| 55> H    0.12301505   3.04376316   2.97313812 
| 56> H    3.25151070  -1.85989837   1.06830616 
| 57> H    1.87946503  -2.89254156  -1.03869276 
| 58> *
| 59> 
| 60>                          ****END OF INPUT****
================================================================================

                       *****************************
                       * Geometry Optimization Run *
                       *****************************

Geometry optimization settings:
Update method            Update   .... BFGS
Choice of coordinates    CoordSys .... Z-matrix Internals
Initial Hessian          InHess   .... Almoef's Model

Convergence Tolerances:
Energy Change            TolE     ....  5.0000e-06 Eh
Max. Gradient            TolMAXG  ....  3.0000e-04 Eh/bohr
RMS Gradient             TolRMSG  ....  1.0000e-04 Eh/bohr
Max. Displacement        TolMAXD  ....  4.0000e-03 bohr
RMS Displacement         TolRMSD  ....  2.0000e-03 bohr
Strict Convergence                ....  False
------------------------------------------------------------------------------
                        ORCA OPTIMIZATION COORDINATE SETUP
------------------------------------------------------------------------------

The optimization will be done in new redundant internal coordinates
Making redundant internal coordinates   ...  (new redundants) done
Evaluating the initial hessian          ...  (Almloef) done
Evaluating the coordinates              ...  done
Calculating the B-matrix                .... done
Calculating the G-matrix                .... done
Diagonalizing the G-matrix              .... done
Imposing constraints:
 Iter   0:  RMS(Cart)=    0.0180972059 RMS(Int)=    0.0071400697
 Iter   1:  RMS(Cart)=    0.0021623847 RMS(Int)=    0.0008883935
 Iter   2:  RMS(Cart)=    0.0002686376 RMS(Int)=    0.0001102357
 Iter   3:  RMS(Cart)=    0.0000332924 RMS(Int)=    0.0000136310
 Iter   4:  RMS(Cart)=    0.0000041145 RMS(Int)=    0.0000016829
 Iter   5:  RMS(Cart)=    0.0000005079 RMS(Int)=    0.0000002077
 Iter   6:  RMS(Cart)=    0.0000000627 RMS(Int)=    0.0000000256
CONVERGED
Small eigenvalue found = 1.404e-02
Small eigenvalue found = 2.226e-02
The first mode is                       ....  280
The number of degrees of freedom        ....  111
Storing new coordinates                 .... done

    -----------------------------------------------------------------
                    Redundant Internal Coordinates


    -----------------------------------------------------------------
         Definition                    Initial Value    Approx d2E/dq
    -----------------------------------------------------------------
      1. B(C   1,Ir  0)                  2.1700         0.082792   
      2. B(C   2,C   1)                  1.4394         0.520710   
      3. B(C   2,Ir  0)                  2.1664         0.083876   
      4. B(C   3,Ir  0)                  2.1686         0.083203   
      5. B(C   4,C   3)                  1.4417         0.516475   
      6. B(C   4,Ir  0)                  2.1659         0.084051   
      7. B(C   4,C   1)                  1.4096         0.582167   
      8. B(C   5,Ir  0)                  2.1814         0.079302   
      9. B(C   5,C   2)                  1.4250         0.551511   
     10. B(C   5,C   3)                  1.4158         0.570435   
     11. B(N   6,Ir  0)                  2.1035         0.094873   
     12. B(C   7,N   6)                  1.4714         0.414952   
     13. B(C   8,C   7)                  1.5218         0.384963   
     14. B(H   9,C   8)                  1.0891         0.361330   
     15. B(H  10,C   8)                  1.0908         0.359037   
     16. B(H  11,C   8)                  1.0902         0.359856   
     17. B(C  12,C   7)                  1.5247         0.380966   
     18. B(H  13,C   7)                  1.0908         0.359078   
     19. B(H  14,C  12)                  1.0891         0.361243   
     20. B(H  15,C  12)                  1.0908         0.359083   
     21. B(H  16,C  12)                  1.0889         0.361521   
     22. B(C  17,N   6)                  1.2757         0.835906   
     23. B(C  18,C  17)                  1.4316         0.526644   
     24. B(H  19,C  17)                  1.0857         0.365880   
     25. B(C  20,Ir  0)                  2.1714         0.070403 C 
     26. B(C  20,C  18)                  1.3953         0.613947   
     27. B(C  21,C  20)                  1.4286         0.543585   
     28. B(S  22,C  18)                  1.6963         0.546641   
     29. B(C  23,C  21)                  1.3603         0.696259   
     30. B(C  23,S  22)                  1.7147         0.509469   
     31. B(H  24,C  20)                  1.2406         0.207413   
     32. B(H  25,C  21)                  1.0803         0.373163   
     33. B(H  26,C  23)                  1.0795         0.374373   
     34. B(H  27,C   1)                  1.0804         0.373037   
     35. B(H  28,C   2)                  1.0796         0.374199   
     36. B(H  29,C   5)                  1.0809         0.372344   
     37. B(O  30,H  24)                  1.4143         0.092980 C 
     38. B(O  31,Ir  0)                  2.0534         0.113676   
     39. B(C  32,O  30)                  1.2379         0.978861   
     40. B(C  32,O  31)                  1.2802         0.836939   
     41. B(C  33,C  32)                  1.5018         0.414383   
     42. B(H  34,C  33)                  1.0869         0.364293   
     43. B(H  35,C  33)                  1.0916         0.357982   
     44. B(H  36,C  33)                  1.0873         0.363745   
     45. B(H  37,C   3)                  1.0791         0.374798   
     46. B(H  38,C   4)                  1.0802         0.373268   
     47. A(C   1,Ir  0,N   6)          100.9008         0.248637   
     48. A(C   1,Ir  0,C   3)           64.3743         0.245081   
     49. A(C   2,Ir  0,N   6)          109.7024         0.249107   
     50. A(C   2,Ir  0,C   5)           38.2641         0.243849   
     51. A(N   6,Ir  0,O  31)           83.6068         0.259285   
     52. A(C  20,Ir  0,O  31)           97.2818         0.249315   
     53. A(C   2,Ir  0,C  20)          154.5743         0.239733   
     54. A(C   2,Ir  0,O  31)          107.6682         0.255796   
     55. A(C   1,Ir  0,C   5)           63.9527         0.243394   
     56. A(C   3,Ir  0,C   4)           38.8549         0.245615   
     57. A(C   2,Ir  0,C   3)           64.4987         0.245541   
     58. A(C   3,Ir  0,C  20)          101.5454         0.239458   
     59. A(C   4,Ir  0,N   6)          124.4814         0.249183   
     60. A(C   1,Ir  0,O  31)          145.8788         0.255306   
     61. A(C   5,Ir  0,O  31)           92.7949         0.253692   
     62. A(C   5,Ir  0,C  20)          137.9488         0.237832   
     63. A(C   4,Ir  0,C  20)           91.2054         0.239804   
     64. A(C   2,Ir  0,C   4)           64.4070         0.245900   
     65. A(C   1,Ir  0,C  20)          116.7644         0.239290   
     66. A(C   3,Ir  0,N   6)          163.2440         0.248816   
     67. A(C   1,Ir  0,C   4)           37.9437         0.245439   
     68. A(C   4,Ir  0,O  31)          151.8737         0.255875   
     69. A(C   1,Ir  0,C   2)           38.7730         0.245365   
     70. A(C   3,Ir  0,O  31)          113.0212         0.255492   
     71. A(C   5,Ir  0,N   6)          144.5803         0.247088   
     72. A(C   3,Ir  0,C   5)           37.9863         0.243567   
     73. A(N   6,Ir  0,C  20)           77.3014         0.242886   
     74. A(C   4,Ir  0,C   5)           63.9130         0.243922   
     75. A(C   2,C   1,H  27)          126.0413         0.344722   
     76. A(Ir  0,C   1,C   2)           70.4769         0.311960   
     77. A(C   2,C   1,C   4)          108.2601         0.416007   
     78. A(C   4,C   1,H  27)          125.6982         0.351262   
     79. A(Ir  0,C   1,H  27)          124.2160         0.267815   
     80. A(Ir  0,C   1,C   4)           70.8694         0.317662   
     81. A(Ir  0,C   2,C   1)           70.7501         0.312617   
     82. A(Ir  0,C   2,C   5)           71.4382         0.315545   
     83. A(C   1,C   2,C   5)          107.1186         0.412028   
     84. A(Ir  0,C   2,H  28)          126.7737         0.268468   
     85. A(C   5,C   2,H  28)          125.9667         0.348252   
     86. A(C   1,C   2,H  28)          126.7371         0.344902   
     87. A(C   4,C   3,C   5)          107.2627         0.413903   
     88. A(Ir  0,C   3,C   4)           70.4715         0.311798   
     89. A(Ir  0,C   3,C   5)           71.4970         0.316866   
     90. A(Ir  0,C   3,H  37)          125.8844         0.268206   
     91. A(C   5,C   3,H  37)          126.1623         0.350334   
     92. A(C   4,C   3,H  37)          126.4913         0.344522   
     93. A(Ir  0,C   4,C   1)           71.1870         0.318444   
     94. A(Ir  0,C   4,H  38)          123.9652         0.268452   
     95. A(Ir  0,C   4,C   3)           70.6736         0.312310   
     96. A(C   3,C   4,H  38)          125.9381         0.344286   
     97. A(C   1,C   4,C   3)          108.2923         0.415404   
     98. A(C   1,C   4,H  38)          125.7696         0.351298   
     99. A(Ir  0,C   5,H  29)          121.8110         0.266006   
    100. A(Ir  0,C   5,C   2)           70.2977         0.312688   
    101. A(C   3,C   5,H  29)          125.4608         0.349946   
    102. A(Ir  0,C   5,C   3)           70.5167         0.314403   
    103. A(C   2,C   5,C   3)          109.0280         0.418766   
    104. A(C   2,C   5,H  29)          125.3611         0.347961   
    105. A(Ir  0,N   6,C  17)          115.3703         0.341020   
    106. A(C   7,N   6,C  17)          122.0321         0.420608   
    107. A(Ir  0,N   6,C   7)          122.5958         0.304076   
    108. A(C   8,C   7,H  13)          108.2584         0.325771   
    109. A(C  12,C   7,H  13)          108.7603         0.325213   
    110. A(N   6,C   7,C   8)          113.6625         0.369541   
    111. A(N   6,C   7,C  12)          109.3482         0.368879   
    112. A(C   8,C   7,C  12)          111.5772         0.366450   
    113. A(N   6,C   7,H  13)          104.9201         0.327844   
    114. A(C   7,C   8,H   9)          108.8729         0.326107   
    115. A(C   7,C   8,H  10)          112.8889         0.325765   
    116. A(H   9,C   8,H  10)          106.5360         0.290860   
    117. A(C   7,C   8,H  11)          111.9833         0.325887   
    118. A(H   9,C   8,H  11)          107.4430         0.290964   
    119. A(H  10,C   8,H  11)          108.8333         0.290673   
    120. A(C   7,C  12,H  14)          109.8258         0.325534   
    121. A(C   7,C  12,H  15)          111.1825         0.325213   
    122. A(H  14,C  12,H  15)          107.8023         0.290855   
    123. A(C   7,C  12,H  16)          112.0406         0.325575   
    124. A(H  14,C  12,H  16)          107.5112         0.291164   
    125. A(H  15,C  12,H  16)          108.3160         0.290890   
    126. A(N   6,C  17,C  18)          114.9648         0.441893   
    127. A(N   6,C  17,H  19)          122.5578         0.370062   
    128. A(C  18,C  17,H  19)          122.4357         0.344257   
    129. A(C  17,C  18,S  22)          127.7868         0.434898   
    130. A(C  20,C  18,S  22)          113.5779         0.447118   
    131. A(C  17,C  18,C  20)          118.4757         0.420815   
    132. A(C  18,C  20,C  21)          109.6638         0.423202   
    133. A(Ir  0,C  20,H  24)           81.6947         0.239929   
    134. A(C  18,C  20,H  24)          114.2877         0.321414   
    135. A(C  21,C  20,H  24)          114.7833         0.315098   
    136. A(Ir  0,C  20,C  18)          103.9471         0.312092   
    137. A(Ir  0,C  20,C  21)          130.0312         0.306030   
    138. A(C  20,C  21,C  23)          113.2267         0.432855   
    139. A(C  20,C  21,H  25)          123.8327         0.347242   
    140. A(C  23,C  21,H  25)          122.8379         0.362124   
    141. A(C  18,S  22,C  23)           91.1206         0.456414   
    142. A(C  21,C  23,S  22)          112.4107         0.451636   
    143. A(C  21,C  23,H  26)          127.9241         0.362324   
    144. A(S  22,C  23,H  26)          119.6431         0.361546   
    145. A(Ir  0,O  31,C  32)          125.5663         0.351622   
    146. A(O  30,C  32,O  31)          124.2003         0.491816   
    147. A(O  30,C  32,C  33)          119.9864         0.435415   
    148. A(O  31,C  32,C  33)          115.7963         0.423348   
    149. A(C  32,C  33,H  34)          110.8161         0.330538   
    150. A(C  32,C  33,H  35)          108.8041         0.329584   
    151. A(H  34,C  33,H  35)          107.5838         0.291099   
    152. A(C  32,C  33,H  36)          111.6616         0.330456   
    153. A(H  34,C  33,H  36)          110.1947         0.291831   
    154. A(H  35,C  33,H  36)          107.6302         0.291030   
    155. D(C   2,C   1,Ir  0,N   6)   -107.9680         0.001689   
    156. D(C   4,C   1,Ir  0,C   2)   -118.3510         0.001689   
    157. D(H  27,C   1,Ir  0,C   3)   -158.5984         0.001689   
    158. D(C   4,C   1,Ir  0,C  20)     52.5162         0.001689   
    159. D(C   2,C   1,Ir  0,C   3)     80.4840         0.001689   
    160. D(C   4,C   1,Ir  0,N   6)    133.6810         0.001689   
    161. D(H  27,C   1,Ir  0,C   2)    120.9176         0.001689   
    162. D(C   2,C   1,Ir  0,O  31)    -13.2607         0.001689   
    163. D(H  27,C   1,Ir  0,N   6)     12.9496         0.001689   
    164. D(C   2,C   1,Ir  0,C  20)    170.8672         0.001689   
    165. D(C   4,C   1,Ir  0,C   3)    -37.8670         0.001689   
    166. D(H  27,C   1,Ir  0,C  20)    -68.2152         0.001689   
    167. D(H  27,C   1,Ir  0,C   4)   -120.7314         0.001689   
    168. D(H  27,C   1,Ir  0,O  31)    107.6569         0.001689   
    169. D(C   2,C   1,Ir  0,C   5)     38.0895         0.001689   
    170. D(H  27,C   1,Ir  0,C   5)    159.0071         0.001689   
    171. D(C   4,C   1,Ir  0,C   5)    -80.2615         0.001689   
    172. D(C   4,C   1,Ir  0,O  31)   -131.6117         0.001689   
    173. D(C   2,C   1,Ir  0,C   4)    118.3510         0.001689   
    174. D(H  28,C   2,Ir  0,C   5)    121.4993         0.001694   
    175. D(H  28,C   2,C   1,C   4)   -176.8438         0.021520   
    176. D(C   5,C   2,C   1,H  27)    178.7356         0.021520   
    177. D(C   1,C   2,Ir  0,N   6)     82.8157         0.001694   
    178. D(C   1,C   2,Ir  0,C   3)    -80.1355         0.001694   
    179. D(Ir  0,C   2,C   1,C   4)     61.1092         0.021520   
    180. D(H  28,C   2,Ir  0,C   1)   -122.0034         0.001694   
    181. D(H  28,C   2,Ir  0,C  20)   -141.2774         0.001694   
    182. D(C   1,C   2,Ir  0,C   5)   -116.4973         0.001694   
    183. D(C   5,C   2,Ir  0,C   3)     36.3618         0.001694   
    184. D(H  28,C   2,Ir  0,C   4)   -158.8735         0.001694   
    185. D(H  28,C   2,Ir  0,C   3)    157.8611         0.001694   
    186. D(Ir  0,C   2,C   1,H  27)   -118.6751         0.021520   
    187. D(C   1,C   2,Ir  0,C   4)    -36.8701         0.001694   
    188. D(C   5,C   2,Ir  0,C   1)    116.4973         0.001694   
    189. D(C   1,C   2,Ir  0,C  20)    -19.2740         0.001694   
    190. D(C   5,C   2,Ir  0,O  31)    -71.2637         0.001694   
    191. D(C   5,C   2,Ir  0,N   6)   -160.6870         0.001694   
    192. D(H  28,C   2,C   1,Ir  0)    122.0470         0.021520   
    193. D(C   5,C   2,C   1,Ir  0)    -62.5893         0.021520   
    194. D(C   1,C   2,Ir  0,O  31)    172.2390         0.001694   
    195. D(C   5,C   2,Ir  0,C  20)     97.2232         0.001694   
    196. D(H  28,C   2,Ir  0,N   6)    -39.1877         0.001694   
    197. D(C   5,C   2,Ir  0,C   4)     79.6272         0.001694   
    198. D(C   5,C   2,C   1,C   4)     -1.4801         0.021520   
    199. D(H  28,C   2,Ir  0,O  31)     50.2356         0.001694   
    200. D(H  28,C   2,C   1,H  27)      3.3719         0.021520   
    201. D(C   4,C   3,Ir  0,N   6)      6.9455         0.001691   
    202. D(C   5,C   3,Ir  0,C   1)    -79.8030         0.001691   
    203. D(H  37,C   3,Ir  0,C   5)   -121.7286         0.001691   
    204. D(H  37,C   3,Ir  0,C   2)   -158.3522         0.001691   
    205. D(C   4,C   3,Ir  0,O  31)    179.5288         0.001691   
    206. D(H  37,C   3,Ir  0,N   6)    128.4269         0.001691   
    207. D(C   5,C   3,Ir  0,C  20)    165.8805         0.001691   
    208. D(H  37,C   3,Ir  0,C   1)    158.4684         0.001691   
    209. D(H  37,C   3,Ir  0,C   4)    121.4813         0.001691   
    210. D(C   4,C   3,Ir  0,C   5)    116.7901         0.001691   
    211. D(C   5,C   3,Ir  0,C   4)   -116.7901         0.001691   
    212. D(C   5,C   3,Ir  0,O  31)     62.7387         0.001691   
    213. D(C   4,C   3,Ir  0,C  20)    -77.3294         0.001691   
    214. D(C   4,C   3,Ir  0,C   1)     36.9871         0.001691   
    215. D(C   4,C   3,Ir  0,C   2)     80.1665         0.001691   
    216. D(C   5,C   3,Ir  0,N   6)   -109.8446         0.001691   
    217. D(C   5,C   3,Ir  0,C   2)    -36.6236         0.001691   
    218. D(H  37,C   3,Ir  0,C  20)     44.1519         0.001691   
    219. D(H  37,C   3,Ir  0,O  31)    -58.9899         0.001691   
    220. D(C   1,C   4,Ir  0,C  20)   -134.8733         0.001695   
    221. D(C   1,C   4,Ir  0,C   2)     37.6675         0.001695   
    222. D(C   3,C   4,Ir  0,C   2)    -80.4227         0.001695   
    223. D(C   1,C   4,Ir  0,C   5)     80.3755         0.001695   
    224. D(C   1,C   4,Ir  0,N   6)    -59.4859         0.001695   
    225. D(C   3,C   4,Ir  0,C   5)    -37.7146         0.001695   
    226. D(C   3,C   4,Ir  0,C   1)   -118.0901         0.001695   
    227. D(C   1,C   4,Ir  0,O  31)    117.1702         0.001695   
    228. D(C   1,C   4,Ir  0,C   3)    118.0901         0.001695   
    229. D(H  38,C   4,C   1,Ir  0)   -118.8162         0.027176   
    230. D(C   3,C   4,Ir  0,C  20)    107.0365         0.001695   
    231. D(C   3,C   4,Ir  0,O  31)     -0.9199         0.001695   
    232. D(Ir  0,C   4,C   1,C   2)    -60.8610         0.027176   
    233. D(H  38,C   4,Ir  0,C   1)    121.0017         0.001695   
    234. D(H  38,C   4,Ir  0,C   3)   -120.9082         0.001695   
    235. D(H  38,C   4,Ir  0,C   5)   -158.6228         0.001695   
    236. D(H  38,C   4,Ir  0,N   6)     61.5158         0.001695   
    237. D(H  38,C   4,Ir  0,C  20)    -13.8716         0.001695   
    238. D(H  38,C   4,Ir  0,C   2)    158.6692         0.001695   
    239. D(Ir  0,C   4,C   1,H  27)    118.9242         0.027176   
    240. D(H  38,C   4,Ir  0,O  31)   -121.8281         0.001695   
    241. D(C   3,C   4,C   1,Ir  0)     61.2588         0.027176   
    242. D(C   3,C   4,C   1,C   2)      0.3978         0.027176   
    243. D(H  38,C   4,C   1,C   2)   -179.6772         0.027176   
    244. D(C   3,C   4,Ir  0,N   6)   -177.5761         0.001695   
    245. D(C   3,C   4,C   1,H  27)   -179.8170         0.027176   
    246. D(Ir  0,C   4,C   3,H  37)   -120.7456         0.021160   
    247. D(Ir  0,C   4,C   3,C   5)     62.4305         0.021160   
    248. D(H  38,C   4,C   3,C   5)   -179.0789         0.021160   
    249. D(C   1,C   4,C   3,C   5)      0.8459         0.021160   
    250. D(C   1,C   4,C   3,H  37)    177.6698         0.021160   
    251. D(H  38,C   4,C   3,Ir  0)    118.4906         0.021160   
    252. D(H  38,C   4,C   1,H  27)      0.1080         0.027176   
    253. D(H  38,C   4,C   3,H  37)     -2.2550         0.021160   
    254. D(C   1,C   4,C   3,Ir  0)    -61.5846         0.021160   
    255. D(H  29,C   5,C   2,H  28)     -6.8294         0.024253   
    256. D(C   2,C   5,Ir  0,C   4)    -81.0311         0.001674   
    257. D(C   2,C   5,Ir  0,C   3)   -119.6058         0.001674   
    258. D(C   3,C   5,C   2,C   1)      2.0233         0.024253   
    259. D(C   2,C   5,Ir  0,C  20)   -140.5120         0.001674   
    260. D(C   2,C   5,Ir  0,O  31)    115.3898         0.001674   
    261. D(H  29,C   5,Ir  0,O  31)     -4.6927         0.001674   
    262. D(C   3,C   5,Ir  0,C   2)    119.6058         0.001674   
    263. D(C   3,C   5,Ir  0,C   4)     38.5746         0.001674   
    264. D(C   3,C   5,Ir  0,N   6)    152.1020         0.001674   
    265. D(C   3,C   5,Ir  0,C  20)    -20.9063         0.001674   
    266. D(C   3,C   5,Ir  0,O  31)   -125.0045         0.001674   
    267. D(H  29,C   5,Ir  0,C   1)   -158.6776         0.001674   
    268. D(H  29,C   5,Ir  0,C   2)   -120.0825         0.001674   
    269. D(H  29,C   5,Ir  0,C   3)    120.3118         0.001674   
    270. D(H  29,C   5,Ir  0,C   4)    158.8864         0.001674   
    271. D(H  29,C   5,Ir  0,N   6)    -87.5862         0.001674   
    272. D(C   3,C   5,Ir  0,C   1)     81.0106         0.001674   
    273. D(H  29,C   5,Ir  0,C  20)     99.4055         0.001674   
    274. D(Ir  0,C   5,C   2,C   1)     62.1392         0.024253   
    275. D(Ir  0,C   5,C   2,H  28)   -122.4514         0.024253   
    276. D(C   2,C   5,Ir  0,N   6)     32.4962         0.001674   
    277. D(C   3,C   5,C   2,Ir  0)    -60.1159         0.024253   
    278. D(H  29,C   5,C   2,Ir  0)    115.6220         0.024253   
    279. D(C   3,C   5,C   2,H  28)    177.4327         0.024253   
    280. D(C   2,C   5,Ir  0,C   1)    -38.5951         0.001674   
    281. D(H  29,C   5,C   2,C   1)    177.7612         0.024253   
    282. D(H  29,C   5,C   3,H  37)      5.6477         0.026033   
    283. D(Ir  0,C   5,C   3,H  37)    121.3996         0.026033   
    284. D(C   2,C   5,C   3,Ir  0)     59.9806         0.026033   
    285. D(C   2,C   5,C   3,C   4)     -1.7824         0.026033   
    286. D(C   2,C   5,C   3,H  37)   -178.6197         0.026033   
    287. D(H  29,C   5,C   3,Ir  0)   -115.7520         0.026033   
    288. D(Ir  0,C   5,C   3,C   4)    -61.7630         0.026033   
    289. D(H  29,C   5,C   3,C   4)   -177.5150         0.026033   
    290. D(C   7,N   6,Ir  0,C   1)     82.5833         0.001766   
    291. D(C   7,N   6,Ir  0,C   2)     43.3310         0.001766   
    292. D(C   7,N   6,Ir  0,C   3)    109.9498         0.001766   
    293. D(C   7,N   6,Ir  0,C   4)    115.2303         0.001766   
    294. D(C   7,N   6,Ir  0,C   5)     22.6358         0.001766   
    295. D(C   7,N   6,Ir  0,C  20)   -162.1583         0.001766   
    296. D(C   7,N   6,Ir  0,O  31)    -63.1842         0.001766   
    297. D(C  17,N   6,Ir  0,C   1)    -96.9381         0.001766   
    298. D(C  17,N   6,Ir  0,C   2)   -136.1904         0.001766   
    299. D(C  17,N   6,Ir  0,C   3)    -69.5716         0.001766   
    300. D(C  17,N   6,Ir  0,C   4)    -64.2911         0.001766   
    301. D(C  17,N   6,Ir  0,C   5)   -156.8857         0.001766   
    302. D(C  17,N   6,Ir  0,C  20)     18.3202         0.001766   
    303. D(C  17,N   6,Ir  0,O  31)    117.2944         0.001766   
    304. D(C   8,C   7,N   6,Ir  0)    150.1625         0.014685   
    305. D(C   8,C   7,N   6,C  17)    -30.3475         0.014685   
    306. D(C  12,C   7,N   6,Ir  0)    -84.4283         0.014685   
    307. D(C  12,C   7,N   6,C  17)     95.0616         0.014685   
    308. D(H  13,C   7,N   6,Ir  0)     32.0793         0.014685   
    309. D(H  13,C   7,N   6,C  17)   -148.4307         0.014685   
    310. D(H   9,C   8,C   7,N   6)   -170.2349         0.011796   
    311. D(H   9,C   8,C   7,C  12)     65.5523         0.011796   
    312. D(H   9,C   8,C   7,H  13)    -54.0945         0.011796   
    313. D(H  10,C   8,C   7,N   6)     71.6775         0.011796   
    314. D(H  10,C   8,C   7,C  12)    -52.5353         0.011796   
    315. D(H  10,C   8,C   7,H  13)   -172.1821         0.011796   
    316. D(H  11,C   8,C   7,N   6)    -51.5738         0.011796   
    317. D(H  11,C   8,C   7,C  12)   -175.7866         0.011796   
    318. D(H  11,C   8,C   7,H  13)     64.5666         0.011796   
    319. D(H  14,C  12,C   7,N   6)    175.0944         0.011564   
    320. D(H  14,C  12,C   7,C   8)    -58.3008         0.011564   
    321. D(H  14,C  12,C   7,H  13)     61.0489         0.011564   
    322. D(H  15,C  12,C   7,N   6)    -65.6792         0.011564   
    323. D(H  15,C  12,C   7,C   8)     60.9256         0.011564   
    324. D(H  15,C  12,C   7,H  13)   -179.7247         0.011564   
    325. D(H  16,C  12,C   7,N   6)     55.6860         0.011564   
    326. D(H  16,C  12,C   7,C   8)   -177.7092         0.011564   
    327. D(H  16,C  12,C   7,H  13)    -58.3594         0.011564   
    328. D(C  18,C  17,N   6,Ir  0)     -5.6629         0.060234   
    329. D(C  18,C  17,N   6,C   7)    174.8127         0.060234   
    330. D(H  19,C  17,N   6,Ir  0)    176.6350         0.060234   
    331. D(H  19,C  17,N   6,C   7)     -2.8894         0.060234   
    332. D(C  20,C  18,C  17,N   6)    -20.6533         0.018926   
    333. D(C  20,C  18,C  17,H  19)    157.0520         0.018926   
    334. D(S  22,C  18,C  17,N   6)    154.4349         0.018926   
    335. D(S  22,C  18,C  17,H  19)    -27.8599         0.018926   
    336. D(C  18,C  20,Ir  0,C   1)     70.2832         0.001637   
    337. D(H  24,C  20,C  18,C  17)    -53.8900         0.028307   
    338. D(C  18,C  20,Ir  0,C   3)    137.2441         0.001637   
    339. D(C  18,C  20,Ir  0,C   4)     99.4948         0.001637   
    340. D(Ir  0,C  20,C  18,C  17)     33.1741         0.028307   
    341. D(C  18,C  20,Ir  0,N   6)    -25.6553         0.001637   
    342. D(C  18,C  20,Ir  0,O  31)   -107.3838         0.001637   
    343. D(H  24,C  20,Ir  0,C   4)   -147.4230         0.001637   
    344. D(C  21,C  20,Ir  0,C   2)    -47.7402         0.001637   
    345. D(C  21,C  20,Ir  0,C   3)      5.8344         0.001637   
    346. D(C  21,C  20,Ir  0,C   4)    -31.9149         0.001637   
    347. D(C  21,C  20,Ir  0,C   5)     18.7880         0.001637   
    348. D(C  21,C  20,Ir  0,N   6)   -157.0650         0.001637   
    349. D(C  21,C  20,Ir  0,O  31)    121.2065         0.001637   
    350. D(H  24,C  20,Ir  0,C   1)   -176.6345         0.001637   
    351. D(H  24,C  20,Ir  0,C   2)   -163.2482         0.001637   
    352. D(C  21,C  20,Ir  0,C   1)    -61.1265         0.001637   
    353. D(H  24,C  20,Ir  0,C   3)   -109.6736         0.001637   
    354. D(H  24,C  20,Ir  0,C   5)    -96.7201         0.001637   
    355. D(H  24,C  20,Ir  0,N   6)     87.4270         0.001637   
    356. D(C  18,C  20,Ir  0,C   5)    150.1977         0.001637   
    357. D(H  24,C  20,Ir  0,O  31)      5.6985         0.001637   
    358. D(Ir  0,C  20,C  18,S  22)   -142.5918         0.028307   
    359. D(C  21,C  20,C  18,C  17)    175.5967         0.028307   
    360. D(C  18,C  20,Ir  0,C   2)     83.6695         0.001637   
    361. D(C  21,C  20,C  18,S  22)     -0.1692         0.028307   
    362. D(H  24,C  20,C  18,S  22)    130.3441         0.028307   
    363. D(C  23,C  21,C  20,Ir  0)    129.5421         0.021916   
    364. D(C  23,C  21,C  20,C  18)      0.1629         0.021916   
    365. D(C  23,C  21,C  20,H  24)   -130.0844         0.021916   
    366. D(H  25,C  21,C  20,Ir  0)    -54.0568         0.021916   
    367. D(H  25,C  21,C  20,C  18)    176.5641         0.021916   
    368. D(H  25,C  21,C  20,H  24)     46.3167         0.021916   
    369. D(C  23,S  22,C  18,C  17)   -175.1842         0.005970   
    370. D(C  23,S  22,C  18,C  20)      0.1054         0.005970   
    371. D(S  22,C  23,C  21,C  20)     -0.0885         0.034112   
    372. D(S  22,C  23,C  21,H  25)   -176.5306         0.034112   
    373. D(H  26,C  23,C  21,C  20)    178.1756         0.034112   
    374. D(H  26,C  23,C  21,H  25)      1.7336         0.034112   
    375. D(C  21,C  23,S  22,C  18)     -0.0081         0.005354   
    376. D(H  26,C  23,S  22,C  18)   -178.4327         0.005354   
    377. D(C  32,O  31,Ir  0,C   1)    178.1489         0.001862   
    378. D(C  32,O  31,Ir  0,C   2)    169.4779         0.001862   
    379. D(C  32,O  31,Ir  0,C   3)    100.3080         0.001862   
    380. D(C  32,O  31,Ir  0,C   4)    100.9351         0.001862   
    381. D(C  32,O  31,Ir  0,C   5)    133.5216         0.001862   
    382. D(C  32,O  31,Ir  0,N   6)    -81.8381         0.001862   
    383. D(C  32,O  31,Ir  0,C  20)     -5.5662         0.001862   
    384. D(O  30,C  32,O  31,Ir  0)      3.7747         0.054588   
    385. D(C  33,C  32,O  31,Ir  0)   -174.7200         0.054588   
    386. D(H  34,C  33,C  32,O  30)     28.7652         0.012708   
    387. D(H  34,C  33,C  32,O  31)   -152.6722         0.012708   
    388. D(H  35,C  33,C  32,O  30)    -89.3260         0.012708   
    389. D(H  35,C  33,C  32,O  31)     89.2367         0.012708   
    390. D(H  36,C  33,C  32,O  30)    152.0212         0.012708   
    391. D(H  36,C  33,C  32,O  31)    -29.4162         0.012708   
    -----------------------------------------------------------------

Number of atoms                         .... 39
Number of degrees of freedom            .... 391

         *************************************************************
         *                GEOMETRY OPTIMIZATION CYCLE   1            *
         *************************************************************
---------------------------------
CARTESIAN COORDINATES (ANGSTROEM)
---------------------------------
  Ir     0.625241   -0.715153    0.424857
  C      0.134791   -2.826005    0.312120
  C      0.002491   -2.373385    1.672103
  C      2.202803   -2.077792    1.022552
  C      1.474110   -2.640984   -0.086644
  C      1.292682   -1.944352    2.098785
  N     -1.053517    0.134091   -0.516027
  C     -2.318498    0.382689    0.193254
  C     -3.101889    1.567899   -0.352227
  H     -3.924209    1.789168    0.326682
  H     -3.549109    1.368457   -1.326947
  H     -2.486988    2.465246   -0.424122
  C     -3.156398   -0.891099    0.193247
  H     -2.025366    0.609759    1.219073
  H     -4.055162   -0.742045    0.790104
  H     -3.467757   -1.158048   -0.817485
  H     -2.616480   -1.735382    0.619216
  C     -0.904856    0.412379   -1.752063
  C      0.419270    0.217711   -2.260227
  H     -1.711548    0.804436   -2.363805
  C      1.481061    0.186338   -1.355589
  C      2.693361   -0.117825   -2.047573
  S      0.881822   -0.101552   -3.860694
  C      2.517996   -0.293826   -3.385012
  H      1.543157    1.173850   -0.607176
  H      3.664564   -0.146650   -1.575272
  H      3.269762   -0.503132   -4.130842
  H     -0.655068   -3.234250   -0.301644
  H     -0.884249   -2.423079    2.285823
  H      1.521850   -1.516071    3.064395
  O      1.545172    2.374949    0.139524
  O      0.557205    0.986985    1.571420
  C      1.032764    2.128120    1.239077
  C      0.972117    3.194121    2.295163
  H      0.926350    4.182087    1.844528
  H      1.882829    3.147207    2.895175
  H      0.128434    3.047744    2.965174
  H      3.257631   -1.851671    1.048890
  H      1.883002   -2.881744   -1.057075

----------------------------
CARTESIAN COORDINATES (A.U.)
----------------------------
  NO LB      ZA    FRAG     MASS         X           Y           Z
   0 Ir   17.0000*   0   192.220    1.181534   -1.351443    0.802864
   1 C     6.0000    0    12.011    0.254717   -5.340376    0.589822
   2 C     6.0000    0    12.011    0.004708   -4.485047    3.159817
   3 C     6.0000    0    12.011    4.162695   -3.926458    1.932343
   4 C     6.0000    0    12.011    2.785664   -4.990737   -0.163733
   5 C     6.0000    0    12.011    2.442815   -3.674294    3.966128
   6 N     7.0000    0    14.007   -1.990859    0.253395   -0.975149
   7 C     6.0000    0    12.011   -4.381326    0.723177    0.365196
   8 C     6.0000    0    12.011   -5.861721    2.962900   -0.665613
   9 H     1.0000    0     1.008   -7.415681    3.381037    0.617339
  10 H     1.0000    0     1.008   -6.706843    2.586010   -2.507566
  11 H     1.0000    0     1.008   -4.699725    4.658640   -0.801474
  12 C     6.0000    0    12.011   -5.964729   -1.683934    0.365183
  13 H     1.0000    0     1.008   -3.827388    1.152278    2.303715
  14 H     1.0000    0     1.008   -7.663145   -1.402262    1.493080
  15 H     1.0000    0     1.008   -6.553112   -2.188394   -1.544822
  16 H     1.0000    0     1.008   -4.944431   -3.279397    1.170149
  17 C     6.0000    0    12.011   -1.709930    0.779284   -3.310919
  18 C     6.0000    0    12.011    0.792305    0.411414   -4.271209
  19 H     1.0000    0     1.008   -3.234357    1.520164   -4.466944
  20 C     6.0000    0    12.011    2.798801    0.352127   -2.561691
  21 C     6.0000    0    12.011    5.089715   -0.222657   -3.869352
  22 S    16.0000    0    32.060    1.666401   -0.191905   -7.295655
  23 C     6.0000    0    12.011    4.758323   -0.555251   -6.396745
  24 H     1.0000    0     1.008    2.916144    2.218255   -1.147397
  25 H     1.0000    0     1.008    6.925023   -0.277128   -2.976832
  26 H     1.0000    0     1.008    6.178955   -0.950782   -7.806160
  27 H     1.0000    0     1.008   -1.237898   -6.111847   -0.570025
  28 H     1.0000    0     1.008   -1.670988   -4.578956    4.319579
  29 H     1.0000    0     1.008    2.875879   -2.864959    5.790867
  30 O     8.0000    0    15.999    2.919951    4.488003    0.263663
  31 O     8.0000    0    15.999    1.052965    1.865132    2.969554
  32 C     6.0000    0    12.011    1.951641    4.021564    2.341517
  33 C     6.0000    0    12.011    1.837034    6.036014    4.337230
  34 H     1.0000    0     1.008    1.750548    7.902999    3.485652
  35 H     1.0000    0     1.008    3.558031    5.947359    5.471089
  36 H     1.0000    0     1.008    0.242705    5.759402    5.603368
  37 H     1.0000    0     1.008    6.156030   -3.499150    1.982115
  38 H     1.0000    0     1.008    3.558359   -5.445707   -1.997583
* core charge reduced due to ECP

--------------------------------
INTERNAL COORDINATES (ANGSTROEM)
--------------------------------
 Ir     0   0   0     0.000000000000     0.00000000     0.00000000
 C      1   0   0     2.170162012097     0.00000000     0.00000000
 C      2   1   0     1.439605715579    70.47989859     0.00000000
 C      1   2   3     2.168814902970    64.34800350    80.42303131
 C      2   1   3     1.409236810143    70.87702499   241.68346991
 C      4   1   2     1.414778557907    71.52458863   280.19492210
 N      1   2   3     2.103085733607   100.93992115   251.93570648
 C      7   1   2     1.471405562742   122.53910479    82.51845537
 C      8   7   1     1.521825728239   113.66249071   150.16990500
 H      9   8   7     1.089071549136   108.87293232   189.76515551
 H      9   8   7     1.090804957166   112.88870085    71.67766113
 H      9   8   7     1.090184459225   111.98332480   308.42610149
 C      8   7   1     1.524666930939   109.34814541   275.57904907
 H      8   7   1     1.090773746059   104.92004260    32.08690938
 H     13   8   7     1.089137343855   109.82578576   175.09440015
 H     13   8   7     1.090769659176   111.18270460   294.32081020
 H     13   8   7     1.088928117969   112.04066751    55.68605029
 C      7   1   2     1.280762040659   115.47986624   263.01201526
 C     18   7   1     1.436521199997   115.60375588   354.15522481
 H     18   7   1     1.085665277044   122.24684402   176.46786565
 C     19  18   7     1.394768500218   118.59918738   339.17628907
 C     21  19  18     1.427902437588   109.92699670   175.58489234
 S     19  18   7     1.696376279410   127.84672995   154.32351253
 C     22  21  19     1.360520689005   113.07587843     0.24756329
 H     21  19  18     1.240169836970   114.22715520   306.17656371
 H     22  21  19     1.080299946920   123.90414827   176.66367133
 H     24  22  21     1.079418979287   127.91917982   178.16865884
 H      2   1   3     1.080392017254   124.20547736   120.93898480
 H      3   2   1     1.079545566996   126.74071264   122.03153944
 H      6   4   1     1.080898215287   125.45996661   244.24668815
 O     25  21  19     1.428571424202   175.00278390   347.82199246
 O      1   2   3     2.053865603942   145.86530455   346.73756138
 C     31  25  21     1.237787324581   108.87205930   111.04440873
 C     33  31  25     1.501779304335   119.94988870   176.29828560
 H     34  33  31     1.086848446320   110.81627771    28.76429690
 H     34  33  31     1.091605669350   108.80389342   270.67298427
 H     34  33  31     1.087258371702   111.66164700   152.02020370
 H      4   1   2     1.079110437680   125.87350401   158.48045033
 H      5   2   1     1.080223627101   125.77735182   241.19167641

---------------------------
INTERNAL COORDINATES (A.U.)
---------------------------
 Ir     0   0   0     0.000000000000     0.00000000     0.00000000
 C      1   0   0     4.101011869103     0.00000000     0.00000000
 C      2   1   0     2.720460543272    70.47989859     0.00000000
 C      1   2   3     4.098466201781    64.34800350    80.42303131
 C      2   1   3     2.663071629010    70.87702499   241.68346991
 C      4   1   2     2.673544014588    71.52458863   280.19492210
 N      1   2   3     3.974256072674   100.93992115   251.93570648
 C      7   1   2     2.780553545510   122.53910479    82.51845537
 C      8   7   1     2.875833849927   113.66249071   150.16990500
 H      9   8   7     2.058046968112   108.87293232   189.76515551
 H      9   8   7     2.061322634567   112.88870085    71.67766113
 H      9   8   7     2.060150063392   111.98332480   308.42610149
 C      8   7   1     2.881202944921   109.34814541   275.57904907
 H      8   7   1     2.061263654123   104.92004260    32.08690938
 H     13   8   7     2.058171302113   109.82578576   175.09440015
 H     13   8   7     2.061255931034   111.18270460   294.32081020
 H     13   8   7     2.057775922488   112.04066751    55.68605029
 C      7   1   2     2.420289499567   115.47986624   263.01201526
 C     18   7   1     2.714631653565   115.60375588   354.15522481
 H     18   7   1     2.051610046720   122.24684402   176.46786565
 C     19  18   7     2.635730485632   118.59918738   339.17628907
 C     21  19  18     2.698344553000   109.92699670   175.58489234
 S     19  18   7     3.205686588165   127.84672995   154.32351253
 C     22  21  19     2.571011501753   113.07587843     0.24756329
 H     21  19  18     2.343581351423   114.22715520   306.17656371
 H     22  21  19     2.041471042169   123.90414827   176.66367133
 H     24  22  21     2.039806254609   127.91917982   178.16865884
 H      2   1   3     2.041645029885   124.20547736   120.93898480
 H      3   2   1     2.040045470711   126.74071264   122.03153944
 H      6   4   1     2.042601605537   125.45996661   244.24668815
 O     25  21  19     2.699608754487   175.00278390   347.82199246
 O      1   2   3     3.881243507332   145.86530455   346.73756138
 C     31  25  21     2.339079055498   108.87205930   111.04440873
 C     33  31  25     2.837951598784   119.94988870   176.29828560
 H     34  33  31     2.053845912622   110.81627771    28.76429690
 H     34  33  31     2.062835761308   108.80389342   270.67298427
 H     34  33  31     2.054620559330   111.66164700   152.02020370
 H      4   1   2     2.039223195472   125.87350401   158.48045033
 H      5   2   1     2.041326818611   125.77735182   241.19167641

---------------------
BASIS SET INFORMATION
---------------------
There are 6 groups of distinct atoms

 Group   1 Type Ir  : 7s6p5d1f contracted to 6s3p2d1f pattern {211111/411/41/1}
 Group   2 Type C   : 8s4p1d contracted to 4s2p1d pattern {5111/31/1}
 Group   3 Type N   : 8s4p1d contracted to 4s2p1d pattern {5111/31/1}
 Group   4 Type H   : 4s contracted to 2s pattern {31}
 Group   5 Type S   : 10s7p1d contracted to 4s3p1d pattern {5311/511/1}
 Group   6 Type O   : 8s4p1d contracted to 4s2p1d pattern {5111/31/1}

Atom   0Ir   basis set group =>   1
Atom   1C    basis set group =>   2
Atom   2C    basis set group =>   2
Atom   3C    basis set group =>   2
Atom   4C    basis set group =>   2
Atom   5C    basis set group =>   2
Atom   6N    basis set group =>   3
Atom   7C    basis set group =>   2
Atom   8C    basis set group =>   2
Atom   9H    basis set group =>   4
Atom  10H    basis set group =>   4
Atom  11H    basis set group =>   4
Atom  12C    basis set group =>   2
Atom  13H    basis set group =>   4
Atom  14H    basis set group =>   4
Atom  15H    basis set group =>   4
Atom  16H    basis set group =>   4
Atom  17C    basis set group =>   2
Atom  18C    basis set group =>   2
Atom  19H    basis set group =>   4
Atom  20C    basis set group =>   2
Atom  21C    basis set group =>   2
Atom  22S    basis set group =>   5
Atom  23C    basis set group =>   2
Atom  24H    basis set group =>   4
Atom  25H    basis set group =>   4
Atom  26H    basis set group =>   4
Atom  27H    basis set group =>   4
Atom  28H    basis set group =>   4
Atom  29H    basis set group =>   4
Atom  30O    basis set group =>   6
Atom  31O    basis set group =>   6
Atom  32C    basis set group =>   2
Atom  33C    basis set group =>   2
Atom  34H    basis set group =>   4
Atom  35H    basis set group =>   4
Atom  36H    basis set group =>   4
Atom  37H    basis set group =>   4
Atom  38H    basis set group =>   4
---------------------------------
AUXILIARY/J BASIS SET INFORMATION
---------------------------------
There are 6 groups of distinct atoms

 Group   1 Type Ir  : 11s5p5d3f3g contracted to 8s5p5d2f3g pattern {41111111/11111/11111/21/111}
 Group   2 Type C   : 12s5p4d2f1g contracted to 6s4p3d1f1g pattern {711111/2111/211/2/1}
 Group   3 Type N   : 12s5p4d2f1g contracted to 6s4p3d1f1g pattern {711111/2111/211/2/1}
 Group   4 Type H   : 5s2p1d contracted to 3s1p1d pattern {311/2/1}
 Group   5 Type S   : 14s5p5d2f1g contracted to 8s4p3d1f1g pattern {71111111/2111/311/2/1}
 Group   6 Type O   : 12s5p4d2f1g contracted to 6s4p3d1f1g pattern {711111/2111/211/2/1}

Atom   0Ir   basis set group =>   1
Atom   1C    basis set group =>   2
Atom   2C    basis set group =>   2
Atom   3C    basis set group =>   2
Atom   4C    basis set group =>   2
Atom   5C    basis set group =>   2
Atom   6N    basis set group =>   3
Atom   7C    basis set group =>   2
Atom   8C    basis set group =>   2
Atom   9H    basis set group =>   4
Atom  10H    basis set group =>   4
Atom  11H    basis set group =>   4
Atom  12C    basis set group =>   2
Atom  13H    basis set group =>   4
Atom  14H    basis set group =>   4
Atom  15H    basis set group =>   4
Atom  16H    basis set group =>   4
Atom  17C    basis set group =>   2
Atom  18C    basis set group =>   2
Atom  19H    basis set group =>   4
Atom  20C    basis set group =>   2
Atom  21C    basis set group =>   2
Atom  22S    basis set group =>   5
Atom  23C    basis set group =>   2
Atom  24H    basis set group =>   4
Atom  25H    basis set group =>   4
Atom  26H    basis set group =>   4
Atom  27H    basis set group =>   4
Atom  28H    basis set group =>   4
Atom  29H    basis set group =>   4
Atom  30O    basis set group =>   6
Atom  31O    basis set group =>   6
Atom  32C    basis set group =>   2
Atom  33C    basis set group =>   2
Atom  34H    basis set group =>   4
Atom  35H    basis set group =>   4
Atom  36H    basis set group =>   4
Atom  37H    basis set group =>   4
Atom  38H    basis set group =>   4
-------------------------
ECP PARAMETER INFORMATION
-------------------------

 Group 1, Type Ir ECP Def2-ECP (replacing 60 core electrons, lmax=3)

Atom   0Ir   ECP group =>   1

------------------------------------------------------------------------------
                           ORCA GTO INTEGRAL CALCULATION
                           -- RI-GTO INTEGRALS CHOSEN --
------------------------------------------------------------------------------
------------------------------------------------------------------------------
                   ___                                                        
                  /   \      - P O W E R E D   B Y -                         
                 /     \                                                     
                 |  |  |   _    _      __       _____    __    __             
                 |  |  |  | |  | |    /  \     |  _  \  |  |  /  |          
                  \  \/   | |  | |   /    \    | | | |  |  | /  /          
                 / \  \   | |__| |  /  /\  \   | |_| |  |  |/  /          
                |  |  |   |  __  | /  /__\  \  |    /   |      \           
                |  |  |   | |  | | |   __   |  |    \   |  |\   \          
                \     /   | |  | | |  |  |  |  | |\  \  |  | \   \       
                 \___/    |_|  |_| |__|  |__|  |_| \__\ |__|  \__/        
                                                                              
                      - O R C A' S   B I G   F R I E N D -                    
                                      &                                       
                       - I N T E G R A L  F E E D E R -                       
                                                                              
 v1 FN, 2020, v2 2021                                                         
------------------------------------------------------------------------------


Reading SHARK input file reaction4-IEIP_ts_guess_scan_10-6_orca.SHARKINP.tmp ... ok
----------------------
SHARK INTEGRAL PACKAGE
----------------------

Number of atoms                             ...     39
Number of basis functions                   ...    358
Number of shells                            ...    184
Maximum angular momentum                    ...      3
Integral batch strategy                     ... SHARK/LIBINT Hybrid
RI-J (if used) integral strategy            ... SPLIT-RIJ (Revised 2003 algorithm where possible)
Printlevel                                  ...      1
Contraction scheme used                     ... SEGMENTED contraction
Coulomb Range Separation                    ... NOT USED
Exchange Range Separation                   ... NOT USED
Finite Nucleus Model                        ... NOT USED
Auxiliary Coulomb fitting basis             ... AVAILABLE
   # of basis functions in Aux-J            ...   1231
   # of shells in Aux-J                     ...    405
   Maximum angular momentum in Aux-J        ...      4
Auxiliary J/K fitting basis                 ... NOT available
Auxiliary Correlation fitting basis         ... NOT available
Auxiliary 'external' fitting basis          ... NOT available
Integral threshold                          ...     2.500000e-11
Primitive cut-off                           ...     2.500000e-12
Primitive pair pre-selection threshold      ...     2.500000e-12

Calculating pre-screening integrals         ... done (  0.1 sec) Dimension = 184
Organizing shell pair data                  ... done (  0.1 sec)
Shell pair information
Total number of shell pairs                 ...     17020
Shell pairs after pre-screening             ...     12997
Total number of primitive shell pairs       ...     60705
Primitive shell pairs kept                  ...     29239
          la=0 lb=0:   4982 shell pairs
          la=1 lb=0:   4262 shell pairs
          la=1 lb=1:    858 shell pairs
          la=2 lb=0:   1751 shell pairs
          la=2 lb=1:    790 shell pairs
          la=2 lb=2:    178 shell pairs
          la=3 lb=0:    112 shell pairs
          la=3 lb=1:     42 shell pairs
          la=3 lb=2:     21 shell pairs
          la=3 lb=3:      1 shell pairs

Calculating one electron integrals          ... done (  0.1 sec)
Calculating ECP integrals                   ... done (  0.7 sec)
Calculating RI/J V-Matrix + Cholesky decomp.... done (  0.1 sec)
Calculating Nuclear repulsion               ... done (  0.0 sec) ENN=   2039.875983275602 Eh

SHARK setup successfully completed in   1.4 seconds

Maximum memory used throughout the entire GTOINT-calculation: 90.9 MB
-------------------------------------------------------------------------------
                                 ORCA SCF
-------------------------------------------------------------------------------

------------
SCF SETTINGS
------------
Hamiltonian:
 Density Functional     Method          .... DFT(GTOs)
 Exchange Functional    Exchange        .... PBE
   PBE kappa parameter   XKappa         ....  1.024500
   PBE mue parameter    XMuePBE         ....  0.123457
 Correlation Functional Correlation     .... PBE
   PBE beta parameter  CBetaPBE         ....  0.030000
 LDA part of GGA corr.  LDAOpt          .... PW91-LDA
 Gradients option       PostSCFGGA      .... off
 Hybrid DFT is turned on
   Fraction HF Exchange ScalHFX         ....  0.420000
   Scaling of DF-GGA-X  ScalDFX         ....  0.580000
   Scaling of DF-GGA-C  ScalDFC         ....  1.000000
   Scaling of DF-LDA-C  ScalLDAC        ....  1.000000
   Perturbative correction              ....  0.000000
   Density functional embedding theory  .... OFF
 RI-approximation to the Coulomb term is turned on
   Number of AuxJ basis functions       .... 1231
   RIJ-ON(X) (HFX calculated with O(N)) .... on
   Number of AuxJ basis functions       .... 1231
   RIJ-COSX (HFX calculated with COS-X)).... on


General Settings:
 Integral files         IntName         .... reaction4-IEIP_ts_guess_scan_10-6_orca
 Hartree-Fock type      HFTyp           .... RHF
 Total Charge           Charge          ....    1
 Multiplicity           Mult            ....    1
 Number of Electrons    NEL             ....  164
 Basis Dimension        Dim             ....  358
 Nuclear Repulsion      ENuc            ....   2039.8759832756 Eh

Convergence Acceleration:
 DIIS                   CNVDIIS         .... on
   Start iteration      DIISMaxIt       ....    12
   Startup error        DIISStart       ....  0.200000
   # of expansion vecs  DIISMaxEq       ....     5
   Bias factor          DIISBfac        ....   1.050
   Max. coefficient     DIISMaxC        ....  10.000
 Trust-Rad. Augm. Hess. CNVTRAH         .... auto
   Auto Start mean grad. ratio tolernc. ....  1.125000
   Auto Start start iteration           ....    20
   Auto Start num. interpolation iter.  ....    10
   Max. Number of Micro iterations      ....    16
   Max. Number of Macro iterations      .... Maxiter - #DIIS iter
   Number of Davidson start vectors     ....     2
   Converg. threshold I  (grad. norm)   ....   1.000e-05
   Converg. threshold II (energy diff.) ....   1.000e-08
   Grad. Scal. Fac. for Micro threshold ....   0.100
   Minimum threshold for Micro iter.    ....   0.010
   NR start threshold (gradient norm)   ....   0.001
   Initial trust radius                 ....   0.400
   Minimum AH scaling param. (alpha)    ....   1.000
   Maximum AH scaling param. (alpha)    .... 1000.000
   Orbital update algorithm             .... Taylor
   White noise on init. David. guess    .... on
   Maximum white noise                  ....   0.010
   Quad. conv. algorithm                .... NR
   COSX micro iterations for RIJONX calc.... off
 SOSCF                  CNVSOSCF        .... off
 Level Shifting         CNVShift        .... on
   Level shift para.    LevelShift      ....    0.2500
   Turn off err/grad.   ShiftErr        ....    0.0010
 Zerner damping         CNVZerner       .... off
 Static damping         CNVDamp         .... on
   Fraction old density DampFac         ....    0.7000
   Max. Damping (<1)    DampMax         ....    0.9800
   Min. Damping (>=0)   DampMin         ....    0.0000
   Turn off err/grad.   DampErr         ....    0.1000
 Fernandez-Rico         CNVRico         .... off

SCF Procedure:
 Maximum # iterations   MaxIter         ....   250
 SCF integral mode      SCFMode         .... Direct
   Integral package                     .... SHARK and LIBINT hybrid scheme
 Reset frequency        DirectResetFreq ....    20
 Integral Threshold     Thresh          ....  2.500e-11 Eh
 Primitive CutOff       TCut            ....  2.500e-12 Eh

Convergence Tolerance:
 Convergence Check Mode ConvCheckMode   .... Total+1el-Energy
 Convergence forced     ConvForced      .... 0
 Energy Change          TolE            ....  1.000e-08 Eh
 1-El. energy change                    ....  1.000e-05 Eh
 DIIS Error             TolErr          ....  5.000e-07


Diagonalization of the overlap matrix:
Smallest eigenvalue                        ... 1.225e-03
Time for diagonalization                   ...    0.016 sec
Threshold for overlap eigenvalues          ... 1.000e-08
Number of eigenvalues below threshold      ... 0
Time for construction of square roots      ...    0.006 sec
Total time needed                          ...    0.022 sec

--------------------
INITIAL GUESS: HCORE
--------------------
                      -----------------
                      INTIAL GUESS DONE 
                      -----------------
-------------------
DFT GRID GENERATION
-------------------

General Integration Accuracy     IntAcc      ... 4.159
Radial Grid Type                 RadialGrid  ... OptM3 with GC (2021)
Angular Grid (max. ang.)         AngularGrid ... 3 (Lebedev-194)
Angular grid pruning method      GridPruning ... 4 (adaptive)
Weight generation scheme         WeightScheme... Becke
Basis function cutoff            BFCut       ... 1.0000e-11
Integration weight cutoff        WCut        ... 1.0000e-14
Angular grids for H and He will be reduced by one unit
Partially contracted basis set               ... off
Rotationally invariant grid construction     ... off

Total number of grid points                  ...    93277
Total number of batches                      ...     1479
Average number of points per batch           ...       63
Average number of grid points per atom       ...     2392
Time for grid setup =    1.675 sec

--------------------
COSX GRID GENERATION
--------------------

GRIDX 1
-------
General Integration Accuracy     IntAcc      ... 3.816
Radial Grid Type                 RadialGrid  ... OptM3 with GC (2021)
Angular Grid (max. ang.)         AngularGrid ... 1 (Lebedev-50)
Angular grid pruning method      GridPruning ... 4 (adaptive)
Weight generation scheme         WeightScheme... Becke
Basis function cutoff            BFCut       ... 1.0000e-11
Integration weight cutoff        WCut        ... 1.0000e-14
Angular grids for H and He will be reduced by one unit
Partially contracted basis set               ... on
Rotationally invariant grid construction     ... off

Total number of grid points                  ...    23183
Total number of batches                      ...      383
Average number of points per batch           ...       60
Average number of grid points per atom       ...      594
UseSFitting                                  ... on

GRIDX 2
-------
General Integration Accuracy     IntAcc      ... 4.020
Radial Grid Type                 RadialGrid  ... OptM3 with GC (2021)
Angular Grid (max. ang.)         AngularGrid ... 2 (Lebedev-110)
Angular grid pruning method      GridPruning ... 4 (adaptive)
Weight generation scheme         WeightScheme... Becke
Basis function cutoff            BFCut       ... 1.0000e-11
Integration weight cutoff        WCut        ... 1.0000e-14
Angular grids for H and He will be reduced by one unit
Partially contracted basis set               ... on
Rotationally invariant grid construction     ... off

Total number of grid points                  ...    50306
Total number of batches                      ...      805
Average number of points per batch           ...       62
Average number of grid points per atom       ...     1290
UseSFitting                                  ... on

GRIDX 3
-------
General Integration Accuracy     IntAcc      ... 4.338
Radial Grid Type                 RadialGrid  ... OptM3 with GC (2021)
Angular Grid (max. ang.)         AngularGrid ... 3 (Lebedev-194)
Angular grid pruning method      GridPruning ... 4 (adaptive)
Weight generation scheme         WeightScheme... Becke
Basis function cutoff            BFCut       ... 1.0000e-11
Integration weight cutoff        WCut        ... 1.0000e-14
Angular grids for H and He will be reduced by one unit
Partially contracted basis set               ... on
Rotationally invariant grid construction     ... off

Total number of grid points                  ...   108776
Total number of batches                      ...     1718
Average number of points per batch           ...       63
Average number of grid points per atom       ...     2789
UseSFitting                                  ... on

Time for X-Grid setup             =    4.224 sec

--------------
SCF ITERATIONS
--------------
ITER       Energy         Delta-E        Max-DP      RMS-DP      [F,P]     Damp
               ***  Starting incremental Fock matrix formation  ***
  0   -846.3145397484   0.00000000000020.84874414  0.15948525  2.8763072 0.7000
  1  -1086.7527789729-240.43823922453611.31043804  0.14015033  1.4749211 0.7000
  2  -1156.3426094244 -69.589830451504 5.48987840  0.07304723  1.0604034 0.7000
  3  -1183.5832308234 -27.240621399001 3.80881873  0.04908133  0.7722152 0.7000
  4  -1204.8474794767 -21.264248653315 2.68897539  0.03994747  0.4656384 0.7000
  5  -1218.7997053821 -13.952225905347 2.50615737  0.03372748  0.3661903 0.7000
  6  -1229.2278498193 -10.428144437180 1.75537381  0.02946450  0.3404598 0.7000
  7  -1238.8431783439  -9.615328524664 1.56939922  0.02590857  0.3091793 0.7000
  8  -1245.9884945334  -7.145316189500 1.59566624  0.02686516  0.3234759 0.7000
  9  -1250.2922873218  -4.303792788402 1.49043578  0.02406187  0.3003165 0.7000
 10  -1255.4263804549  -5.134093133026 1.43943615  0.02397030  0.2937434 0.7000
 11  -1256.7843677604  -1.357987305584 1.44198015  0.02227251  0.2828542 0.7000
                               ***Turning on DIIS***
 12  -1259.5715989605  -2.787231200024 1.38791860  0.02258634  0.3201011 0.7000
 13  -1259.9134822676  -0.341883307152 1.25915455  0.01888290  0.3069475 0.7000
 14  -1267.6753353499  -7.761853082256 0.87905660  0.01344914  0.2475691 0.7000
 15  -1274.1729064743  -6.497571124409 0.61719429  0.00949928  0.2018559 0.7000
 16  -1278.7016129494  -4.528706475144 0.43524613  0.00670410  0.1481532 0.7000
 17  -1281.7678941404  -3.066281190966 0.30824495  0.00473718  0.1043011 0.7000
 18  -1283.8517303645  -2.083836224138 0.71522676  0.01114728  0.0681753 0.0000
 19  -1288.4379037564  -4.586173391923 0.03030702  0.00042856  0.0239725 0.0000
               *** Restarting incremental Fock matrix formation ***
                                   *** Resetting DIIS ***
 20  -1288.4461221732  -0.008218416772 0.03053046  0.00051108  0.0108465 0.0000
 21  -1288.4481158398  -0.001993666561 0.01462999  0.00017460  0.0135682 0.0000
 22  -1288.4496794704  -0.001563630636 0.00525290  0.00007220  0.0025479 0.0000
 23  -1288.4498285935  -0.000149123133 0.00414932  0.00004217  0.0028438 0.0000
 24  -1288.4498827526  -0.000054159058 0.00390251  0.00003944  0.0008326 0.0000
               *** Restarting incremental Fock matrix formation ***
                                   *** Resetting DIIS ***
 25  -1288.4505204511  -0.000637698457 0.00600884  0.00009898  0.0006954 0.0000
 26  -1288.4505376842  -0.000017233169 0.00112587  0.00001621  0.0009667 0.0000
 27  -1288.4505391559  -0.000001471697 0.00098102  0.00001091  0.0008235 0.0000
 28  -1288.4505422625  -0.000003106533 0.00053497  0.00000404  0.0002890 0.0000
 29  -1288.4505426122  -0.000000349767 0.00030573  0.00000215  0.0001345 0.0000
 30  -1288.4505427356  -0.000000123329 0.00009098  0.00000092  0.0000321 0.0000
 31  -1288.4505427566  -0.000000021029 0.00006756  0.00000063  0.0000189 0.0000
 32  -1288.4505427598  -0.000000003167 0.00003026  0.00000030  0.0000085 0.0000
 33  -1288.4505427611  -0.000000001337 0.00001226  0.00000012  0.0000048 0.0000
 34  -1288.4505427636  -0.000000002476 0.00001191  0.00000009  0.0000045 0.0000
 35  -1288.4505427799  -0.000000016286 0.00000450  0.00000004  0.0000028 0.0000
 36  -1288.4505427646   0.000000015254 0.00000415  0.00000003  0.0000019 0.0000
                 **** Energy Check signals convergence ****

               *****************************************************
               *                     SUCCESS                       *
               *           SCF CONVERGED AFTER  37 CYCLES          *
               *****************************************************

Old exchange energy                            =    -59.654515479 Eh
New exchange energy                            =    -59.654519838 Eh
Exchange energy change after final integration =     -0.000004360 Eh
Total energy after final integration           =  -1288.450547133 Eh
Final COS-X integration done in                =    57.344 sec

----------------
TOTAL SCF ENERGY
----------------

Total Energy       :        -1288.45054713 Eh          -35060.52183 eV

Components:
Nuclear Repulsion  :         2039.87598328 Eh           55507.84747 eV
Electronic Energy  :        -3328.32653041 Eh          -90568.36930 eV
One Electron Energy:        -5835.28637656 Eh         -158786.21484 eV
Two Electron Energy:         2506.95984615 Eh           68217.84554 eV
Max COSX asymmetry :            0.00001870 Eh               0.00051 eV

Virial components:
Potential Energy   :        -2501.55544557 Eh          -68070.78433 eV
Kinetic Energy     :         1213.10489844 Eh           33010.26250 eV
Virial Ratio       :            2.06210976


DFT components:
N(Alpha)           :       82.000061076900 electrons
N(Beta)            :       82.000061076900 electrons
N(Total)           :      164.000122153800 electrons
E(X)               :      -79.594957281852 Eh       
E(C)               :       -7.459454074882 Eh       
E(XC)              :      -87.054411356734 Eh       
DFET-embed. en.    :        0.000000000000 Eh       

---------------
SCF CONVERGENCE
---------------

  Last Energy change         ...   -8.4947e-09  Tolerance :   1.0000e-08
  Last MAX-Density change    ...    0.0000e+00  Tolerance :   1.0000e-07
  Last RMS-Density change    ...    0.0000e+00  Tolerance :   5.0000e-09
  Last DIIS Error            ...    5.8959e-07  Tolerance :   5.0000e-07

             **** THE GBW FILE WAS UPDATED (reaction4-IEIP_ts_guess_scan_10-6_orca.gbw) ****
             **** DENSITY reaction4-IEIP_ts_guess_scan_10-6_orca.scfp WAS UPDATED ****
             **** ENERGY FILE WAS UPDATED (reaction4-IEIP_ts_guess_scan_10-6_orca.en.tmp) ****
             **** THE GBW FILE WAS UPDATED (reaction4-IEIP_ts_guess_scan_10-6_orca.gbw) ****
             **** DENSITY reaction4-IEIP_ts_guess_scan_10-6_orca.scfp WAS UPDATED ****
----------------
ORBITAL ENERGIES
----------------

  NO   OCC          E(Eh)            E(eV) 
   0   2.0000     -89.765693     -2442.6487 
   1   2.0000     -19.629089      -534.1347 
   2   2.0000     -19.607290      -533.5415 
   3   2.0000     -14.836780      -403.7293 
   4   2.0000     -10.688952      -290.8612 
   5   2.0000     -10.657002      -289.9918 
   6   2.0000     -10.629444      -289.2419 
   7   2.0000     -10.629129      -289.2333 
   8   2.0000     -10.627887      -289.1995 
   9   2.0000     -10.625877      -289.1448 
  10   2.0000     -10.620270      -288.9922 
  11   2.0000     -10.618397      -288.9413 
  12   2.0000     -10.613819      -288.8167 
  13   2.0000     -10.611110      -288.7430 
  14   2.0000     -10.589172      -288.1460 
  15   2.0000     -10.587593      -288.1030 
  16   2.0000     -10.554900      -287.2134 
  17   2.0000     -10.551089      -287.1097 
  18   2.0000     -10.539353      -286.7904 
  19   2.0000      -8.405125      -228.7151 
  20   2.0000      -6.295014      -171.2960 
  21   2.0000      -6.291428      -171.1985 
  22   2.0000      -6.290103      -171.1624 
  23   2.0000      -4.023980      -109.4981 
  24   2.0000      -2.341937       -63.7273 
  25   2.0000      -2.309590       -62.8471 
  26   2.0000      -2.307469       -62.7894 
  27   2.0000      -1.316571       -35.8257 
  28   2.0000      -1.218163       -33.1479 
  29   2.0000      -1.211957       -32.9790 
  30   2.0000      -1.164645       -31.6916 
  31   2.0000      -1.129228       -30.7279 
  32   2.0000      -1.026601       -27.9352 
  33   2.0000      -0.977944       -26.6112 
  34   2.0000      -0.971276       -26.4298 
  35   2.0000      -0.969644       -26.3854 
  36   2.0000      -0.961069       -26.1520 
  37   2.0000      -0.933714       -25.4077 
  38   2.0000      -0.901201       -24.5229 
  39   2.0000      -0.874100       -23.7855 
  40   2.0000      -0.800293       -21.7771 
  41   2.0000      -0.783784       -21.3278 
  42   2.0000      -0.780640       -21.2423 
  43   2.0000      -0.780087       -21.2272 
  44   2.0000      -0.765418       -20.8281 
  45   2.0000      -0.758512       -20.6402 
  46   2.0000      -0.744158       -20.2496 
  47   2.0000      -0.724330       -19.7100 
  48   2.0000      -0.691405       -18.8141 
  49   2.0000      -0.681557       -18.5461 
  50   2.0000      -0.664293       -18.0763 
  51   2.0000      -0.654006       -17.7964 
  52   2.0000      -0.647869       -17.6294 
  53   2.0000      -0.636802       -17.3283 
  54   2.0000      -0.634238       -17.2585 
  55   2.0000      -0.630685       -17.1618 
  56   2.0000      -0.622485       -16.9387 
  57   2.0000      -0.612465       -16.6660 
  58   2.0000      -0.600954       -16.3528 
  59   2.0000      -0.600511       -16.3407 
  60   2.0000      -0.599900       -16.3241 
  61   2.0000      -0.591977       -16.1085 
  62   2.0000      -0.580702       -15.8017 
  63   2.0000      -0.572223       -15.5710 
  64   2.0000      -0.563746       -15.3403 
  65   2.0000      -0.562100       -15.2955 
  66   2.0000      -0.552600       -15.0370 
  67   2.0000      -0.547901       -14.9091 
  68   2.0000      -0.541866       -14.7449 
  69   2.0000      -0.536600       -14.6016 
  70   2.0000      -0.529521       -14.4090 
  71   2.0000      -0.518934       -14.1209 
  72   2.0000      -0.514528       -14.0010 
  73   2.0000      -0.500643       -13.6232 
  74   2.0000      -0.491779       -13.3820 
  75   2.0000      -0.482965       -13.1422 
  76   2.0000      -0.478853       -13.0303 
  77   2.0000      -0.448133       -12.1943 
  78   2.0000      -0.444942       -12.1075 
  79   2.0000      -0.421085       -11.4583 
  80   2.0000      -0.416574       -11.3356 
  81   2.0000      -0.396752       -10.7962 
  82   0.0000      -0.205355        -5.5880 
  83   0.0000      -0.142978        -3.8906 
  84   0.0000      -0.140092        -3.8121 
  85   0.0000      -0.090037        -2.4500 
[...]

----------------------
LOEWDIN ATOMIC CHARGES
----------------------
   0 Ir:   -0.253104
   1 C :   -0.054251
   2 C :   -0.091282
   3 C :   -0.088382
   4 C :   -0.043865
   5 C :   -0.015270
   6 N :   -0.002355
   7 C :   -0.069582
   8 C :   -0.362481
   9 H :    0.156508
  10 H :    0.132772
  11 H :    0.144231
  12 C :   -0.343681
  13 H :    0.155906
  14 H :    0.151320
  15 H :    0.137692
  16 H :    0.133018
  17 C :    0.029189
  18 C :   -0.183008
  19 H :    0.160900
  20 C :   -0.216953
  21 C :   -0.124278
  22 S :    0.496663
  23 C :   -0.259632
  24 H :    0.339924
  25 H :    0.162796
  26 H :    0.169359
  27 H :    0.182550
  28 H :    0.180822
  29 H :    0.189811
  30 O :   -0.265743
  31 O :   -0.191382
  32 C :    0.159441
  33 C :   -0.373065
  34 H :    0.163328
  35 H :    0.170685
  36 H :    0.153886
  37 H :    0.182827
  38 H :    0.184686

-------------------------------
LOEWDIN REDUCED ORBITAL CHARGES
-------------------------------
  0 Irs       :     2.447898  s :     2.447898
      pz      :     2.252626  p :     6.771958
      px      :     2.251988
      py      :     2.267344
      dz2     :     1.769527  d :     7.943876
      dxz     :     1.669586
      dyz     :     1.383709
      dx2y2   :     1.612328
      dxy     :     1.508725
      f0      :     0.010795  f :     0.089372
      f+1     :     0.004913
      f-1     :     0.015224
      f+2     :     0.014862
      f-2     :     0.016473
      f+3     :     0.010927
      f-3     :     0.016179
  1 C s       :     2.874285  s :     2.874285
      pz      :     1.052136  p :     3.076582
      px      :     1.078210
      py      :     0.946236
      dz2     :     0.025864  d :     0.103383
      dxz     :     0.025866
      dyz     :     0.016611
      dx2y2   :     0.018896
      dxy     :     0.016146
  2 C s       :     2.874886  s :     2.874886
      pz      :     1.038963  p :     3.117148
      px      :     1.086605
      py      :     0.991580
      dz2     :     0.024289  d :     0.099248
      dxz     :     0.028111
      dyz     :     0.016577
      dx2y2   :     0.017470
      dxy     :     0.012800
  3 C s       :     2.871572  s :     2.871572
      pz      :     1.029405  p :     3.117356
      px      :     1.083358
      py      :     1.004593
      dz2     :     0.022463  d :     0.099454
      dxz     :     0.031407
      dyz     :     0.015356
      dx2y2   :     0.016161
      dxy     :     0.014068
  4 C s       :     2.874897  s :     2.874897
      pz      :     1.083104  p :     3.065382
      px      :     1.042656
      py      :     0.939623
      dz2     :     0.022712  d :     0.103585
      dxz     :     0.029603
      dyz     :     0.013199
      dx2y2   :     0.019236
      dxy     :     0.018834
  5 C s       :     2.879631  s :     2.879631
      pz      :     1.051052  p :     3.030829
      px      :     1.039841
      py      :     0.939937
      dz2     :     0.022309  d :     0.104809
      dxz     :     0.031205
      dyz     :     0.015929
      dx2y2   :     0.015870
      dxy     :     0.019496
  6 N s       :     3.123256  s :     3.123256
      pz      :     1.253029  p :     3.780762
      px      :     1.289294
      py      :     1.238439
      dz2     :     0.030356  d :     0.098337
      dxz     :     0.027300
      dyz     :     0.018476
      dx2y2   :     0.012203
      dxy     :     0.010001
  7 C s       :     2.862504  s :     2.862504
      pz      :     1.058703  p :     3.072696
      px      :     0.937664
      py      :     1.076330
      dz2     :     0.027544  d :     0.134383
      dxz     :     0.028876
      dyz     :     0.014365
      dx2y2   :     0.030497
      dxy     :     0.033100
  8 C s       :     2.953514  s :     2.953514
      pz      :     1.136788  p :     3.341510
      px      :     1.123574
      py      :     1.081147
      dz2     :     0.014428  d :     0.067457
      dxz     :     0.017444
      dyz     :     0.006321
      dx2y2   :     0.010429
      dxy     :     0.018836
  9 H s       :     0.843492  s :     0.843492
 10 H s       :     0.867228  s :     0.867228
 11 H s       :     0.855769  s :     0.855769
 12 C s       :     2.953463  s :     2.953463
      pz      :     1.144527  p :     3.322268
      px      :     1.109606
      py      :     1.068135
      dz2     :     0.013954  d :     0.067950
      dxz     :     0.013870
      dyz     :     0.009801
      dx2y2   :     0.012244
      dxy     :     0.018081
 13 H s       :     0.844094  s :     0.844094
 14 H s       :     0.848680  s :     0.848680
 15 H s       :     0.862308  s :     0.862308
 16 H s       :     0.866982  s :     0.866982
 17 C s       :     2.876201  s :     2.876201
      pz      :     1.009966  p :     2.954428
      px      :     1.062652
      py      :     0.881810
      dz2     :     0.038985  d :     0.140182
      dxz     :     0.048595
      dyz     :     0.026197
      dx2y2   :     0.012413
      dxy     :     0.013992
 18 C s       :     2.891867  s :     2.891867
      pz      :     1.050614  p :     3.178477
      px      :     1.089039
      py      :     1.038824
      dz2     :     0.033808  d :     0.112664
      dxz     :     0.033624
      dyz     :     0.017668
      dx2y2   :     0.015885
      dxy     :     0.011680
 19 H s       :     0.839100  s :     0.839100
 20 C s       :     2.896718  s :     2.896718
      pz      :     1.136933  p :     3.223002
      px      :     1.059191
      py      :     1.026878
      dz2     :     0.013379  d :     0.097233
      dxz     :     0.037433
      dyz     :     0.012610
      dx2y2   :     0.017807
      dxy     :     0.016004
 21 C s       :     2.896710  s :     2.896710
      pz      :     1.079152  p :     3.133098
      px      :     1.085637
      py      :     0.968309
      dz2     :     0.028609  d :     0.094469
      dxz     :     0.031980
      dyz     :     0.014377
      dx2y2   :     0.012628
      dxy     :     0.006876
 22 S s       :     5.499299  s :     5.499299
      pz      :     3.255998  p :     9.848677
      px      :     3.087580
      py      :     3.505100
      dz2     :     0.049272  d :     0.155361
      dxz     :     0.034511
      dyz     :     0.018012
      dx2y2   :     0.028153
      dxy     :     0.025413
 23 C s       :     2.964021  s :     2.964021
      pz      :     1.121126  p :     3.210007
      px      :     1.025465
      py      :     1.063417
      dz2     :     0.024002  d :     0.085604
      dxz     :     0.030391
      dyz     :     0.011694
      dx2y2   :     0.011133
      dxy     :     0.008383
 24 H s       :     0.660076  s :     0.660076
 25 H s       :     0.837204  s :     0.837204
 26 H s       :     0.830641  s :     0.830641
 27 H s       :     0.817450  s :     0.817450
 28 H s       :     0.819178  s :     0.819178
 29 H s       :     0.810189  s :     0.810189
 30 O s       :     3.513729  s :     3.513729
      pz      :     1.457910  p :     4.697417
      px      :     1.555914
      py      :     1.683593
      dz2     :     0.015600  d :     0.054597
      dxz     :     0.015577
      dyz     :     0.013604
      dx2y2   :     0.005884
      dxy     :     0.003933
 31 O s       :     3.445439  s :     3.445439
      pz      :     1.687447  p :     4.686128
      px      :     1.606345
      py      :     1.392336
      dz2     :     0.009082  d :     0.059815
      dxz     :     0.004472
      dyz     :     0.015083
      dx2y2   :     0.014560
      dxy     :     0.016618
 32 C s       :     2.813418  s :     2.813418
      pz      :     0.967065  p :     2.707331
      px      :     0.782703
      py      :     0.957563
      dz2     :     0.070504  d :     0.319811
      dxz     :     0.050033
      dyz     :     0.094939
      dx2y2   :     0.051284
      dxy     :     0.053051
 33 C s       :     2.958792  s :     2.958792
      pz      :     1.102987  p :     3.351657
      px      :     1.152819
      py      :     1.095850
      dz2     :     0.004192  d :     0.062616
      dxz     :     0.017024
      dyz     :     0.020946
      dx2y2   :     0.018045
      dxy     :     0.002409
 34 H s       :     0.836672  s :     0.836672
 35 H s       :     0.829315  s :     0.829315
 36 H s       :     0.846114  s :     0.846114
 37 H s       :     0.817173  s :     0.817173
 38 H s       :     0.815314  s :     0.815314


                      *****************************
                      * MAYER POPULATION ANALYSIS *
                      *****************************

  NA   - Mulliken gross atomic population
  ZA   - Total nuclear charge
  QA   - Mulliken gross atomic charge
  VA   - Mayer's total valence
  BVA  - Mayer's bonded valence
  FA   - Mayer's free valence

  ATOM       NA         ZA         QA         VA         BVA        FA
  0 Ir    16.3958    17.0000     0.6042     3.7545     3.7545    -0.0000
  1 C      6.2333     6.0000    -0.2333     3.7190     3.7190    -0.0000
  2 C      6.2668     6.0000    -0.2668     3.7343     3.7343     0.0000
  3 C      6.2634     6.0000    -0.2634     3.7416     3.7416     0.0000
  4 C      6.2289     6.0000    -0.2289     3.7171     3.7171    -0.0000
  5 C      6.1556     6.0000    -0.1556     3.6977     3.6977     0.0000
  6 N      7.4315     7.0000    -0.4315     3.2158     3.2158    -0.0000
  7 C      6.1267     6.0000    -0.1267     3.7048     3.7048    -0.0000
  8 C      6.6832     6.0000    -0.6832     3.6881     3.6881    -0.0000
  9 H      0.7301     1.0000     0.2699     0.8973     0.8973     0.0000
 10 H      0.7758     1.0000     0.2242     0.9107     0.9107     0.0000
 11 H      0.7444     1.0000     0.2556     0.8997     0.8997     0.0000
 12 C      6.6344     6.0000    -0.6344     3.6711     3.6711     0.0000
 13 H      0.7183     1.0000     0.2817     0.8731     0.8731     0.0000
 14 H      0.7398     1.0000     0.2602     0.8982     0.8982     0.0000
 15 H      0.7679     1.0000     0.2321     0.9095     0.9095     0.0000
 16 H      0.7671     1.0000     0.2329     0.9061     0.9061    -0.0000
 17 C      5.9299     6.0000     0.0701     3.6560     3.6560     0.0000
 18 C      6.1318     6.0000    -0.1318     3.7013     3.7013    -0.0000
 19 H      0.7134     1.0000     0.2866     0.8866     0.8866     0.0000
 20 C      6.5459     6.0000    -0.5459     3.5391     3.5391    -0.0000
 21 C      6.1033     6.0000    -0.1033     3.7507     3.7507     0.0000
 22 S     15.6610    16.0000     0.3390     2.6008     2.6008     0.0000
 23 C      6.4293     6.0000    -0.4293     3.7530     3.7530     0.0000
 24 H      0.5251     1.0000     0.4749     0.7483     0.7483     0.0000
 25 H      0.7325     1.0000     0.2675     0.9023     0.9023    -0.0000
 26 H      0.7015     1.0000     0.2985     0.8969     0.8969     0.0000
 27 H      0.7137     1.0000     0.2863     0.9051     0.9051    -0.0000
 28 H      0.7160     1.0000     0.2840     0.9086     0.9086    -0.0000
 29 H      0.6995     1.0000     0.3005     0.8943     0.8943    -0.0000
 30 O      8.4762     8.0000    -0.4762     2.1417     2.1417     0.0000
 31 O      8.5199     8.0000    -0.5199     2.1016     2.1016     0.0000
 32 C      5.3733     6.0000     0.6267     3.9030     3.9030    -0.0000
 33 C      6.7443     6.0000    -0.7443     3.6626     3.6626     0.0000
 34 H      0.7289     1.0000     0.2711     0.8942     0.8942     0.0000
 35 H      0.7270     1.0000     0.2730     0.8925     0.8925    -0.0000
 36 H      0.7420     1.0000     0.2580     0.8988     0.8988     0.0000
 37 H      0.7156     1.0000     0.2844     0.9075     0.9075     0.0000
 38 H      0.7068     1.0000     0.2932     0.9031     0.9031     0.0000

  Mayer bond orders larger than 0.100000
B(  0-Ir,  1-C ) :   0.4305 B(  0-Ir,  2-C ) :   0.4387 B(  0-Ir,  3-C ) :   0.4655 
B(  0-Ir,  4-C ) :   0.4312 B(  0-Ir,  5-C ) :   0.3843 B(  0-Ir,  6-N ) :   0.4635 
B(  0-Ir, 20-C ) :   0.4300 B(  0-Ir, 31-O ) :   0.5403 B(  1-C ,  2-C ) :   1.1267 
B(  1-C ,  4-C ) :   1.2342 B(  1-C , 27-H ) :   0.9072 B(  2-C ,  5-C ) :   1.1876 
B(  2-C , 28-H ) :   0.9100 B(  3-C ,  4-C ) :   1.1275 B(  3-C ,  5-C ) :   1.1915 
B(  3-C , 37-H ) :   0.9116 B(  4-C , 38-H ) :   0.8996 B(  5-C , 29-H ) :   0.9001 
B(  6-N ,  7-C ) :   0.8948 B(  6-N , 17-C ) :   1.6555 B(  7-C ,  8-C ) :   0.9906 
B(  7-C , 12-C ) :   0.9664 B(  7-C , 13-H ) :   0.8752 B(  8-C ,  9-H ) :   0.9045 
B(  8-C , 10-H ) :   0.9131 B(  8-C , 11-H ) :   0.9113 B( 12-C , 14-H ) :   0.9075 
B( 12-C , 15-H ) :   0.9154 B( 12-C , 16-H ) :   0.9120 B( 17-C , 18-C ) :   1.1020 
B( 17-C , 19-H ) :   0.8760 B( 18-C , 20-C ) :   1.2363 B( 18-C , 22-S ) :   1.2481 
B( 20-C , 21-C ) :   1.2645 B( 20-C , 24-H ) :   0.3901 B( 21-C , 23-C ) :   1.5488 
B( 21-C , 25-H ) :   0.9025 B( 22-S , 23-C ) :   1.2119 B( 23-C , 26-H ) :   0.8911 
B( 24-H , 30-O ) :   0.3075 B( 30-O , 32-C ) :   1.6132 B( 31-O , 32-C ) :   1.3425 
B( 32-C , 33-C ) :   0.9442 B( 33-C , 34-H ) :   0.9016 B( 33-C , 35-H ) :   0.8951 
B( 33-C , 36-H ) :   0.9090 


------------------
HIRSHFELD ANALYSIS
------------------

Total integrated alpha density =     82.000069379
Total integrated beta density  =     82.000069379

  ATOM     CHARGE      SPIN    
   0 Ir   0.181142    0.000000
   1 C   -0.000990    0.000000
   2 C   -0.013662    0.000000
   3 C   -0.016551    0.000000
   4 C    0.001712    0.000000
   5 C    0.020535    0.000000
   6 N   -0.067172    0.000000
   7 C    0.052717    0.000000
   8 C   -0.071256    0.000000
   9 H    0.053445    0.000000
  10 H    0.037488    0.000000
  11 H    0.041697    0.000000
  12 C   -0.071020    0.000000
  13 H    0.045531    0.000000
  14 H    0.050269    0.000000
  15 H    0.037093    0.000000
  16 H    0.030482    0.000000
  17 C    0.094988    0.000000
  18 C   -0.004466    0.000000
  19 H    0.077156    0.000000
  20 C   -0.084222    0.000000
  21 C   -0.024681    0.000000
  22 S    0.143737    0.000000
  23 C   -0.025232    0.000000
  24 H    0.088794    0.000000
  25 H    0.069626    0.000000
  26 H    0.079310    0.000000
  27 H    0.081329    0.000000
  28 H    0.080018    0.000000
  29 H    0.091992    0.000000
  30 O   -0.243548    0.000000
  31 O   -0.249338    0.000000
  32 C    0.246647    0.000000
  33 C   -0.063863    0.000000
  34 H    0.057265    0.000000
  35 H    0.062645    0.000000
  36 H    0.049435    0.000000
  37 H    0.081530    0.000000
  38 H    0.079279    0.000000

  TOTAL   0.999861    0.000000

-------
TIMINGS
-------

Total SCF time: 0 days 0 hours 4 min 40 sec 

Total time                  ....     280.045 sec
Sum of individual times     ....     279.397 sec  ( 99.8%)

Fock matrix formation       ....     270.666 sec  ( 96.7%)
  Split-RI-J                ....      21.862 sec  (  8.1% of F)
  Chain of spheres X        ....     233.228 sec  ( 86.2% of F)
  XC integration            ....      15.559 sec  (  5.7% of F)
    Basis function eval.    ....       7.304 sec  ( 46.9% of XC)
    Density eval.           ....       4.076 sec  ( 26.2% of XC)
    XC-Functional eval.     ....       1.153 sec  (  7.4% of XC)
    XC-Potential eval.      ....       2.457 sec  ( 15.8% of XC)
Diagonalization             ....       0.240 sec  (  0.1%)
Density matrix formation    ....       0.038 sec  (  0.0%)
Population analysis         ....       1.457 sec  (  0.5%)
Initial guess               ....       0.059 sec  (  0.0%)
Orbital Transformation      ....       0.000 sec  (  0.0%)
Orbital Orthonormalization  ....       0.043 sec  (  0.0%)
DIIS solution               ....       0.090 sec  (  0.0%)
Grid generation             ....       6.846 sec  (  2.4%)

Maximum memory used throughout the entire SCF-calculation: 173.3 MB


-------------------------------------------------------------------------------
                          DFT DISPERSION CORRECTION                            
                                                                               
                              DFTD3 V3.1  Rev 1                                
                          USING Becke-Johnson damping                          
-------------------------------------------------------------------------------
The PBEh-3c composite method is recognized
Using three-body term ABC
Active option DFTDOPT                   ...         4   

molecular C6(AA) [au] = 19548.146451 


            DFT-D V3
 parameters
 s6 scaling factor         :     1.0000 
 a1 scaling factor         :     0.4860 
 s8 scaling factor         :     0.0000 
 a2 scaling factor         :     4.5000 
 Damping factor alpha9(ATM):    16.0000 
 ad hoc parameters k1-k3   :    16.0000     1.3333    -4.0000 

 Edisp/kcal,au: -19.279393965365  -0.030723666663 
 E6   /kcal   : -19.618078880 
 E8   /kcal   :  -0.000000000 
 E6(ABC)      :   0.338684914 
 % E8         :   0.000000000 
 % E6(ABC)    :  -1.756719713 

-------------------------   ----------------
Dispersion correction           -0.030723667
-------------------------   ----------------

 ** NOTE ** -> element ir will be treated as co
NOTIFICATION: Different basis set in ORCA and otool_gcp:
ORCA: 358  gCP: 357 
If you are NOT using ECPs, check your basis set inputs!
------------------   -----------------
gCP correction             0.080390503
------------------   -----------------

-------------------------   --------------------
FINAL SINGLE POINT ENERGY     -1288.401082484526
-------------------------   --------------------

                                *** OPTIMIZATION RUN DONE ***

                            ***************************************
                            *     ORCA property calculations      *
                            ***************************************

                                    ---------------------
                                    Active property flags
                                    ---------------------
   (+) Dipole Moment


------------------------------------------------------------------------------
                       ORCA ELECTRIC PROPERTIES CALCULATION
------------------------------------------------------------------------------

Dipole Moment Calculation                       ... on
Quadrupole Moment Calculation                   ... off
Polarizability Calculation                      ... off
GBWName                                         ... reaction4-IEIP_ts_guess_scan_10-6_orca.gbw
Electron density                                ... reaction4-IEIP_ts_guess_scan_10-6_orca.scfp
The origin for moment calculation is the CENTER OF MASS  = ( 0.870333, -0.561686 -0.172805)

-------------
DIPOLE MOMENT
-------------
                                X             Y             Z
Electronic contribution:     37.85133     -71.65401      71.80686
Nuclear contribution   :    -38.50060      70.94792     -72.14733
                        -----------------------------------------
Total Dipole Moment    :     -0.64927      -0.70609      -0.34047
                        -----------------------------------------
Magnitude (a.u.)       :      1.01786
Magnitude (Debye)      :      2.58720



--------------------
Rotational spectrum 
--------------------
 
Rotational constants in cm-1:     0.010521     0.008935     0.008219 
Rotational constants in MHz :   315.404579   267.858960   246.387781 

 Dipole components along the rotational axes: 
x,y,z [a.u.] :    -0.057552    -0.051854     1.014910 
x,y,z [Debye]:    -0.146285    -0.131803     2.579696 

 

Timings for individual modules:

Sum of individual times         ...     9391.963 sec (= 156.533 min)
GTO integral calculation        ...       30.862 sec (=   0.514 min)   0.3 %
SCF iterations                  ...     7315.350 sec (= 121.923 min)  77.9 %
SCF Gradient evaluation         ...     2040.421 sec (=  34.007 min)  21.7 %
Geometry relaxation             ...        5.330 sec (=   0.089 min)   0.1 %
                             ****ORCA TERMINATED NORMALLY****
TOTAL RUN TIME: 0 days 2 hours 36 minutes 39 seconds 143 msec
