
                                 *****************
                                 * O   R   C   A *
                                 *****************

                                            #,                                       
                                            ###                                      
                                            ####                                     
                                            #####                                    
                                            ######                                   
                                           ########,                                 
                                     ,,################,,,,,                         
                               ,,#################################,,                 
                          ,,##########################################,,             
                       ,#########################################, ''#####,          
                    ,#############################################,,   '####,        
                  ,##################################################,,,,####,       
                ,###########''''           ''''###############################       
              ,#####''   ,,,,##########,,,,          '''####'''          '####       
            ,##' ,,,,###########################,,,                        '##       
           ' ,,###''''                  '''############,,,                           
         ,,##''                                '''############,,,,        ,,,,,,###''
      ,#''                                            '''#######################'''  
     '                                                          ''''####''''         
             ,#######,   #######,   ,#######,      ##                                
            ,#'     '#,  ##    ##  ,#'     '#,    #''#        ######   ,####,        
            ##       ##  ##   ,#'  ##            #'  '#       #        #'  '#        
            ##       ##  #######   ##           ,######,      #####,   #    #        
            '#,     ,#'  ##    ##  '#,     ,#' ,#      #,         ##   #,  ,#        
             '#######'   ##     ##  '#######'  #'      '#     #####' # '####'        



                  #######################################################
                  #                        -***-                        #
                  #          Department of theory and spectroscopy      #
                  #    Directorship and core code : Frank Neese         #
                  #        Max Planck Institute fuer Kohlenforschung    #
                  #                Kaiser Wilhelm Platz 1               #
                  #                 D-45470 Muelheim/Ruhr               #
                  #                      Germany                        #
                  #                                                     #
                  #                  All rights reserved                #
                  #                        -***-                        #
                  #######################################################


                         Program Version 5.0.3 -  RELEASE  -


 With contributions from (in alphabetic order):
   Daniel Aravena         : Magnetic Suceptibility
   Michael Atanasov       : Ab Initio Ligand Field Theory (pilot matlab implementation)
   Alexander A. Auer      : GIAO ZORA, VPT2 properties, NMR spectrum
   Ute Becker             : Parallelization
   Giovanni Bistoni       : ED, misc. LED, open-shell LED, HFLD
   Martin Brehm           : Molecular dynamics
   Dmytro Bykov           : SCF Hessian
   Vijay G. Chilkuri      : MRCI spin determinant printing, contributions to CSF-ICE
   Dipayan Datta          : RHF DLPNO-CCSD density
   Achintya Kumar Dutta   : EOM-CC, STEOM-CC
   Dmitry Ganyushin       : Spin-Orbit,Spin-Spin,Magnetic field MRCI
   Miquel Garcia          : C-PCM and meta-GGA Hessian, CC/C-PCM, Gaussian charge scheme
   Yang Guo               : DLPNO-NEVPT2, F12-NEVPT2, CIM, IAO-localization
   Andreas Hansen         : Spin unrestricted coupled pair/coupled cluster methods
   Benjamin Helmich-Paris : MC-RPA, TRAH-SCF, COSX integrals
   Lee Huntington         : MR-EOM, pCC
   Robert Izsak           : Overlap fitted RIJCOSX, COSX-SCS-MP3, EOM
   Marcus Kettner         : VPT2
   Christian Kollmar      : KDIIS, OOCD, Brueckner-CCSD(T), CCSD density, CASPT2, CASPT2-K
   Simone Kossmann        : Meta GGA functionals, TD-DFT gradient, OOMP2, MP2 Hessian
   Martin Krupicka        : Initial AUTO-CI
   Lucas Lang             : DCDCAS
   Marvin Lechner         : AUTO-CI (C++ implementation), FIC-MRCC
   Dagmar Lenk            : GEPOL surface, SMD
   Dimitrios Liakos       : Extrapolation schemes; Compound Job, initial MDCI parallelization
   Dimitrios Manganas     : Further ROCIS development; embedding schemes
   Dimitrios Pantazis     : SARC Basis sets
   Anastasios Papadopoulos: AUTO-CI, single reference methods and gradients
   Taras Petrenko         : DFT Hessian,TD-DFT gradient, ASA, ECA, R-Raman, ABS, FL, XAS/XES, NRVS
   Peter Pinski           : DLPNO-MP2, DLPNO-MP2 Gradient
   Christoph Reimann      : Effective Core Potentials
   Marius Retegan         : Local ZFS, SOC
   Christoph Riplinger    : Optimizer, TS searches, QM/MM, DLPNO-CCSD(T), (RO)-DLPNO pert. Triples
   Tobias Risthaus        : Range-separated hybrids, TD-DFT gradient, RPA, STAB
   Michael Roemelt        : Original ROCIS implementation
   Masaaki Saitow         : Open-shell DLPNO-CCSD energy and density
   Barbara Sandhoefer     : DKH picture change effects
   Avijit Sen             : IP-ROCIS
   Kantharuban Sivalingam : CASSCF convergence, NEVPT2, FIC-MRCI
   Bernardo de Souza      : ESD, SOC TD-DFT
   Georgi Stoychev        : AutoAux, RI-MP2 NMR, DLPNO-MP2 response
   Willem Van den Heuvel  : Paramagnetic NMR
   Boris Wezisla          : Elementary symmetry handling
   Frank Wennmohs         : Technical directorship


 We gratefully acknowledge several colleagues who have allowed us to
 interface, adapt or use parts of their codes:
   Stefan Grimme, W. Hujo, H. Kruse, P. Pracht,  : VdW corrections, initial TS optimization,
                  C. Bannwarth, S. Ehlert          DFT functionals, gCP, sTDA/sTD-DF
   Ed Valeev, F. Pavosevic, A. Kumar             : LibInt (2-el integral package), F12 methods
   Garnet Chan, S. Sharma, J. Yang, R. Olivares  : DMRG
   Ulf Ekstrom                                   : XCFun DFT Library
   Mihaly Kallay                                 : mrcc  (arbitrary order and MRCC methods)
   Jiri Pittner, Ondrej Demel                    : Mk-CCSD
   Frank Weinhold                                : gennbo (NPA and NBO analysis)
   Christopher J. Cramer and Donald G. Truhlar   : smd solvation model
   Lars Goerigk                                  : TD-DFT with DH, B97 family of functionals
   V. Asgeirsson, H. Jonsson                     : NEB implementation
   FAccTs GmbH                                   : IRC, NEB, NEB-TS, DLPNO-Multilevel, CI-OPT
                                                   MM, QMMM, 2- and 3-layer-ONIOM, Crystal-QMMM,
                                                   LR-CPCM, SF, NACMEs, symmetry and pop. for TD-DFT,
                                                   nearIR, NL-DFT gradient (VV10), updates on ESD,
                                                   ML-optimized integration grids
   S Lehtola, MJT Oliveira, MAL Marques          : LibXC Library
   Liviu Ungur et al                             : ANISO software


 Your calculation uses the libint2 library for the computation of 2-el integrals
 For citations please refer to: http://libint.valeyev.net

 Your ORCA version has been built with support for libXC version: 5.1.0
 For citations please refer to: https://tddft.org/programs/libxc/

 This ORCA versions uses:
   CBLAS   interface :  Fast vector & matrix operations
   LAPACKE interface :  Fast linear algebra routines
   SCALAPACK package :  Parallel linear algebra routines
   Shared memory     :  Shared parallel matrices
   BLAS/LAPACK       :  OpenBLAS 0.3.15  USE64BITINT DYNAMIC_ARCH NO_AFFINITY SkylakeX SINGLE_THREADED
        Core in use  :  SkylakeX
   Copyright (c) 2011-2014, The OpenBLAS Project


Your calculation utilizes the geometrical counterpoise correction gCP
Please cite in your paper:
H.Kruse, S. Grimme J.Chem.Phys., 136, (2012), 154101 
   

Your calculation utilizes the atom-pairwise dispersion correction
with the Becke-Johnson damping scheme (D3BJ)
Cite in your paper:
S.Grimme, S.Ehrlich, L.Goerigk, J Comput Chem, (2011), 32, 1456–1465 
S.Grimme, J.Antony, S.Ehrlich and H.Krieg, J.Chem.Phys., 132, (2010), 154104 
   

Your calculation employs the composite approach PBEh-3c.
Please cite in your paper:
S. Grimme, J. G. Brandenburg, C. Bannwarth, A. Hansen J.Chem.Phys., 143, (2015), 054107 
   

================================================================================

cite the ECPs for Ir [Def2-ECP] as follows:
Ce-Yb(ecp-28): M. Dolg, H. Stoll, H.Preuss, J. Chem. Phys., 1989, 90, 1730-1734.
Y-Cd(ecp-28), Hf-Hg(ecp-46): D. Andrae,U. Haeussermann, M. Dolg, H. Stoll, H. Preuss, Theor. Chim. Acta, 1990, 77, 123-141.
In-Sb(ecp-28), Tl-Bi(ecp-46): B. Metz, H. Stoll, M. Dolg, J. Chem. Phys., 2000, 113, 2563-2569.
Te-Xe(ecp-28), Po-Rn(ecp-46): K. A. Peterson, D. Figgen, E. Goll, H. Stoll, M. Dolg, J. Chem. Phys., 2003, 119, 11113-11123.
Rb(ecp-28), Cs(ecp-46): T. Leininger, A. Nicklass, W. Kuechle, H. Stoll, M. Dolg, A. Bergner, Chem. Phys. Lett., 1996, 255, 274-280.
Sr(ecp-28), Ba(ecp-46): M. Kaupp, P. V. Schleyer, H. Stoll and H. Preuss, J. Chem. Phys., 1991, 94, 1360-1366.
La(ecp-46): M. Dolg, H. Stoll, A. Savin, H. Preuss, Theor. Chim. Acta, 1989, 75, 173-194.
Lu(ecp-28): X. Cao, M. Dolg, J. Chem. Phys., 2001, 115, 7348-7355.

ECP parameters for Ir [Def2-ECP] have been obtained from:
TURBOMOLE (7.0.2)

----- Orbital basis set information -----
Your calculation utilizes the basis: def2-mSVP

----- AuxJ basis set information -----
Your calculation utilizes the auxiliary basis: def2/J
   F. Weigend, Phys. Chem. Chem. Phys. 8, 1057 (2006).

================================================================================
                                        WARNINGS
                       Please study these warnings very carefully!
================================================================================


WARNING: Geometry Optimization
  ===> : Switching off AutoStart
         For restart on a previous wavefunction, please use MOREAD

WARNING: No Hueckel Guess possible with ECP basis!
  ===> : Switching to HCORE guess!

INFO   : the flag for use of the SHARK integral package has been found!

================================================================================
                                       INPUT FILE
================================================================================
NAME = reaction4-IEIP_ts_guess_scan_0-1_orca.inp
|  1> ! Opt PBEh-3c
|  2> %geom Constraints
|  3> { B 0 20 2.6 C }
|  4> { B 24 30 1.4857142857142858 C }
|  5>     end
|  6> end
|  7> %output 
|  8> xyzfile=True 
|  9> end 
| 10> %scf 
| 11> maxiter 250 
| 12> end
| 13> %output
| 14> Print[P_Hirshfeld] = 1
| 15> end
| 16> % maxcore
| 17> 4000
| 18> %pal nprocs 4
| 19> end
| 20> *xyz 1 1
| 21> Ir   0.58127022  -0.72844282   0.47086482 
| 22> C    0.03328717  -2.80987120   0.32994191 
| 23> C    0.12225722  -2.36865279   1.70260242 
| 24> C    2.20015296  -2.13837558   0.74355575 
| 25> C    1.29358007  -2.63848607  -0.26611939 
| 26> C    1.49212580  -2.01538874   1.95052150 
| 27> N   -1.03750421   0.18293623  -0.51225760 
| 28> C   -2.30714981   0.53113388   0.14443891 
| 29> C   -3.12421679   1.56049530  -0.61862125 
| 30> H   -3.95587925   1.88199254   0.00675108 
| 31> H   -3.56149961   1.16197250  -1.53561408 
| 32> H   -2.54112751   2.44921255  -0.86226438 
| 33> C   -3.10732788  -0.73767610   0.41084104 
| 34> H   -2.01256348   0.96462984   1.10169806 
| 35> H   -4.01976961  -0.48662739   0.94947070 
| 36> H   -3.39506562  -1.22756418  -0.52039568 
| 37> H   -2.55751361  -1.45018685   1.02433374 
| 38> C   -0.82197069   0.38217829  -1.75318122 
| 39> C    0.53119254   0.13744493  -2.21459207 
| 40> H   -1.59156608   0.74914022  -2.42646712 
| 41> C    1.64852013   0.57070281  -1.51236442 
| 42> C    2.84276305   0.12703087  -2.14917174 
| 43> S    0.93374971  -0.73853610  -3.62757506 
| 44> C    2.60967727  -0.58056549  -3.28603374 
| 45> H    1.55972520   1.41598901  -0.73319531 
| 46> H    3.83499086   0.37153039  -1.79907502 
| 47> H    3.33513993  -1.00433067  -3.96390215 
| 48> H   -0.85884917  -3.16923644  -0.16242641 
| 49> H   -0.66338006  -2.40813802   2.44314221 
| 50> H    1.88383953  -1.63255189   2.88197198 
| 51> O    1.22897682   2.46781482   0.28379435 
| 52> O    0.54583460   0.88099415   1.69653385 
| 53> C    0.86940280   2.10064290   1.39453708 
| 54> C    0.80175325   3.05683398   2.55359597 
| 55> H    0.72262559   4.08097735   2.19914457 
| 56> H    1.72019555   2.97570190   3.13819176 
| 57> H   -0.02599310   2.82881450   3.22203568 
| 58> H    3.24242750  -1.89924635   0.59189796 
| 59> H    1.54725870  -2.84510226  -1.29586867 
| 60> *
| 61> 
| 62>                          ****END OF INPUT****
================================================================================

                       *****************************
                       * Geometry Optimization Run *
                       *****************************

Geometry optimization settings:
Update method            Update   .... BFGS
Choice of coordinates    CoordSys .... Z-matrix Internals
Initial Hessian          InHess   .... Almoef's Model

Convergence Tolerances:
Energy Change            TolE     ....  5.0000e-06 Eh
Max. Gradient            TolMAXG  ....  3.0000e-04 Eh/bohr
RMS Gradient             TolRMSG  ....  1.0000e-04 Eh/bohr
Max. Displacement        TolMAXD  ....  4.0000e-03 bohr
RMS Displacement         TolRMSD  ....  2.0000e-03 bohr
Strict Convergence                ....  False
------------------------------------------------------------------------------
                        ORCA OPTIMIZATION COORDINATE SETUP
------------------------------------------------------------------------------

The optimization will be done in new redundant internal coordinates
Making redundant internal coordinates   ...  (new redundants) done
Evaluating the initial hessian          ...  (Almloef) done
Evaluating the coordinates              ...  done
Calculating the B-matrix                .... done
Calculating the G-matrix                .... done
Diagonalizing the G-matrix              .... done
Imposing constraints:
 Iter   0:  RMS(Cart)=    0.0046018661 RMS(Int)=    0.0005679607
 Iter   1:  RMS(Cart)=    0.0001546772 RMS(Int)=    0.0000249257
 Iter   2:  RMS(Cart)=    0.0000083103 RMS(Int)=    0.0000013104
 Iter   3:  RMS(Cart)=    0.0000004749 RMS(Int)=    0.0000000717
 Iter   4:  RMS(Cart)=    0.0000000267 RMS(Int)=    0.0000000040
CONVERGED
Small eigenvalue found = 1.198e-02
Small eigenvalue found = 1.557e-02
Small eigenvalue found = 2.189e-02
Small eigenvalue found = 2.409e-02
Small eigenvalue found = 2.936e-02
The first mode is                       ....  227
The number of degrees of freedom        ....  111
Storing new coordinates                 .... done

    -----------------------------------------------------------------
                    Redundant Internal Coordinates


    -----------------------------------------------------------------
         Definition                    Initial Value    Approx d2E/dq
    -----------------------------------------------------------------
      1. B(C   1,Ir  0)                  2.1570         0.086906   
      2. B(C   2,C   1)                  1.4445         0.511297   
      3. B(C   2,Ir  0)                  2.1020         0.106373   
      4. B(C   3,Ir  0)                  2.1641         0.084677   
      5. B(C   4,Ir  0)                  2.1677         0.083554   
      6. B(C   4,C   3)                  1.4462         0.508290   
      7. B(C   4,C   1)                  1.4046         0.592092   
      8. B(C   5,Ir  0)                  2.1622         0.085238   
      9. B(C   5,C   2)                  1.4362         0.527179   
     10. B(C   5,C   3)                  1.4047         0.591941   
     11. B(N   6,Ir  0)                  2.1019         0.095322   
     12. B(C   7,N   6)                  1.4712         0.415233   
     13. B(C   8,C   7)                  1.5197         0.388002   
     14. B(H   9,C   8)                  1.0891         0.361308   
     15. B(H  10,C   8)                  1.0913         0.358398   
     16. B(H  11,C   8)                  1.0905         0.359449   
     17. B(C  12,C   7)                  1.5235         0.382565   
     18. B(H  13,C   7)                  1.0914         0.358318   
     19. B(H  14,C  12)                  1.0889         0.361562   
     20. B(H  15,C  12)                  1.0909         0.358958   
     21. B(H  16,C  12)                  1.0892         0.361170   
     22. B(C  17,N   6)                  1.2751         0.853275   
     23. B(C  18,C  17)                  1.4504         0.500348   
     24. B(H  19,C  17)                  1.0864         0.364902   
     25. B(C  20,C  18)                  1.3891         0.627149   
     26. B(C  20,Ir  0)                  2.6000         0.017069 C 
     27. B(C  21,C  20)                  1.4243         0.550860   
     28. B(S  22,C  18)                  1.7105         0.518943   
     29. B(C  23,C  21)                  1.3593         0.699596   
     30. B(C  23,S  22)                  1.7177         0.505538   
     31. B(H  24,C  20)                  1.1534         0.285660   
     32. B(H  25,C  21)                  1.0802         0.373280   
     33. B(H  26,C  23)                  1.0795         0.374224   
     34. B(H  27,C   1)                  1.0805         0.372891   
     35. B(H  28,C   2)                  1.0804         0.373077   
     36. B(H  29,C   5)                  1.0806         0.372811   
     37. B(O  30,H  24)                  1.4857         0.071521 C 
     38. B(O  31,Ir  0)                  2.0229         0.127178   
     39. B(C  32,O  30)                  1.2241         1.030208   
     40. B(C  32,O  31)                  1.2973         0.786128   
     41. B(C  33,C  32)                  1.5041         0.410876   
     42. B(H  34,C  33)                  1.0866         0.364585   
     43. B(H  35,C  33)                  1.0917         0.357821   
     44. B(H  36,C  33)                  1.0881         0.362618   
     45. B(H  37,C   3)                  1.0801         0.373499   
     46. B(H  38,C   4)                  1.0805         0.372923   
     47. A(C   2,Ir  0,O  31)          105.1921         0.269540   
     48. A(C   1,Ir  0,O  31)          143.3979         0.261467   
     49. A(C   5,Ir  0,N   6)          154.5069         0.249864   
     50. A(C   1,Ir  0,C   3)           64.5037         0.247431   
     51. A(C   1,Ir  0,C   5)           64.9984         0.247668   
     52. A(C   3,Ir  0,O  31)          117.0714         0.260455   
     53. A(C   3,Ir  0,N   6)          156.5791         0.249623   
     54. A(C   2,Ir  0,C   5)           39.3337         0.255096   
     55. A(C   3,Ir  0,C   4)           39.0058         0.246027   
     56. A(C   2,Ir  0,C   4)           65.3775         0.254347   
     57. A(C   5,Ir  0,O  31)           93.8086         0.260712   
     58. A(C   4,Ir  0,N   6)          118.4331         0.249139   
     59. A(C   1,Ir  0,C   2)           39.6271         0.255826   
     60. A(C   4,Ir  0,C   5)           64.5166         0.246262   
     61. A(C   4,Ir  0,O  31)          155.8747         0.259938   
     62. A(C   1,Ir  0,N   6)          101.0833         0.250571   
     63. A(C   2,Ir  0,C   3)           65.2346         0.254848   
     64. A(C   2,Ir  0,N   6)          116.3792         0.258134   
     65. A(C   1,Ir  0,C   4)           37.9035         0.246953   
     66. A(N   6,Ir  0,O  31)           85.6910         0.263853   
     67. A(C   3,Ir  0,C   5)           37.8931         0.246738   
     68. A(Ir  0,C   1,H  27)          124.0888         0.269772   
     69. A(C   2,C   1,C   4)          108.1023         0.415909   
     70. A(Ir  0,C   1,C   4)           71.4611         0.321071   
     71. A(C   4,C   1,H  27)          126.0165         0.352244   
     72. A(Ir  0,C   1,C   2)           68.1325         0.313492   
     73. A(C   2,C   1,H  27)          125.8343         0.343646   
     74. A(C   5,C   2,H  28)          125.7513         0.345444   
     75. A(Ir  0,C   2,C   5)           72.5985         0.325633   
     76. A(C   1,C   2,C   5)          107.3304         0.407428   
     77. A(Ir  0,C   2,C   1)           72.2404         0.324000   
     78. A(Ir  0,C   2,H  28)          126.0854         0.278256   
     79. A(C   1,C   2,H  28)          126.5397         0.343675   
     80. A(Ir  0,C   3,H  37)          124.0534         0.268778   
     81. A(C   4,C   3,C   5)          108.3103         0.415454   
     82. A(C   4,C   3,H  37)          125.6965         0.343400   
     83. A(Ir  0,C   3,C   4)           70.6329         0.311877   
     84. A(Ir  0,C   3,C   5)           70.9838         0.319697   
     85. A(C   5,C   3,H  37)          125.9931         0.352325   
     86. A(Ir  0,C   4,C   1)           70.6354         0.319014   
     87. A(Ir  0,C   4,H  38)          124.7273         0.268173   
     88. A(C   1,C   4,H  38)          126.2797         0.352249   
     89. A(C   3,C   4,H  38)          125.7566         0.343311   
     90. A(Ir  0,C   4,C   3)           70.3613         0.311205   
     91. A(C   1,C   4,C   3)          107.9635         0.415472   
     92. A(Ir  0,C   5,H  29)          122.1213         0.268972   
     93. A(C   3,C   5,H  29)          126.0833         0.352216   
     94. A(C   2,C   5,H  29)          125.5704         0.345402   
     95. A(Ir  0,C   5,C   3)           71.1231         0.320042   
     96. A(C   2,C   5,C   3)          108.1131         0.418161   
     97. A(Ir  0,C   5,C   2)           68.0678         0.314062   
     98. A(Ir  0,N   6,C  17)          113.1359         0.342466   
     99. A(C   7,N   6,C  17)          122.9030         0.422206   
    100. A(Ir  0,N   6,C   7)          123.9457         0.304339   
    101. A(N   6,C   7,C   8)          113.5891         0.370084   
    102. A(N   6,C   7,C  12)          109.5239         0.369187   
    103. A(C   8,C   7,C  12)          111.6861         0.367208   
    104. A(N   6,C   7,H  13)          104.6304         0.327766   
    105. A(C   8,C   7,H  13)          108.4514         0.326079   
    106. A(C  12,C   7,H  13)          108.6144         0.325323   
    107. A(C   7,C   8,H  11)          112.1307         0.326249   
    108. A(H   9,C   8,H  11)          107.2195         0.290910   
    109. A(H  10,C   8,H  11)          108.9129         0.290541   
    110. A(C   7,C   8,H   9)          108.7960         0.326526   
    111. A(C   7,C   8,H  10)          112.9546         0.326091   
    112. A(H   9,C   8,H  10)          106.5181         0.290776   
    113. A(C   7,C  12,H  14)          109.5477         0.325806   
    114. A(C   7,C  12,H  15)          111.3009         0.325419   
    115. A(H  14,C  12,H  15)          107.7451         0.290879   
    116. A(C   7,C  12,H  16)          112.2199         0.325748   
    117. A(H  14,C  12,H  16)          107.1690         0.291160   
    118. A(H  15,C  12,H  16)          108.6755         0.290830   
    119. A(N   6,C  17,C  18)          116.1406         0.439453   
    120. A(N   6,C  17,H  19)          122.4327         0.371202   
    121. A(C  18,C  17,H  19)          121.3883         0.341162   
    122. A(C  17,C  18,C  20)          122.4345         0.418574   
    123. A(C  17,C  18,S  22)          124.6971         0.426911   
    124. A(C  20,C  18,S  22)          112.8443         0.444636   
    125. A(C  18,C  20,C  21)          110.5574         0.425827   
    126. A(C  18,C  20,H  24)          120.5535         0.340083   
    127. A(C  21,C  20,H  24)          126.5275         0.332819   
    128. A(C  20,C  21,H  25)          123.6954         0.348039   
    129. A(C  23,C  21,H  25)          123.1224         0.362439   
    130. A(C  20,C  21,C  23)          113.1000         0.434265   
    131. A(C  18,S  22,C  23)           91.0399         0.451479   
    132. A(C  21,C  23,H  26)          127.9000         0.362595   
    133. A(S  22,C  23,H  26)          119.6495         0.361045   
    134. A(C  21,C  23,S  22)          112.4324         0.451392   
    135. A(Ir  0,O  31,C  32)          126.8602         0.354586   
    136. A(O  30,C  32,O  31)          124.4510         0.490769   
    137. A(O  30,C  32,C  33)          121.4859         0.438773   
    138. A(O  31,C  32,C  33)          114.0460         0.418009   
    139. A(C  32,C  33,H  34)          110.5533         0.330117   
    140. A(C  32,C  33,H  35)          109.1207         0.329098   
    141. A(H  34,C  33,H  35)          107.8165         0.291115   
    142. A(C  32,C  33,H  36)          111.9866         0.329822   
    143. A(H  34,C  33,H  36)          110.0292         0.291725   
    144. A(H  35,C  33,H  36)          107.1844         0.290868   
    145. D(C   2,C   1,Ir  0,C   4)    119.1907         0.001708   
    146. D(C   2,C   1,Ir  0,C   5)     39.1992         0.001708   
    147. D(H  27,C   1,Ir  0,O  31)     98.8756         0.001708   
    148. D(C   4,C   1,Ir  0,C   2)   -119.1907         0.001708   
    149. D(C   2,C   1,Ir  0,O  31)    -20.4720         0.001708   
    150. D(H  27,C   1,Ir  0,C   3)   -159.3812         0.001708   
    151. D(C   4,C   1,Ir  0,O  31)   -139.6627         0.001708   
    152. D(H  27,C   1,Ir  0,C   2)    119.3476         0.001708   
    153. D(C   4,C   1,Ir  0,C   3)    -37.9195         0.001708   
    154. D(H  27,C   1,Ir  0,N   6)      1.0975         0.001708   
    155. D(C   2,C   1,Ir  0,C   3)     81.2712         0.001708   
    156. D(C   4,C   1,Ir  0,N   6)    122.5592         0.001708   
    157. D(H  27,C   1,Ir  0,C   4)   -121.4617         0.001708   
    158. D(H  27,C   1,Ir  0,C   5)    158.5468         0.001708   
    159. D(C   4,C   1,Ir  0,C   5)    -79.9915         0.001708   
    160. D(C   2,C   1,Ir  0,N   6)   -118.2501         0.001708   
    161. D(Ir  0,C   2,C   1,H  27)   -117.0725         0.020725   
    162. D(C   1,C   2,Ir  0,C   5)   -115.3515         0.001810   
    163. D(C   1,C   2,Ir  0,C   4)    -36.1539         0.001810   
    164. D(H  28,C   2,C   1,H  27)      5.0967         0.020725   
    165. D(H  28,C   2,C   1,Ir  0)    122.1692         0.020725   
    166. D(C   5,C   2,C   1,H  27)    178.3259         0.020725   
    167. D(C   1,C   2,Ir  0,C   3)    -79.2715         0.001810   
    168. D(H  28,C   2,Ir  0,C   4)   -158.8486         0.001810   
    169. D(H  28,C   2,Ir  0,C   5)    121.9538         0.001810   
    170. D(C   5,C   2,Ir  0,C   3)     36.0801         0.001810   
    171. D(C   5,C   2,Ir  0,C   1)    115.3515         0.001810   
    172. D(H  28,C   2,C   1,C   4)   -177.2789         0.020725   
    173. D(C   5,C   2,Ir  0,C   4)     79.1976         0.001810   
    174. D(C   5,C   2,C   1,Ir  0)    -64.6016         0.020725   
    175. D(H  28,C   2,Ir  0,N   6)    -47.9122         0.001810   
    176. D(H  28,C   2,Ir  0,O  31)     44.8258         0.001810   
    177. D(Ir  0,C   2,C   1,C   4)     60.5519         0.020725   
    178. D(C   5,C   2,C   1,C   4)     -4.0497         0.020725   
    179. D(C   1,C   2,Ir  0,N   6)     74.7825         0.001810   
    180. D(C   5,C   2,Ir  0,O  31)    -77.1280         0.001810   
    181. D(H  28,C   2,Ir  0,C   1)   -122.6947         0.001810   
    182. D(C   1,C   2,Ir  0,O  31)    167.5205         0.001810   
    183. D(H  28,C   2,Ir  0,C   3)    158.0339         0.001810   
    184. D(C   5,C   2,Ir  0,N   6)   -169.8659         0.001810   
    185. D(C   4,C   3,Ir  0,C   5)    118.2535         0.001697   
    186. D(C   4,C   3,Ir  0,C   1)     36.8587         0.001697   
    187. D(C   4,C   3,Ir  0,O  31)    175.8934         0.001697   
    188. D(C   4,C   3,Ir  0,C   2)     80.8263         0.001697   
    189. D(C   5,C   3,Ir  0,O  31)     57.6399         0.001697   
    190. D(C   5,C   3,Ir  0,C   2)    -37.4272         0.001697   
    191. D(C   4,C   3,Ir  0,N   6)    -18.7302         0.001697   
    192. D(H  37,C   3,Ir  0,C   4)    120.5926         0.001697   
    193. D(H  37,C   3,Ir  0,C   1)    157.4513         0.001697   
    194. D(C   5,C   3,Ir  0,C   1)    -81.3948         0.001697   
    195. D(C   5,C   3,Ir  0,C   4)   -118.2535         0.001697   
    196. D(C   5,C   3,Ir  0,N   6)   -136.9837         0.001697   
    197. D(H  37,C   3,Ir  0,C   5)   -121.1539         0.001697   
    198. D(H  37,C   3,Ir  0,N   6)    101.8624         0.001697   
    199. D(H  37,C   3,Ir  0,O  31)    -63.5140         0.001697   
    200. D(H  37,C   3,Ir  0,C   2)   -158.5811         0.001697   
    201. D(C   1,C   4,Ir  0,C   3)    118.1975         0.001692   
    202. D(H  38,C   4,C   3,H  37)      0.6596         0.020475   
    203. D(C   1,C   4,Ir  0,C   5)     81.3760         0.001692   
    204. D(C   1,C   4,Ir  0,N   6)    -70.1482         0.001692   
    205. D(C   1,C   4,Ir  0,O  31)    109.2221         0.001692   
    206. D(C   1,C   4,Ir  0,C   2)     37.7692         0.001692   
    207. D(C   3,C   4,Ir  0,C   1)   -118.1975         0.001692   
    208. D(H  38,C   4,C   3,C   5)   -179.4581         0.020475   
    209. D(C   3,C   4,Ir  0,C   5)    -36.8215         0.001692   
    210. D(C   3,C   4,Ir  0,N   6)    171.6543         0.001692   
    211. D(C   3,C   4,Ir  0,O  31)     -8.9753         0.001692   
    212. D(Ir  0,C   4,C   1,C   2)    -58.4711         0.028167   
    213. D(H  38,C   4,Ir  0,C   2)    159.0704         0.001692   
    214. D(H  38,C   4,Ir  0,C   3)   -120.5013         0.001692   
    215. D(H  38,C   4,C   1,C   2)   -177.8813         0.028167   
    216. D(H  38,C   4,Ir  0,N   6)     51.1530         0.001692   
    217. D(H  38,C   4,Ir  0,O  31)   -129.4766         0.001692   
    218. D(Ir  0,C   4,C   1,H  27)    119.1478         0.028167   
    219. D(C   3,C   4,C   1,Ir  0)     60.7615         0.028167   
    220. D(C   3,C   4,C   1,H  27)    179.9093         0.028167   
    221. D(H  38,C   4,C   1,Ir  0)   -119.4102         0.028167   
    222. D(H  38,C   4,Ir  0,C   5)   -157.3228         0.001692   
    223. D(H  38,C   4,C   1,H  27)     -0.2624         0.028167   
    224. D(Ir  0,C   4,C   3,C   5)     61.3068         0.020475   
    225. D(Ir  0,C   4,C   3,H  37)   -118.5755         0.020475   
    226. D(C   3,C   4,C   1,C   2)      2.2904         0.028167   
    227. D(C   1,C   4,C   3,C   5)      0.3712         0.020475   
    228. D(C   1,C   4,C   3,H  37)   -179.5111         0.020475   
    229. D(H  38,C   4,C   3,Ir  0)    119.2350         0.020475   
    230. D(H  38,C   4,Ir  0,C   1)    121.3012         0.001692   
    231. D(C   1,C   4,C   3,Ir  0)    -60.9356         0.020475   
    232. D(C   3,C   4,Ir  0,C   2)    -80.4283         0.001692   
    233. D(C   2,C   5,Ir  0,C   1)    -39.4913         0.001700   
    234. D(H  29,C   5,C   3,C   4)   -177.5812         0.028152   
    235. D(C   2,C   5,Ir  0,C   4)    -81.5727         0.001700   
    236. D(C   2,C   5,Ir  0,N   6)     21.4839         0.001700   
    237. D(C   2,C   5,Ir  0,O  31)    109.4584         0.001700   
    238. D(C   3,C   5,Ir  0,C   1)     79.9727         0.001700   
    239. D(C   3,C   5,Ir  0,C   2)    119.4640         0.001700   
    240. D(C   3,C   5,Ir  0,C   4)     37.8913         0.001700   
    241. D(H  29,C   5,C   2,C   1)    178.9926         0.022077   
    242. D(C   3,C   5,Ir  0,O  31)   -131.0776         0.001700   
    243. D(H  29,C   5,Ir  0,C   1)   -158.6767         0.001700   
    244. D(C   3,C   5,C   2,Ir  0)    -60.0879         0.022077   
    245. D(H  29,C   5,Ir  0,C   3)    121.3506         0.001700   
    246. D(H  29,C   5,Ir  0,C   4)    159.2419         0.001700   
    247. D(H  29,C   5,Ir  0,N   6)    -97.7015         0.001700   
    248. D(H  29,C   5,Ir  0,O  31)     -9.7270         0.001700   
    249. D(Ir  0,C   5,C   2,C   1)     64.3639         0.022077   
    250. D(H  29,C   5,Ir  0,C   2)   -119.1854         0.001700   
    251. D(Ir  0,C   5,C   2,H  28)   -122.3389         0.022077   
    252. D(C   3,C   5,C   2,C   1)      4.2760         0.022077   
    253. D(C   3,C   5,C   2,H  28)    177.5732         0.022077   
    254. D(C   3,C   5,Ir  0,N   6)    140.9479         0.001700   
    255. D(H  29,C   5,C   2,Ir  0)    114.6288         0.022077   
    256. D(H  29,C   5,C   2,H  28)     -7.7101         0.022077   
    257. D(Ir  0,C   5,C   3,C   4)    -61.0847         0.028152   
    258. D(Ir  0,C   5,C   3,H  37)    118.7971         0.028152   
    259. D(C   2,C   5,C   3,Ir  0)     58.1858         0.028152   
    260. D(C   2,C   5,C   3,C   4)     -2.8989         0.028152   
    261. D(C   2,C   5,C   3,H  37)    176.9829         0.028152   
    262. D(C   2,C   5,Ir  0,C   3)   -119.4640         0.001700   
    263. D(H  29,C   5,C   3,Ir  0)   -116.4965         0.028152   
    264. D(H  29,C   5,C   3,H  37)      2.3007         0.028152   
    265. D(C  17,N   6,Ir  0,C   1)    -93.4877         0.001769   
    266. D(C   7,N   6,Ir  0,C   2)     46.2797         0.001769   
    267. D(C   7,N   6,Ir  0,C   3)    134.4774         0.001769   
    268. D(C   7,N   6,Ir  0,C   4)    121.1903         0.001769   
    269. D(C   7,N   6,Ir  0,C   5)     31.2620         0.001769   
    270. D(C   7,N   6,Ir  0,C   1)     85.1179         0.001769   
    271. D(C   7,N   6,Ir  0,O  31)    -58.5516         0.001769   
    272. D(C  17,N   6,Ir  0,C   2)   -132.3259         0.001769   
    273. D(C  17,N   6,Ir  0,C   3)    -44.1281         0.001769   
    274. D(C  17,N   6,Ir  0,C   4)    -57.4153         0.001769   
    275. D(C  17,N   6,Ir  0,C   5)   -147.3436         0.001769   
    276. D(C  17,N   6,Ir  0,O  31)    122.8428         0.001769   
    277. D(C   8,C   7,N   6,Ir  0)    161.0929         0.014705   
    278. D(C   8,C   7,N   6,C  17)    -20.4344         0.014705   
    279. D(C  12,C   7,N   6,Ir  0)    -73.2701         0.014705   
    280. D(C  12,C   7,N   6,C  17)    105.2026         0.014705   
    281. D(H  13,C   7,N   6,Ir  0)     42.9987         0.014705   
    282. D(H  13,C   7,N   6,C  17)   -138.5285         0.014705   
    283. D(H   9,C   8,C   7,N   6)   -170.7322         0.011974   
    284. D(H   9,C   8,C   7,C  12)     64.7894         0.011974   
    285. D(H   9,C   8,C   7,H  13)    -54.8678         0.011974   
    286. D(H  10,C   8,C   7,N   6)     71.2131         0.011974   
    287. D(H  10,C   8,C   7,C  12)    -53.2653         0.011974   
    288. D(H  10,C   8,C   7,H  13)   -172.9224         0.011974   
    289. D(H  11,C   8,C   7,N   6)    -52.3082         0.011974   
    290. D(H  11,C   8,C   7,C  12)   -176.7866         0.011974   
    291. D(H  11,C   8,C   7,H  13)     63.5563         0.011974   
    292. D(H  14,C  12,C   7,N   6)    176.6716         0.011657   
    293. D(H  14,C  12,C   7,C   8)    -56.6062         0.011657   
    294. D(H  14,C  12,C   7,H  13)     62.9548         0.011657   
    295. D(H  15,C  12,C   7,N   6)    -64.2783         0.011657   
    296. D(H  15,C  12,C   7,C   8)     62.4439         0.011657   
    297. D(H  15,C  12,C   7,H  13)   -177.9950         0.011657   
    298. D(H  16,C  12,C   7,N   6)     57.7630         0.011657   
    299. D(H  16,C  12,C   7,C   8)   -175.5148         0.011657   
    300. D(H  16,C  12,C   7,H  13)    -55.9538         0.011657   
    301. D(C  18,C  17,N   6,Ir  0)     -8.7169         0.063101   
    302. D(C  18,C  17,N   6,C   7)    172.6608         0.063101   
    303. D(H  19,C  17,N   6,Ir  0)    173.5106         0.063101   
    304. D(H  19,C  17,N   6,C   7)     -5.1117         0.063101   
    305. D(C  20,C  18,C  17,N   6)    -44.0701         0.017052   
    306. D(C  20,C  18,C  17,H  19)    133.7275         0.017052   
    307. D(S  22,C  18,C  17,N   6)    134.0133         0.017052   
    308. D(S  22,C  18,C  17,H  19)    -48.1891         0.017052   
    309. D(C  21,C  20,C  18,C  17)    176.5586         0.029620   
    310. D(C  21,C  20,C  18,S  22)     -1.7316         0.029620   
    311. D(H  24,C  20,C  18,C  17)    -19.7908         0.029620   
    312. D(H  24,C  20,C  18,S  22)    161.9190         0.029620   
    313. D(C  23,C  21,C  20,C  18)      1.1553         0.022530   
    314. D(C  23,C  21,C  20,H  24)   -161.2869         0.022530   
    315. D(H  25,C  21,C  20,C  18)    177.9457         0.022530   
    316. D(H  25,C  21,C  20,H  24)     15.5034         0.022530   
    317. D(C  23,S  22,C  18,C  17)   -176.7950         0.005507   
    318. D(C  23,S  22,C  18,C  20)      1.4497         0.005507   
    319. D(S  22,C  23,C  21,C  20)     -0.0828         0.034468   
    320. D(S  22,C  23,C  21,H  25)   -176.8943         0.034468   
    321. D(H  26,C  23,C  21,C  20)    178.3475         0.034468   
    322. D(H  26,C  23,C  21,H  25)      1.5361         0.034468   
    323. D(C  21,C  23,S  22,C  18)     -0.7687         0.005292   
    324. D(H  26,C  23,S  22,C  18)   -179.3436         0.005292   
    325. D(C  32,O  31,Ir  0,C   1)   -172.2864         0.001953   
    326. D(C  32,O  31,Ir  0,C   2)    174.3492         0.001953   
    327. D(C  32,O  31,Ir  0,C   3)    104.7567         0.001953   
    328. D(C  32,O  31,Ir  0,C   4)    111.0878         0.001953   
    329. D(C  32,O  31,Ir  0,C   5)    136.0859         0.001953   
    330. D(C  32,O  31,Ir  0,N   6)    -69.4675         0.001953   
    331. D(O  30,C  32,O  31,Ir  0)      1.5050         0.047435   
    332. D(C  33,C  32,O  31,Ir  0)   -177.0053         0.047435   
    333. D(H  34,C  33,C  32,O  30)     21.9927         0.012501   
    334. D(H  34,C  33,C  32,O  31)   -159.4478         0.012501   
    335. D(H  35,C  33,C  32,O  30)    -96.4213         0.012501   
    336. D(H  35,C  33,C  32,O  31)     82.1382         0.012501   
    337. D(H  36,C  33,C  32,O  30)    145.0760         0.012501   
    338. D(H  36,C  33,C  32,O  31)    -36.3645         0.012501   
    -----------------------------------------------------------------

Number of atoms                         .... 39
Number of degrees of freedom            .... 338

         *************************************************************
         *                GEOMETRY OPTIMIZATION CYCLE   1            *
         *************************************************************
---------------------------------
CARTESIAN COORDINATES (ANGSTROEM)
---------------------------------
  Ir     0.580635   -0.729861    0.471309
  C      0.032042   -2.811119    0.329865
  C      0.121176   -2.370293    1.702611
  C      2.199095   -2.140386    0.743564
  C      1.292304   -2.639971   -0.266171
  C      1.491158   -2.017507    1.950574
  N     -1.037938    0.182341   -0.511624
  C     -2.307547    0.530388    0.145223
  C     -3.124435    1.560278   -0.617315
  H     -3.956064    1.881574    0.008205
  H     -3.561755    1.162307   -1.534530
  H     -2.541202    2.449034   -0.860473
  C     -3.107928   -0.738439    0.410934
  H     -2.012919    0.963333    1.102719
  H     -4.020345   -0.487534    0.949673
  H     -3.395717   -1.227791   -0.520569
  H     -2.558240   -1.451359    1.024065
  C     -0.822413    0.382219   -1.752387
  C      0.531126    0.138956   -2.213139
  H     -1.591980    0.749149   -2.425723
  C      1.647103    0.573684   -1.509452
  C      2.842604    0.131878   -2.145191
  S      0.936260   -0.735907   -3.626030
  C      2.611637   -0.575683   -3.282579
  H      1.556110    1.418872   -0.729846
  H      3.834139    0.377642   -1.794013
  H      3.338409   -0.998186   -3.959836
  H     -0.860210   -3.170096   -0.162577
  H     -0.664453   -2.409746    2.443161
  H      1.883027   -1.635039    2.882110
  O      1.230004    2.459849    0.278802
  O      0.545749    0.879131    1.696940
  C      0.870547    2.097372    1.391340
  C      0.804779    3.057521    2.547244
  H      0.726789    4.080584    2.189417
  H      1.723436    2.977145    3.131606
  H     -0.022897    2.832810    3.216900
  H      3.241436   -1.901541    0.591916
  H      1.545848   -2.846418   -1.295987

----------------------------
CARTESIAN COORDINATES (A.U.)
----------------------------
  NO LB      ZA    FRAG     MASS         X           Y           Z
   0 Ir   17.0000*   0   192.220    1.097242   -1.379238    0.890646
   1 C     6.0000    0    12.011    0.060551   -5.312245    0.623355
   2 C     6.0000    0    12.011    0.228990   -4.479204    3.217469
   3 C     6.0000    0    12.011    4.155688   -4.044744    1.405133
   4 C     6.0000    0    12.011    2.442100   -4.988823   -0.502990
   5 C     6.0000    0    12.011    2.817880   -3.812536    3.686050
   6 N     7.0000    0    14.007   -1.961419    0.344574   -0.966828
   7 C     6.0000    0    12.011   -4.360632    1.002288    0.274432
   8 C     6.0000    0    12.011   -5.904327    2.948499   -1.166556
   9 H     1.0000    0     1.008   -7.475878    3.555659    0.015506
  10 H     1.0000    0     1.008   -6.730742    2.196442   -2.899841
  11 H     1.0000    0     1.008   -4.802176    4.628004   -1.626059
  12 C     6.0000    0    12.011   -5.873133   -1.395448    0.776554
  13 H     1.0000    0     1.008   -3.803866    1.820435    2.083837
  14 H     1.0000    0     1.008   -7.597352   -0.921306    1.794621
  15 H     1.0000    0     1.008   -6.416975   -2.320189   -0.983732
  16 H     1.0000    0     1.008   -4.834373   -2.742671    1.935203
  17 C     6.0000    0    12.011   -1.554135    0.722290   -3.311532
  18 C     6.0000    0    12.011    1.003682    0.262588   -4.182226
  19 H     1.0000    0     1.008   -3.008407    1.415686   -4.583952
  20 C     6.0000    0    12.011    3.112574    1.084105   -2.852452
  21 C     6.0000    0    12.011    5.371743    0.249213   -4.053823
  22 S    16.0000    0    32.060    1.769276   -1.390663   -6.852203
  23 C     6.0000    0    12.011    4.935279   -1.087883   -6.203176
  24 H     1.0000    0     1.008    2.940621    2.681280   -1.379208
  25 H     1.0000    0     1.008    7.245473    0.713640   -3.390194
  26 H     1.0000    0     1.008    6.308679   -1.886299   -7.483005
  27 H     1.0000    0     1.008   -1.625561   -5.990613   -0.307226
  28 H     1.0000    0     1.008   -1.255634   -4.553759    4.616906
  29 H     1.0000    0     1.008    3.558405   -3.089776    5.446399
  30 O     8.0000    0    15.999    2.324371    4.648441    0.526859
  31 O     8.0000    0    15.999    1.031316    1.661317    3.206752
  32 C     6.0000    0    12.011    1.645095    3.963460    2.629252
  33 C     6.0000    0    12.011    1.520811    5.777877    4.813594
  34 H     1.0000    0     1.008    1.373433    7.711186    4.137399
  35 H     1.0000    0     1.008    3.256823    5.625988    5.917878
  36 H     1.0000    0     1.008   -0.043270    5.353236    6.079060
  37 H     1.0000    0     1.008    6.125427   -3.593392    1.118559
  38 H     1.0000    0     1.008    2.921230   -5.378950   -2.449061
* core charge reduced due to ECP

--------------------------------
INTERNAL COORDINATES (ANGSTROEM)
--------------------------------
 Ir     0   0   0     0.000000000000     0.00000000     0.00000000
 C      1   0   0     2.156962862619     0.00000000     0.00000000
 C      2   1   0     1.444571296556    68.13229516     0.00000000
 C      1   2   3     2.164036057208    64.50531511    81.27060819
 C      2   1   3     1.404635230205    71.46023572   240.80957062
 C      4   1   2     1.404704432891    70.98374613   278.60468645
 N      1   2   3     2.101802112642   101.08151517   241.75150248
 C      7   1   2     1.471221213588   123.95199785    85.13453177
 C      8   7   1     1.519685556479   113.58909286   161.09278148
 H      9   8   7     1.089088368238   108.79602114   189.26777770
 H      9   8   7     1.091289391985   112.95463184    71.21314449
 H      9   8   7     1.090492289608   112.13066705   307.69183789
 C      8   7   1     1.523526765083   109.52390794   286.72978854
 H      8   7   1     1.091350050817   104.63038167    42.99862171
 H     13   8   7     1.088897275261   109.54768238   176.67155730
 H     13   8   7     1.090864412575   111.30086746   295.72173817
 H     13   8   7     1.089192633704   112.21987256    57.76299666
 C      7   1   2     1.275164117826   113.12662063   266.52857390
 C     18   7   1     1.450463759292   116.16086826   351.35400162
 H     18   7   1     1.086394047074   122.42154158   173.54441791
 C     19  18   7     1.388976963949   122.47983974   315.93401803
 C     21  19  18     1.424283856933   110.56612544   176.55081829
 S     19  18   7     1.710530902985   124.66221801   134.00426021
 C     22  21  19     1.359219186359   113.10034607     1.15329227
 H     21  19  18     1.153038508239   120.55494693   340.19992228
 H     22  21  19     1.080214680317   123.69522020   177.94496591
 H     24  22  21     1.079527016851   127.90263927   178.34865776
 H      2   1   3     1.080498582789   124.08907412   119.34711851
 H      3   2   1     1.080362994408   126.53987971   122.16920225
 H      6   4   1     1.080557123284   126.08361242   243.50301591
 O     25  21  19     1.499999998001   171.56964653    19.85554760
 O      1   2   3     2.023315994764   143.39041096   339.53211636
 C     31  25  21     1.223870134836   118.01707986    67.90707404
 C     33  31  25     1.504092867337   121.45736843   166.75408422
 H     34  33  31     1.086630859057   110.55326381    21.99058340
 H     34  33  31     1.091728405108   109.12065173   263.57654014
 H     34  33  31     1.088103188628   111.98652940   145.07360284
 H      4   1   2     1.080055133148   124.05380359   157.45203533
 H      5   2   1     1.080475208855   126.28170463   240.58995130

---------------------------
INTERNAL COORDINATES (A.U.)
---------------------------
 Ir     0   0   0     0.000000000000     0.00000000     0.00000000
 C      1   0   0     4.076069091390     0.00000000     0.00000000
 C      2   1   0     2.729844131414    68.13229516     0.00000000
 C      1   2   3     4.089435492053    64.50531511    81.27060819
 C      2   1   3     2.654375903145    71.46023572   240.80957062
 C      4   1   2     2.654506677269    70.98374613   278.60468645
 N      1   2   3     3.971830380591   101.08151517   241.75150248
 C      7   1   2     2.780205176096   123.95199785    85.13453177
 C      8   7   1     2.871789511420   113.58909286   161.09278148
 H      9   8   7     2.058078751608   108.79602114   189.26777770
 H      9   8   7     2.062238083705   112.95463184    71.21314449
 H      9   8   7     2.060731778512   112.13066705   307.69183789
 C      8   7   1     2.879048343706   109.52390794   286.72978854
 H      8   7   1     2.062352712285   104.63038167    42.99862171
 H     13   8   7     2.057717638215   109.54768238   176.67155730
 H     13   8   7     2.061434989008   111.30086746   295.72173817
 H     13   8   7     2.058275784784   112.21987256    57.76299666
 C      7   1   2     2.409710958494   113.12662063   266.52857390
 C     18   7   1     2.740979272239   116.16086826   351.35400162
 H     18   7   1     2.052987222492   122.42154158   173.54441791
 C     19  18   7     2.624786068190   122.47983974   315.93401803
 C     21  19  18     2.691506426568   110.56612544   176.55081829
 S     19  18   7     3.232434950251   124.66221801   134.00426021
 C     22  21  19     2.568552018191   113.10034607     1.15329227
 H     21  19  18     2.178927002437   120.55494693   340.19992228
 H     22  21  19     2.041309911640   123.69522020   177.94496591
 H     24  22  21     2.040010416017   127.90263927   178.34865776
 H      2   1   3     2.041846409561   124.08907412   119.34711851
 H      3   2   1     2.041590184655   126.53987971   122.16920225
 H      6   4   1     2.041957035065   126.08361242   243.50301591
 O     25  21  19     2.834589197103   171.56964653    19.85554760
 O      1   2   3     3.823513112487   143.39041096   339.53211636
 C     31  25  21     2.312779378325   118.01707986    67.90707404
 C     33  31  25     2.842323599252   121.45736843   166.75408422
 H     34  33  31     2.053434732284   110.55326381    21.99058340
 H     34  33  31     2.063067698277   109.12065173   263.57654014
 H     34  33  31     2.056217031954   111.98652940   145.07360284
 H      4   1   2     2.041008411186   124.05380359   157.45203533
 H      5   2   1     2.041802239226   126.28170463   240.58995130

---------------------
BASIS SET INFORMATION
---------------------
There are 6 groups of distinct atoms

 Group   1 Type Ir  : 7s6p5d1f contracted to 6s3p2d1f pattern {211111/411/41/1}
 Group   2 Type C   : 8s4p1d contracted to 4s2p1d pattern {5111/31/1}
 Group   3 Type N   : 8s4p1d contracted to 4s2p1d pattern {5111/31/1}
 Group   4 Type H   : 4s contracted to 2s pattern {31}
 Group   5 Type S   : 10s7p1d contracted to 4s3p1d pattern {5311/511/1}
 Group   6 Type O   : 8s4p1d contracted to 4s2p1d pattern {5111/31/1}

Atom   0Ir   basis set group =>   1
Atom   1C    basis set group =>   2
Atom   2C    basis set group =>   2
Atom   3C    basis set group =>   2
Atom   4C    basis set group =>   2
Atom   5C    basis set group =>   2
Atom   6N    basis set group =>   3
Atom   7C    basis set group =>   2
Atom   8C    basis set group =>   2
Atom   9H    basis set group =>   4
Atom  10H    basis set group =>   4
Atom  11H    basis set group =>   4
Atom  12C    basis set group =>   2
Atom  13H    basis set group =>   4
Atom  14H    basis set group =>   4
Atom  15H    basis set group =>   4
Atom  16H    basis set group =>   4
Atom  17C    basis set group =>   2
Atom  18C    basis set group =>   2
Atom  19H    basis set group =>   4
Atom  20C    basis set group =>   2
Atom  21C    basis set group =>   2
Atom  22S    basis set group =>   5
Atom  23C    basis set group =>   2
Atom  24H    basis set group =>   4
Atom  25H    basis set group =>   4
Atom  26H    basis set group =>   4
Atom  27H    basis set group =>   4
Atom  28H    basis set group =>   4
Atom  29H    basis set group =>   4
Atom  30O    basis set group =>   6
Atom  31O    basis set group =>   6
Atom  32C    basis set group =>   2
Atom  33C    basis set group =>   2
Atom  34H    basis set group =>   4
Atom  35H    basis set group =>   4
Atom  36H    basis set group =>   4
Atom  37H    basis set group =>   4
Atom  38H    basis set group =>   4
---------------------------------
AUXILIARY/J BASIS SET INFORMATION
---------------------------------
There are 6 groups of distinct atoms

 Group   1 Type Ir  : 11s5p5d3f3g contracted to 8s5p5d2f3g pattern {41111111/11111/11111/21/111}
 Group   2 Type C   : 12s5p4d2f1g contracted to 6s4p3d1f1g pattern {711111/2111/211/2/1}
 Group   3 Type N   : 12s5p4d2f1g contracted to 6s4p3d1f1g pattern {711111/2111/211/2/1}
 Group   4 Type H   : 5s2p1d contracted to 3s1p1d pattern {311/2/1}
 Group   5 Type S   : 14s5p5d2f1g contracted to 8s4p3d1f1g pattern {71111111/2111/311/2/1}
 Group   6 Type O   : 12s5p4d2f1g contracted to 6s4p3d1f1g pattern {711111/2111/211/2/1}

Atom   0Ir   basis set group =>   1
Atom   1C    basis set group =>   2
Atom   2C    basis set group =>   2
Atom   3C    basis set group =>   2
Atom   4C    basis set group =>   2
Atom   5C    basis set group =>   2
Atom   6N    basis set group =>   3
Atom   7C    basis set group =>   2
Atom   8C    basis set group =>   2
Atom   9H    basis set group =>   4
Atom  10H    basis set group =>   4
Atom  11H    basis set group =>   4
Atom  12C    basis set group =>   2
Atom  13H    basis set group =>   4
Atom  14H    basis set group =>   4
Atom  15H    basis set group =>   4
Atom  16H    basis set group =>   4
Atom  17C    basis set group =>   2
Atom  18C    basis set group =>   2
Atom  19H    basis set group =>   4
Atom  20C    basis set group =>   2
Atom  21C    basis set group =>   2
Atom  22S    basis set group =>   5
Atom  23C    basis set group =>   2
Atom  24H    basis set group =>   4
Atom  25H    basis set group =>   4
Atom  26H    basis set group =>   4
Atom  27H    basis set group =>   4
Atom  28H    basis set group =>   4
Atom  29H    basis set group =>   4
Atom  30O    basis set group =>   6
Atom  31O    basis set group =>   6
Atom  32C    basis set group =>   2
Atom  33C    basis set group =>   2
Atom  34H    basis set group =>   4
Atom  35H    basis set group =>   4
Atom  36H    basis set group =>   4
Atom  37H    basis set group =>   4
Atom  38H    basis set group =>   4
-------------------------
ECP PARAMETER INFORMATION
-------------------------

 Group 1, Type Ir ECP Def2-ECP (replacing 60 core electrons, lmax=3)

Atom   0Ir   ECP group =>   1



           ************************************************************
           *        Program running with 4 parallel MPI-processes     *
           *              working on a common directory               *
           ************************************************************
------------------------------------------------------------------------------
                           ORCA GTO INTEGRAL CALCULATION
                           -- RI-GTO INTEGRALS CHOSEN --
------------------------------------------------------------------------------
------------------------------------------------------------------------------
                   ___                                                        
                  /   \      - P O W E R E D   B Y -                         
                 /     \                                                     
                 |  |  |   _    _      __       _____    __    __             
                 |  |  |  | |  | |    /  \     |  _  \  |  |  /  |          
                  \  \/   | |  | |   /    \    | | | |  |  | /  /          
                 / \  \   | |__| |  /  /\  \   | |_| |  |  |/  /          
                |  |  |   |  __  | /  /__\  \  |    /   |      \           
                |  |  |   | |  | | |   __   |  |    \   |  |\   \          
                \     /   | |  | | |  |  |  |  | |\  \  |  | \   \       
                 \___/    |_|  |_| |__|  |__|  |_| \__\ |__|  \__/        
                                                                              
                      - O R C A' S   B I G   F R I E N D -                    
                                      &                                       
                       - I N T E G R A L  F E E D E R -                       
                                                                              
 v1 FN, 2020, v2 2021                                                         
------------------------------------------------------------------------------


Reading SHARK input file reaction4-IEIP_ts_guess_scan_0-1_orca.SHARKINP.tmp ... ok
----------------------
SHARK INTEGRAL PACKAGE
----------------------

Number of atoms                             ...     39
Number of basis functions                   ...    358
Number of shells                            ...    184
Maximum angular momentum                    ...      3
Integral batch strategy                     ... SHARK/LIBINT Hybrid
RI-J (if used) integral strategy            ... SPLIT-RIJ (Revised 2003 algorithm where possible)
Printlevel                                  ...      1
Contraction scheme used                     ... SEGMENTED contraction
Coulomb Range Separation                    ... NOT USED
Exchange Range Separation                   ... NOT USED
Finite Nucleus Model                        ... NOT USED
Auxiliary Coulomb fitting basis             ... AVAILABLE
   # of basis functions in Aux-J            ...   1231
   # of shells in Aux-J                     ...    405
   Maximum angular momentum in Aux-J        ...      4
Auxiliary J/K fitting basis                 ... NOT available
Auxiliary Correlation fitting basis         ... NOT available
Auxiliary 'external' fitting basis          ... NOT available
Integral threshold                          ...     2.500000e-11
Primitive cut-off                           ...     2.500000e-12
Primitive pair pre-selection threshold      ...     2.500000e-12

Calculating pre-screening integrals         ... done (  0.1 sec) Dimension = 184
Organizing shell pair data                  ... done (  0.1 sec)
Shell pair information
Total number of shell pairs                 ...     17020
Shell pairs after pre-screening             ...     12973
Total number of primitive shell pairs       ...     60705
Primitive shell pairs kept                  ...     29198
          la=0 lb=0:   4970 shell pairs
          la=1 lb=0:   4253 shell pairs
          la=1 lb=1:    857 shell pairs
          la=2 lb=0:   1751 shell pairs
          la=2 lb=1:    786 shell pairs
          la=2 lb=2:    179 shell pairs
          la=3 lb=0:    113 shell pairs
          la=3 lb=1:     42 shell pairs
          la=3 lb=2:     21 shell pairs
          la=3 lb=3:      1 shell pairs

Calculating one electron integrals          ... done (  0.0 sec)
Calculating ECP integrals                   ... done (  0.8 sec)
Calculating RI/J V-Matrix + Cholesky decomp.... done (  0.1 sec)
Calculating Nuclear repulsion               ... done (  0.0 sec) ENN=   2037.726904208654 Eh

SHARK setup successfully completed in   1.3 seconds

Maximum memory used throughout the entire GTOINT-calculation: 27.1 MB


           ************************************************************
           *        Program running with 4 parallel MPI-processes     *
           *              working on a common directory               *
           ************************************************************
-------------------------------------------------------------------------------
                                 ORCA SCF
-------------------------------------------------------------------------------

------------
SCF SETTINGS
------------
Hamiltonian:
 Density Functional     Method          .... DFT(GTOs)
 Exchange Functional    Exchange        .... PBE
   PBE kappa parameter   XKappa         ....  1.024500
   PBE mue parameter    XMuePBE         ....  0.123457
 Correlation Functional Correlation     .... PBE
   PBE beta parameter  CBetaPBE         ....  0.030000
 LDA part of GGA corr.  LDAOpt          .... PW91-LDA
 Gradients option       PostSCFGGA      .... off
 Hybrid DFT is turned on
   Fraction HF Exchange ScalHFX         ....  0.420000
   Scaling of DF-GGA-X  ScalDFX         ....  0.580000
   Scaling of DF-GGA-C  ScalDFC         ....  1.000000
   Scaling of DF-LDA-C  ScalLDAC        ....  1.000000
   Perturbative correction              ....  0.000000
   Density functional embedding theory  .... OFF
 RI-approximation to the Coulomb term is turned on
   Number of AuxJ basis functions       .... 1231
   RIJ-ON(X) (HFX calculated with O(N)) .... on
   Number of AuxJ basis functions       .... 1231
   RIJ-COSX (HFX calculated with COS-X)).... on


General Settings:
 Integral files         IntName         .... reaction4-IEIP_ts_guess_scan_0-1_orca
 Hartree-Fock type      HFTyp           .... RHF
 Total Charge           Charge          ....    1
 Multiplicity           Mult            ....    1
 Number of Electrons    NEL             ....  164
 Basis Dimension        Dim             ....  358
 Nuclear Repulsion      ENuc            ....   2037.7269042087 Eh

Convergence Acceleration:
 DIIS                   CNVDIIS         .... on
   Start iteration      DIISMaxIt       ....    12
   Startup error        DIISStart       ....  0.200000
   # of expansion vecs  DIISMaxEq       ....     5
   Bias factor          DIISBfac        ....   1.050
   Max. coefficient     DIISMaxC        ....  10.000
 Trust-Rad. Augm. Hess. CNVTRAH         .... auto
   Auto Start mean grad. ratio tolernc. ....  1.125000
   Auto Start start iteration           ....    20
   Auto Start num. interpolation iter.  ....    10
   Max. Number of Micro iterations      ....    16
   Max. Number of Macro iterations      .... Maxiter - #DIIS iter
   Number of Davidson start vectors     ....     2
   Converg. threshold I  (grad. norm)   ....   1.000e-05
   Converg. threshold II (energy diff.) ....   1.000e-08
   Grad. Scal. Fac. for Micro threshold ....   0.100
   Minimum threshold for Micro iter.    ....   0.010
   NR start threshold (gradient norm)   ....   0.001
   Initial trust radius                 ....   0.400
   Minimum AH scaling param. (alpha)    ....   1.000
   Maximum AH scaling param. (alpha)    .... 1000.000
   Orbital update algorithm             .... Taylor
   White noise on init. David. guess    .... on
   Maximum white noise                  ....   0.010
   Quad. conv. algorithm                .... NR
   COSX micro iterations for RIJONX calc.... off
 SOSCF                  CNVSOSCF        .... off
 Level Shifting         CNVShift        .... on
   Level shift para.    LevelShift      ....    0.2500
   Turn off err/grad.   ShiftErr        ....    0.0010
 Zerner damping         CNVZerner       .... off
 Static damping         CNVDamp         .... on
   Fraction old density DampFac         ....    0.7000
   Max. Damping (<1)    DampMax         ....    0.9800
   Min. Damping (>=0)   DampMin         ....    0.0000
   Turn off err/grad.   DampErr         ....    0.1000
 Fernandez-Rico         CNVRico         .... off

SCF Procedure:
 Maximum # iterations   MaxIter         ....   250
 SCF integral mode      SCFMode         .... Direct
   Integral package                     .... SHARK and LIBINT hybrid scheme
 Reset frequency        DirectResetFreq ....    20
 Integral Threshold     Thresh          ....  2.500e-11 Eh
 Primitive CutOff       TCut            ....  2.500e-12 Eh

Convergence Tolerance:
 Convergence Check Mode ConvCheckMode   .... Total+1el-Energy
 Convergence forced     ConvForced      .... 0
 Energy Change          TolE            ....  1.000e-08 Eh
 1-El. energy change                    ....  1.000e-05 Eh
 DIIS Error             TolErr          ....  5.000e-07


Diagonalization of the overlap matrix:
Smallest eigenvalue                        ... 1.046e-03
Time for diagonalization                   ...    0.029 sec
Threshold for overlap eigenvalues          ... 1.000e-08
Number of eigenvalues below threshold      ... 0
Time for construction of square roots      ...    0.013 sec
Total time needed                          ...    0.044 sec

--------------------
INITIAL GUESS: HCORE
--------------------
                      -----------------
                      INTIAL GUESS DONE 
                      -----------------
-------------------
DFT GRID GENERATION
-------------------

General Integration Accuracy     IntAcc      ... 4.159
Radial Grid Type                 RadialGrid  ... OptM3 with GC (2021)
Angular Grid (max. ang.)         AngularGrid ... 3 (Lebedev-194)
Angular grid pruning method      GridPruning ... 4 (adaptive)
Weight generation scheme         WeightScheme... Becke
Basis function cutoff            BFCut       ... 1.0000e-11
Integration weight cutoff        WCut        ... 1.0000e-14
Angular grids for H and He will be reduced by one unit
Partially contracted basis set               ... off
Rotationally invariant grid construction     ... off

Total number of grid points                  ...    93318
Total number of batches                      ...     1478
Average number of points per batch           ...       63
Average number of grid points per atom       ...     2393
Time for grid setup =    0.561 sec

--------------------
COSX GRID GENERATION
--------------------

GRIDX 1
-------
General Integration Accuracy     IntAcc      ... 3.816
Radial Grid Type                 RadialGrid  ... OptM3 with GC (2021)
Angular Grid (max. ang.)         AngularGrid ... 1 (Lebedev-50)
Angular grid pruning method      GridPruning ... 4 (adaptive)
Weight generation scheme         WeightScheme... Becke
Basis function cutoff            BFCut       ... 1.0000e-11
Integration weight cutoff        WCut        ... 1.0000e-14
Angular grids for H and He will be reduced by one unit
Partially contracted basis set               ... on
Rotationally invariant grid construction     ... off

Total number of grid points                  ...    23175
Total number of batches                      ...      381
Average number of points per batch           ...       60
Average number of grid points per atom       ...      594
UseSFitting                                  ... on

GRIDX 2
-------
General Integration Accuracy     IntAcc      ... 4.020
Radial Grid Type                 RadialGrid  ... OptM3 with GC (2021)
Angular Grid (max. ang.)         AngularGrid ... 2 (Lebedev-110)
Angular grid pruning method      GridPruning ... 4 (adaptive)
Weight generation scheme         WeightScheme... Becke
Basis function cutoff            BFCut       ... 1.0000e-11
Integration weight cutoff        WCut        ... 1.0000e-14
Angular grids for H and He will be reduced by one unit
Partially contracted basis set               ... on
Rotationally invariant grid construction     ... off

Total number of grid points                  ...    50327
Total number of batches                      ...      806
Average number of points per batch           ...       62
Average number of grid points per atom       ...     1290
UseSFitting                                  ... on

GRIDX 3
-------
General Integration Accuracy     IntAcc      ... 4.338
Radial Grid Type                 RadialGrid  ... OptM3 with GC (2021)
Angular Grid (max. ang.)         AngularGrid ... 3 (Lebedev-194)
Angular grid pruning method      GridPruning ... 4 (adaptive)
Weight generation scheme         WeightScheme... Becke
Basis function cutoff            BFCut       ... 1.0000e-11
Integration weight cutoff        WCut        ... 1.0000e-14
Angular grids for H and He will be reduced by one unit
Partially contracted basis set               ... on
Rotationally invariant grid construction     ... off

Total number of grid points                  ...   108822
Total number of batches                      ...     1720
Average number of points per batch           ...       63
Average number of grid points per atom       ...     2790
UseSFitting                                  ... on

Time for X-Grid setup             =    1.556 sec

--------------
SCF ITERATIONS
--------------
ITER       Energy         Delta-E        Max-DP      RMS-DP      [F,P]     Damp
               ***  Starting incremental Fock matrix formation  ***
  0   -864.8630794126   0.00000000000020.19811917  0.14608742  2.4853039 0.7000
  1  -1099.5963531786-234.733273766018 9.27125311  0.12033241  1.4771931 0.7000
  2  -1167.0382611406 -67.441907961931 5.45051954  0.06190219  1.0538186 0.7000
  3  -1192.7778358525 -25.739574711898 3.78823293  0.04362531  0.7652619 0.7000
  4  -1210.0534072723 -17.275571419827 2.66291290  0.03689053  0.4528653 0.7000
  5  -1223.6528377237 -13.599430451458 2.54475569  0.03128139  0.3657504 0.7000
  6  -1233.0150253180  -9.362187594224 1.78396249  0.02801592  0.3415766 0.7000
  7  -1241.1835098193  -8.168484501358 1.86875564  0.02452881  0.3251607 0.7000
  8  -1246.3046596661  -5.121149846802 1.66352204  0.02529935  0.3666997 0.7000
  9  -1250.6737906247  -4.369130958538 1.51265668  0.02276802  0.3369532 0.7000
 10  -1254.3423100700  -3.668519445319 1.59076956  0.02465242  0.3680877 0.7000
 11  -1256.0596850713  -1.717375001284 1.48756961  0.02275382  0.3352462 0.7000
                               ***Turning on DIIS***
 12  -1258.0961182937  -2.036433222423 1.46948338  0.02319691  0.3747730 0.7000
 13  -1259.0580695577  -0.961951263959 1.34819340  0.01949315  0.3328596 0.7000
 14  -1268.1802851373  -9.122215579631 0.94272140  0.01378971  0.2212357 0.7000
 15  -1274.5677824257  -6.387497288393 0.65839164  0.00973547  0.1572557 0.7000
 16  -1278.9004598247  -4.332677398996 1.52900993  0.02287599  0.0957717 0.0000
 17  -1288.2990852339  -9.398625409274 0.07732175  0.00128448  0.0808563 0.0000
 18  -1288.4060869430  -0.107001709064 0.06264758  0.00101952  0.0337379 0.0000
 19  -1288.4286197175  -0.022532774498 0.04101737  0.00052796  0.0337069 0.0000
               *** Restarting incremental Fock matrix formation ***
                                   *** Resetting DIIS ***
 20  -1288.4411773208  -0.012557603254 0.00940224  0.00025026  0.0048401 0.0000
 21  -1288.4423304883  -0.001153167577 0.00609217  0.00009009  0.0051403 0.0000
 22  -1288.4427396779  -0.000409189563 0.00449633  0.00007105  0.0016480 0.0000
 23  -1288.4428297966  -0.000090118713 0.00322488  0.00003330  0.0016610 0.0000
 24  -1288.4428774841  -0.000047687521 0.00186507  0.00003712  0.0004559 0.0000
               *** Restarting incremental Fock matrix formation ***
                                   *** Resetting DIIS ***
 25  -1288.4435742463  -0.000696762142 0.00511048  0.00008281  0.0008376 0.0000
 26  -1288.4435905383  -0.000016291985 0.00163895  0.00001770  0.0006379 0.0000
 27  -1288.4435885383   0.000001999963 0.00106221  0.00001058  0.0009622 0.0000
 28  -1288.4435934975  -0.000004959193 0.00018114  0.00000272  0.0002031 0.0000
 29  -1288.4435936509  -0.000000153382 0.00007520  0.00000112  0.0001089 0.0000
 30  -1288.4435936887  -0.000000037844 0.00003171  0.00000046  0.0000328 0.0000
 31  -1288.4435936950  -0.000000006331 0.00001991  0.00000024  0.0000080 0.0000
 32  -1288.4435936948   0.000000000291 0.00001316  0.00000014  0.0000055 0.0000
 33  -1288.4435936900   0.000000004743 0.00000720  0.00000008  0.0000025 0.0000
 34  -1288.4435936926  -0.000000002556 0.00000420  0.00000005  0.0000021 0.0000
                            ***DIIS convergence achieved***

               *****************************************************
               *                     SUCCESS                       *
               *           SCF CONVERGED AFTER  35 CYCLES          *
               *****************************************************

Old exchange energy                            =    -59.662138722 Eh
New exchange energy                            =    -59.662079013 Eh
Exchange energy change after final integration =      0.000059709 Eh
Total energy after final integration           =  -1288.443533979 Eh
Final COS-X integration done in                =    14.555 sec

----------------
TOTAL SCF ENERGY
----------------

Total Energy       :        -1288.44353398 Eh          -35060.33099 eV

Components:
Nuclear Repulsion  :         2037.72690421 Eh           55449.36805 eV
Electronic Energy  :        -3326.17043819 Eh          -90509.69905 eV
One Electron Energy:        -5830.89847259 Eh         -158666.81390 eV
Two Electron Energy:         2504.72803440 Eh           68157.11486 eV
Max COSX asymmetry :            0.00001550 Eh               0.00042 eV

Virial components:
Potential Energy   :        -2501.57736618 Eh          -68071.38082 eV
Kinetic Energy     :         1213.13383220 Eh           33011.04982 eV
Virial Ratio       :            2.06207864


DFT components:
N(Alpha)           :       82.000239722408 electrons
N(Beta)            :       82.000239722408 electrons
N(Total)           :      164.000479444815 electrons
E(X)               :      -79.593333415734 Eh       
E(C)               :       -7.452142854299 Eh       
E(XC)              :      -87.045476270033 Eh       
DFET-embed. en.    :        0.000000000000 Eh       

---------------
SCF CONVERGENCE
---------------

  Last Energy change         ...    5.1009e-09  Tolerance :   1.0000e-08
  Last MAX-Density change    ...    0.0000e+00  Tolerance :   1.0000e-07
  Last RMS-Density change    ...    0.0000e+00  Tolerance :   5.0000e-09
  Last DIIS Error            ...    9.2318e-07  Tolerance :   5.0000e-07

             **** THE GBW FILE WAS UPDATED (reaction4-IEIP_ts_guess_scan_0-1_orca.gbw) ****
             **** DENSITY reaction4-IEIP_ts_guess_scan_0-1_orca.scfp WAS UPDATED ****
             **** ENERGY FILE WAS UPDATED (reaction4-IEIP_ts_guess_scan_0-1_orca.en.tmp) ****
             **** THE GBW FILE WAS UPDATED (reaction4-IEIP_ts_guess_scan_0-1_orca.gbw) ****
             **** DENSITY reaction4-IEIP_ts_guess_scan_0-1_orca.scfp WAS UPDATED ****
----------------
ORBITAL ENERGIES
----------------

  NO   OCC          E(Eh)            E(eV) 
   0   2.0000     -89.760902     -2442.5183 
   1   2.0000     -19.620670      -533.9056 
   2   2.0000     -19.579252      -532.7785 
   3   2.0000     -14.842832      -403.8940 
   4   2.0000     -10.675569      -290.4970 
   5   2.0000     -10.663739      -290.1751 
   6   2.0000     -10.639891      -289.5261 
   7   2.0000     -10.638671      -289.4930 
   8   2.0000     -10.636040      -289.4214 
   9   2.0000     -10.635181      -289.3980 
  10   2.0000     -10.633746      -289.3590 
  11   2.0000     -10.632964      -289.3377 
  12   2.0000     -10.617336      -288.9124 
  13   2.0000     -10.609975      -288.7121 
  14   2.0000     -10.582901      -287.9754 
  15   2.0000     -10.582186      -287.9559 
  16   2.0000     -10.558123      -287.3011 
  17   2.0000     -10.552687      -287.1532 
  18   2.0000     -10.529693      -286.5275 
  19   2.0000      -8.400142      -228.5795 
  20   2.0000      -6.290292      -171.1675 
  21   2.0000      -6.286639      -171.0681 
  22   2.0000      -6.284767      -171.0172 
  23   2.0000      -4.032836      -109.7390 
  24   2.0000      -2.352369       -64.0112 
  25   2.0000      -2.317803       -63.0706 
  26   2.0000      -2.316363       -63.0314 
  27   2.0000      -1.298954       -35.3463 
  28   2.0000      -1.215205       -33.0674 
  29   2.0000      -1.203121       -32.7386 
  30   2.0000      -1.176777       -32.0217 
  31   2.0000      -1.126081       -30.6422 
  32   2.0000      -1.027997       -27.9732 
  33   2.0000      -0.991865       -26.9900 
  34   2.0000      -0.981733       -26.7143 
  35   2.0000      -0.965127       -26.2624 
  36   2.0000      -0.959943       -26.1214 
  37   2.0000      -0.922852       -25.1121 
  38   2.0000      -0.904564       -24.6144 
  39   2.0000      -0.874385       -23.7932 
  40   2.0000      -0.797744       -21.7077 
  41   2.0000      -0.792616       -21.5682 
  42   2.0000      -0.790687       -21.5157 
  43   2.0000      -0.781465       -21.2647 
  44   2.0000      -0.775384       -21.0993 
  45   2.0000      -0.755089       -20.5470 
  46   2.0000      -0.744308       -20.2536 
  47   2.0000      -0.722571       -19.6622 
  48   2.0000      -0.695812       -18.9340 
  49   2.0000      -0.670930       -18.2569 
  50   2.0000      -0.664879       -18.0923 
  51   2.0000      -0.652959       -17.7679 
  52   2.0000      -0.649189       -17.6653 
  53   2.0000      -0.641731       -17.4624 
  54   2.0000      -0.635565       -17.2946 
  55   2.0000      -0.626824       -17.0568 
  56   2.0000      -0.624420       -16.9913 
  57   2.0000      -0.613269       -16.6879 
  58   2.0000      -0.611914       -16.6510 
  59   2.0000      -0.609825       -16.5942 
  60   2.0000      -0.596995       -16.2450 
  61   2.0000      -0.588411       -16.0115 
  62   2.0000      -0.577222       -15.7070 
  63   2.0000      -0.572452       -15.5772 
  64   2.0000      -0.564327       -15.3561 
  65   2.0000      -0.554075       -15.0771 
  66   2.0000      -0.551619       -15.0103 
  67   2.0000      -0.548516       -14.9259 
  68   2.0000      -0.539057       -14.6685 
  69   2.0000      -0.534649       -14.5486 
  70   2.0000      -0.528313       -14.3761 
  71   2.0000      -0.522931       -14.2297 
  72   2.0000      -0.516505       -14.0548 
  73   2.0000      -0.508289       -13.8312 
  74   2.0000      -0.487548       -13.2669 
  75   2.0000      -0.481167       -13.0932 
  76   2.0000      -0.464266       -12.6333 
  77   2.0000      -0.450865       -12.2687 
  78   2.0000      -0.439445       -11.9579 
  79   2.0000      -0.424541       -11.5523 
  80   2.0000      -0.417450       -11.3594 
  81   2.0000      -0.405365       -11.0306 
  82   0.0000      -0.201229        -5.4757 
  83   0.0000      -0.168104        -4.5744 
  84   0.0000      -0.142240        -3.8706 
  85   0.0000      -0.105375        -2.8674 
  86   0.0000      -0.077831        -2.1179 
  87   0.0000      -0.070325        -1.9136 
  88   0.0000      -0.061327        -1.6688 
  89   0.0000      -0.049477        -1.3464 
  90   0.0000      -0.044361        -1.2071 
  91   0.0000      -0.037212        -1.0126 
  92   0.0000      -0.005669        -0.1543 
  93   0.0000      -0.002112        -0.0575 
  94   0.0000       0.007517         0.2045 
  95   0.0000       0.021531         0.5859 
  96   0.0000       0.028462         0.7745 
  97   0.0000       0.035885         0.9765 
  98   0.0000       0.043501         1.1837 
  99   0.0000       0.053422         1.4537 
 100   0.0000       0.067154         1.8273 
 101   0.0000       0.068878         1.8743 
 102   0.0000       0.070506         1.9186 
 103   0.0000       0.076898         2.0925 
 104   0.0000       0.081582         2.2200 
 105   0.0000       0.087111         2.3704 
 106   0.0000       0.092459         2.5159 
 107   0.0000       0.099801         2.7157 
 108   0.0000       0.107891         2.9359 
 109   0.0000       0.112970         3.0741 
 110   0.0000       0.114934         3.1275 
 111   0.0000       0.119675         3.2565 
 112   0.0000       0.122128         3.3233 
 113   0.0000       0.126100         3.4314 
 114   0.0000       0.131782         3.5860 
 115   0.0000       0.139397         3.7932 
 116   0.0000       0.143136         3.8949 
 117   0.0000       0.150113         4.0848 
 118   0.0000       0.155653         4.2355 
 119   0.0000       0.160971         4.3802 
 120   0.0000       0.165197         4.4952 
 121   0.0000       0.175351         4.7715 
 122   0.0000       0.185148         5.0381 
 123   0.0000       0.200201         5.4478 
 124   0.0000       0.219775         5.9804 
 125   0.0000       0.229140         6.2352 
 126   0.0000       0.257205         6.9989 
 127   0.0000       0.269962         7.3460 
 128   0.0000       0.279637         7.6093 
 129   0.0000       0.295428         8.0390 
 130   0.0000       0.299814         8.1583 
 131   0.0000       0.310164         8.4400 
 132   0.0000       0.322021         8.7626 
 133   0.0000       0.337625         9.1872 
 134   0.0000       0.343042         9.3346 
 135   0.0000       0.356689         9.7060 
 136   0.0000       0.365377         9.9424 
 137   0.0000       0.371259        10.1025 
 138   0.0000       0.382667        10.4129 
 139   0.0000       0.395688        10.7672 
 140   0.0000       0.399527        10.8717 
 141   0.0000       0.413663        11.2563 
 142   0.0000       0.422171        11.4879 
 143   0.0000       0.435287        11.8448 
 144   0.0000       0.445163        12.1135 
 145   0.0000       0.446726        12.1560 
 146   0.0000       0.451104        12.2752 
 147   0.0000       0.459431        12.5017 
 148   0.0000       0.468338        12.7441 
 149   0.0000       0.472219        12.8497 
 150   0.0000       0.479354        13.0439 
 151   0.0000       0.487103        13.2547 
 152   0.0000       0.499352        13.5881 
 153   0.0000       0.502391        13.6708 
 154   0.0000       0.508050        13.8247 
 155   0.0000       0.515804        14.0358 
 156   0.0000       0.526902        14.3377 
[...]

----------------------
LOEWDIN ATOMIC CHARGES
----------------------
   0 Ir:   -0.202749
   1 C :   -0.039663
   2 C :   -0.049667
   3 C :   -0.044066
   4 C :   -0.054549
   5 C :   -0.026317
   6 N :   -0.005959
   7 C :   -0.067921
   8 C :   -0.365091
   9 H :    0.158046
  10 H :    0.134190
  11 H :    0.147572
  12 C :   -0.343270
  13 H :    0.156950
  14 H :    0.153634
  15 H :    0.137366
  16 H :    0.134776
  17 C :    0.037929
  18 C :   -0.190541
  19 H :    0.163846
  20 C :   -0.169757
  21 C :   -0.146774
  22 S :    0.453182
  23 C :   -0.262412
  24 H :    0.263622
  25 H :    0.162933
  26 H :    0.167660
  27 H :    0.186591
  28 H :    0.187394
  29 H :    0.195040
  30 O :   -0.276491
  31 O :   -0.215326
  32 C :    0.148188
  33 C :   -0.378360
  34 H :    0.158369
  35 H :    0.165477
  36 H :    0.151361
  37 H :    0.188956
  38 H :    0.185833

-------------------------------
LOEWDIN REDUCED ORBITAL CHARGES
-------------------------------
  0 Irs       :     2.455401  s :     2.455401
      pz      :     2.235450  p :     6.736786
      px      :     2.231599
      py      :     2.269737
      dz2     :     1.858797  d :     7.920708
      dxz     :     1.762437
      dyz     :     1.238200
      dx2y2   :     1.645640
      dxy     :     1.415635
      f0      :     0.011679  f :     0.089854
      f+1     :     0.002948
      f-1     :     0.012740
      f+2     :     0.017802
      f-2     :     0.016423
      f+3     :     0.011133
      f-3     :     0.017129
  1 C s       :     2.876006  s :     2.876006
      pz      :     1.046222  p :     3.059646
      px      :     1.089047
      py      :     0.924377
      dz2     :     0.026631  d :     0.104011
      dxz     :     0.027140
      dyz     :     0.017310
      dx2y2   :     0.018316
      dxy     :     0.014615
  2 C s       :     2.875115  s :     2.875115
      pz      :     1.047160  p :     3.070974
      px      :     1.074097
      py      :     0.949717
      dz2     :     0.025974  d :     0.103579
      dxz     :     0.027726
      dyz     :     0.017901
      dx2y2   :     0.018569
      dxy     :     0.013409
  3 C s       :     2.875992  s :     2.875992
      pz      :     1.037976  p :     3.065487
      px      :     1.074654
      py      :     0.952857
      dz2     :     0.024498  d :     0.102588
      dxz     :     0.032351
      dyz     :     0.016484
      dx2y2   :     0.014844
      dxy     :     0.014410
  4 C s       :     2.874803  s :     2.874803
      pz      :     1.095601  p :     3.077657
      px      :     1.035632
      py      :     0.946424
      dz2     :     0.022742  d :     0.102089
      dxz     :     0.032020
      dyz     :     0.012816
      dx2y2   :     0.017445
      dxy     :     0.017066
  5 C s       :     2.877174  s :     2.877174
      pz      :     1.067059  p :     3.045226
      px      :     1.031422
      py      :     0.946745
      dz2     :     0.025768  d :     0.103918
      dxz     :     0.029986
      dyz     :     0.015567
      dx2y2   :     0.015448
      dxy     :     0.017150
  6 N s       :     3.123130  s :     3.123130
      pz      :     1.273141  p :     3.784144
      px      :     1.288864
      py      :     1.222139
      dz2     :     0.029701  d :     0.098684
      dxz     :     0.027824
      dyz     :     0.019371
      dx2y2   :     0.011534
      dxy     :     0.010255
  7 C s       :     2.862016  s :     2.862016
      pz      :     1.061248  p :     3.071496
      px      :     0.936878
      py      :     1.073370
      dz2     :     0.021428  d :     0.134409
      dxz     :     0.029461
      dyz     :     0.022482
      dx2y2   :     0.028424
      dxy     :     0.032615
  8 C s       :     2.953015  s :     2.953015
      pz      :     1.126883  p :     3.344653
      px      :     1.122881
      py      :     1.094889
      dz2     :     0.010108  d :     0.067423
      dxz     :     0.018253
      dyz     :     0.012936
      dx2y2   :     0.008201
      dxy     :     0.017925
  9 H s       :     0.841954  s :     0.841954
 10 H s       :     0.865810  s :     0.865810
 11 H s       :     0.852428  s :     0.852428
 12 C s       :     2.952797  s :     2.952797
      pz      :     1.136686  p :     3.322613
      px      :     1.113042
      py      :     1.072884
      dz2     :     0.008035  d :     0.067860
      dxz     :     0.013884
      dyz     :     0.018150
      dx2y2   :     0.010328
      dxy     :     0.017464
 13 H s       :     0.843050  s :     0.843050
 14 H s       :     0.846366  s :     0.846366
 15 H s       :     0.862634  s :     0.862634
 16 H s       :     0.865224  s :     0.865224
 17 C s       :     2.879020  s :     2.879020
      pz      :     1.025384  p :     2.941999
      px      :     1.058281
      py      :     0.858334
      dz2     :     0.041091  d :     0.141052
      dxz     :     0.051403
      dyz     :     0.024406
      dx2y2   :     0.011644
      dxy     :     0.012509
 18 C s       :     2.896784  s :     2.896784
      pz      :     1.035698  p :     3.183091
      px      :     1.087238
      py      :     1.060155
      dz2     :     0.027722  d :     0.110666
      dxz     :     0.026575
      dyz     :     0.016421
      dx2y2   :     0.024234
      dxy     :     0.015712
 19 H s       :     0.836154  s :     0.836154
 20 C s       :     2.921882  s :     2.921882
      pz      :     1.067648  p :     3.158709
      px      :     1.042119
      py      :     1.048943
      dz2     :     0.009781  d :     0.089166
      dxz     :     0.030257
      dyz     :     0.009583
      dx2y2   :     0.017847
      dxy     :     0.021699
 21 C s       :     2.898953  s :     2.898953
      pz      :     1.055101  p :     3.154276
      px      :     1.090225
      py      :     1.008951
      dz2     :     0.021384  d :     0.093544
      dxz     :     0.024687
      dyz     :     0.014777
      dx2y2   :     0.019044
      dxy     :     0.013653
 22 S s       :     5.507030  s :     5.507030
      pz      :     3.315671  p :     9.888444
      px      :     3.086575
      py      :     3.486197
      dz2     :     0.033783  d :     0.151344
      dxz     :     0.029165
      dyz     :     0.026982
      dx2y2   :     0.036248
      dxy     :     0.025166
 23 C s       :     2.964773  s :     2.964773
      pz      :     1.110348  p :     3.211612
      px      :     1.020719
      py      :     1.080545
      dz2     :     0.018360  d :     0.086027
      dxz     :     0.024251
      dyz     :     0.012747
      dx2y2   :     0.016495
      dxy     :     0.014174
 24 H s       :     0.736378  s :     0.736378
 25 H s       :     0.837067  s :     0.837067
 26 H s       :     0.832340  s :     0.832340
 27 H s       :     0.813409  s :     0.813409
 28 H s       :     0.812606  s :     0.812606
 29 H s       :     0.804960  s :     0.804960
 30 O s       :     3.505322  s :     3.505322
      pz      :     1.474266  p :     4.716873
      px      :     1.502687
      py      :     1.739920
      dz2     :     0.018584  d :     0.054296
      dxz     :     0.012535
      dyz     :     0.016559
      dx2y2   :     0.003249
      dxy     :     0.003369
 31 O s       :     3.447673  s :     3.447673
      pz      :     1.694552  p :     4.709178
      px      :     1.641950
      py      :     1.372676
      dz2     :     0.009514  d :     0.058476
      dxz     :     0.003185
      dyz     :     0.016496
      dx2y2   :     0.016196
      dxy     :     0.013084
 32 C s       :     2.814637  s :     2.814637
      pz      :     1.018442  p :     2.713377
      px      :     0.749631
      py      :     0.945304
      dz2     :     0.078840  d :     0.323798
      dxz     :     0.042683
      dyz     :     0.111251
      dx2y2   :     0.044644
      dxy     :     0.046381
 33 C s       :     2.960560  s :     2.960560
      pz      :     1.094536  p :     3.355088
      px      :     1.148703
      py      :     1.111849
      dz2     :     0.006826  d :     0.062712
      dxz     :     0.017187
      dyz     :     0.018394
      dx2y2   :     0.017779
      dxy     :     0.002526
 34 H s       :     0.841631  s :     0.841631
 35 H s       :     0.834523  s :     0.834523
 36 H s       :     0.848639  s :     0.848639
 37 H s       :     0.811044  s :     0.811044
 38 H s       :     0.814167  s :     0.814167


                      *****************************
                      * MAYER POPULATION ANALYSIS *
                      *****************************

  NA   - Mulliken gross atomic population
  ZA   - Total nuclear charge
  QA   - Mulliken gross atomic charge
  VA   - Mayer's total valence
  BVA  - Mayer's bonded valence
  FA   - Mayer's free valence

  ATOM       NA         ZA         QA         VA         BVA        FA
  0 Ir    16.3739    17.0000     0.6261     3.7579     3.7579    -0.0000
  1 C      6.2077     6.0000    -0.2077     3.6935     3.6935     0.0000
  2 C      6.2985     6.0000    -0.2985     3.7444     3.7444     0.0000
  3 C      6.2300     6.0000    -0.2300     3.7269     3.7269     0.0000
  4 C      6.2447     6.0000    -0.2447     3.7177     3.7177     0.0000
  5 C      6.1640     6.0000    -0.1640     3.6859     3.6859    -0.0000
  6 N      7.4225     7.0000    -0.4225     3.2161     3.2161     0.0000
  7 C      6.1156     6.0000    -0.1156     3.6973     3.6973     0.0000
  8 C      6.6969     6.0000    -0.6969     3.6868     3.6868     0.0000
  9 H      0.7261     1.0000     0.2739     0.8960     0.8960     0.0000
 10 H      0.7737     1.0000     0.2263     0.9091     0.9091     0.0000
 11 H      0.7381     1.0000     0.2619     0.8968     0.8968    -0.0000
 12 C      6.6407     6.0000    -0.6407     3.6724     3.6724    -0.0000
 13 H      0.7185     1.0000     0.2815     0.8752     0.8752     0.0000
 14 H      0.7339     1.0000     0.2661     0.8960     0.8960    -0.0000
 15 H      0.7690     1.0000     0.2310     0.9092     0.9092     0.0000
 16 H      0.7666     1.0000     0.2334     0.9049     0.9049    -0.0000
 17 C      5.9335     6.0000     0.0665     3.6332     3.6332     0.0000
 18 C      6.2409     6.0000    -0.2409     3.7139     3.7139     0.0000
 19 H      0.7061     1.0000     0.2939     0.8854     0.8854     0.0000
 20 C      6.3709     6.0000    -0.3709     3.4613     3.4613     0.0000
 21 C      6.1464     6.0000    -0.1464     3.7452     3.7452     0.0000
 22 S     15.7126    16.0000     0.2874     2.5511     2.5511    -0.0000
 23 C      6.4281     6.0000    -0.4281     3.7390     3.7390     0.0000
 24 H      0.5158     1.0000     0.4842     0.7621     0.7621     0.0000
 25 H      0.7313     1.0000     0.2687     0.9013     0.9013     0.0000
 26 H      0.7028     1.0000     0.2972     0.8976     0.8976     0.0000
 27 H      0.7065     1.0000     0.2935     0.9010     0.9010     0.0000
 28 H      0.7043     1.0000     0.2957     0.9033     0.9033     0.0000
 29 H      0.6909     1.0000     0.3091     0.8905     0.8905    -0.0000
 30 O      8.4763     8.0000    -0.4763     2.1161     2.1161     0.0000
 31 O      8.5496     8.0000    -0.5496     2.0635     2.0635     0.0000
 32 C      5.3926     6.0000     0.6074     3.9337     3.9337     0.0000
 33 C      6.7465     6.0000    -0.7465     3.6709     3.6709    -0.0000
 34 H      0.7324     1.0000     0.2676     0.8961     0.8961    -0.0000
 35 H      0.7360     1.0000     0.2640     0.8965     0.8965    -0.0000
 36 H      0.7503     1.0000     0.2497     0.9023     0.9023     0.0000
 37 H      0.7022     1.0000     0.2978     0.8990     0.8990     0.0000
 38 H      0.7037     1.0000     0.2963     0.9035     0.9035    -0.0000

  Mayer bond orders larger than 0.100000
B(  0-Ir,  1-C ) :   0.4193 B(  0-Ir,  2-C ) :   0.5672 B(  0-Ir,  3-C ) :   0.4670 
B(  0-Ir,  4-C ) :   0.4497 B(  0-Ir,  5-C ) :   0.4030 B(  0-Ir,  6-N ) :   0.4624 
B(  0-Ir, 20-C ) :   0.1853 B(  0-Ir, 31-O ) :   0.6079 B(  1-C ,  2-C ) :   1.1089 
B(  1-C ,  4-C ) :   1.2514 B(  1-C , 27-H ) :   0.9028 B(  2-C ,  5-C ) :   1.1266 
B(  2-C , 28-H ) :   0.9055 B(  3-C ,  4-C ) :   1.1013 B(  3-C ,  5-C ) :   1.2367 
B(  3-C , 37-H ) :   0.9016 B(  4-C , 38-H ) :   0.8957 B(  5-C , 29-H ) :   0.8967 
B(  6-N ,  7-C ) :   0.8898 B(  6-N , 17-C ) :   1.7092 B(  7-C ,  8-C ) :   0.9931 
B(  7-C , 12-C ) :   0.9698 B(  7-C , 13-H ) :   0.8706 B(  8-C ,  9-H ) :   0.9029 
B(  8-C , 10-H ) :   0.9121 B(  8-C , 11-H ) :   0.9072 B( 12-C , 14-H ) :   0.9059 
B( 12-C , 15-H ) :   0.9151 B( 12-C , 16-H ) :   0.9102 B( 17-C , 18-C ) :   1.0370 
B( 17-C , 19-H ) :   0.8734 B( 18-C , 20-C ) :   1.3222 B( 18-C , 22-S ) :   1.2094 
B( 20-C , 21-C ) :   1.2606 B( 20-C , 24-H ) :   0.5527 B( 21-C , 23-C ) :   1.5473 
B( 21-C , 25-H ) :   0.9034 B( 22-S , 23-C ) :   1.2003 B( 23-C , 26-H ) :   0.8927 
B( 24-H , 30-O ) :   0.1945 B( 30-O , 32-C ) :   1.7454 B( 31-O , 32-C ) :   1.2389 
B( 32-C , 33-C ) :   0.9454 B( 33-C , 34-H ) :   0.9064 B( 33-C , 35-H ) :   0.9003 
B( 33-C , 36-H ) :   0.9105 


------------------
HIRSHFELD ANALYSIS
------------------

Total integrated alpha density =     82.000235792
Total integrated beta density  =     82.000235792

  ATOM     CHARGE      SPIN    
   0 Ir   0.216300    0.000000
   1 C    0.008142    0.000000
   2 C    0.007469    0.000000
   3 C    0.006273    0.000000
   4 C   -0.003492    0.000000
   5 C    0.018849    0.000000
   6 N   -0.065896    0.000000
   7 C    0.054982    0.000000
   8 C   -0.070475    0.000000
   9 H    0.054570    0.000000
  10 H    0.038093    0.000000
  11 H    0.044694    0.000000
  12 C   -0.069954    0.000000
  13 H    0.047917    0.000000
  14 H    0.052094    0.000000
  15 H    0.036672    0.000000
  16 H    0.030762    0.000000
  17 C    0.104220    0.000000
  18 C   -0.006741    0.000000
  19 H    0.079117    0.000000
  20 C   -0.053496    0.000000
  21 C   -0.035247    0.000000
  22 S    0.113623    0.000000
  23 C   -0.027254    0.000000
  24 H    0.053016    0.000000
  25 H    0.070048    0.000000
  26 H    0.077360    0.000000
  27 H    0.085170    0.000000
  28 H    0.087443    0.000000
  29 H    0.096101    0.000000
  30 O   -0.269924    0.000000
  31 O   -0.264970    0.000000
  32 C    0.236599    0.000000
  33 C   -0.069931    0.000000
  34 H    0.052918    0.000000
  35 H    0.057494    0.000000
  36 H    0.046367    0.000000
  37 H    0.086871    0.000000
  38 H    0.073746    0.000000

  TOTAL   0.999528    0.000000

-------
TIMINGS
-------

Total SCF time: 0 days 0 hours 1 min 7 sec 

Total time                  ....      67.630 sec
Sum of individual times     ....      67.103 sec  ( 99.2%)

Fock matrix formation       ....      64.043 sec  ( 94.7%)
  Split-RI-J                ....       5.612 sec  (  8.8% of F)
  Chain of spheres X        ....      54.799 sec  ( 85.6% of F)
  XC integration            ....       3.546 sec  (  5.5% of F)
    Basis function eval.    ....       1.594 sec  ( 44.9% of XC)
    Density eval.           ....       0.934 sec  ( 26.3% of XC)
    XC-Functional eval.     ....       0.260 sec  (  7.3% of XC)
    XC-Potential eval.      ....       0.556 sec  ( 15.7% of XC)
Diagonalization             ....       0.266 sec  (  0.4%)
Density matrix formation    ....       0.017 sec  (  0.0%)
Population analysis         ....       0.582 sec  (  0.9%)
Initial guess               ....       0.031 sec  (  0.0%)
Orbital Transformation      ....       0.000 sec  (  0.0%)
Orbital Orthonormalization  ....       0.022 sec  (  0.0%)
DIIS solution               ....       0.153 sec  (  0.2%)
Grid generation             ....       2.011 sec  (  3.0%)

Maximum memory used throughout the entire SCF-calculation: 96.6 MB


-------------------------------------------------------------------------------
                          DFT DISPERSION CORRECTION                            
                                                                               
                              DFTD3 V3.1  Rev 1                                
                          USING Becke-Johnson damping                          
-------------------------------------------------------------------------------
The PBEh-3c composite method is recognized
Using three-body term ABC
Active option DFTDOPT                   ...         4   

molecular C6(AA) [au] = 19598.411000 


            DFT-D V3
 parameters
 s6 scaling factor         :     1.0000 
 a1 scaling factor         :     0.4860 
 s8 scaling factor         :     0.0000 
 a2 scaling factor         :     4.5000 
 Damping factor alpha9(ATM):    16.0000 
 ad hoc parameters k1-k3   :    16.0000     1.3333    -4.0000 

 Edisp/kcal,au: -19.425481976677  -0.030956472703 
 E6   /kcal   : -19.778958812 
 E8   /kcal   :  -0.000000000 
 E6(ABC)      :   0.353476836 
 % E8         :   0.000000000 
 % E6(ABC)    :  -1.819655420 

-------------------------   ----------------
Dispersion correction           -0.030956473
-------------------------   ----------------

 ** NOTE ** -> element ir will be treated as co
NOTIFICATION: Different basis set in ORCA and otool_gcp:
ORCA: 358  gCP: 357 
If you are NOT using ECPs, check your basis set inputs!
------------------   -----------------
gCP correction             0.077098432
------------------   -----------------

-------------------------   --------------------
FINAL SINGLE POINT ENERGY     -1288.397427837106
-------------------------   --------------------

                                *** OPTIMIZATION RUN DONE ***

                            ***************************************
                            *     ORCA property calculations      *
                            ***************************************

                                    ---------------------
                                    Active property flags
                                    ---------------------
   (+) Dipole Moment


------------------------------------------------------------------------------
                       ORCA ELECTRIC PROPERTIES CALCULATION
------------------------------------------------------------------------------

Dipole Moment Calculation                       ... on
Quadrupole Moment Calculation                   ... off
Polarizability Calculation                      ... off
GBWName                                         ... reaction4-IEIP_ts_guess_scan_0-1_orca.gbw
Electron density                                ... reaction4-IEIP_ts_guess_scan_0-1_orca.scfp
The origin for moment calculation is the CENTER OF MASS  = ( 0.841263, -0.654347 -0.110656)

-------------
DIPOLE MOMENT
-------------
                                X             Y             Z
Electronic contribution:     34.27437     -67.45405      73.98728
Nuclear contribution   :    -34.90621      66.07167     -74.24201
                        -----------------------------------------
Total Dipole Moment    :     -0.63184      -1.38239      -0.25472
                        -----------------------------------------
Magnitude (a.u.)       :      1.54114
Magnitude (Debye)      :      3.91726



--------------------
Rotational spectrum 
--------------------
 
Rotational constants in cm-1:     0.010827     0.009089     0.008238 
Rotational constants in MHz :   324.598296   272.482648   246.980979 

 Dipole components along the rotational axes: 
x,y,z [a.u.] :    -0.345367    -0.567635     1.390544 
x,y,z [Debye]:    -0.877853    -1.442814     3.534482 

 

Timings for individual modules:

Sum of individual times         ...      976.258 sec (=  16.271 min)
GTO integral calculation        ...       12.716 sec (=   0.212 min)   1.3 %
SCF iterations                  ...      761.957 sec (=  12.699 min)  78.0 %
SCF Gradient evaluation         ...      200.072 sec (=   3.335 min)  20.5 %
Geometry relaxation             ...        1.513 sec (=   0.025 min)   0.2 %
                             ****ORCA TERMINATED NORMALLY****
TOTAL RUN TIME: 0 days 0 hours 16 minutes 20 seconds 129 msec
