
                                 *****************
                                 * O   R   C   A *
                                 *****************

                                            #,                                       
                                            ###                                      
                                            ####                                     
                                            #####                                    
                                            ######                                   
                                           ########,                                 
                                     ,,################,,,,,                         
                               ,,#################################,,                 
                          ,,##########################################,,             
                       ,#########################################, ''#####,          
                    ,#############################################,,   '####,        
                  ,##################################################,,,,####,       
                ,###########''''           ''''###############################       
              ,#####''   ,,,,##########,,,,          '''####'''          '####       
            ,##' ,,,,###########################,,,                        '##       
           ' ,,###''''                  '''############,,,                           
         ,,##''                                '''############,,,,        ,,,,,,###''
      ,#''                                            '''#######################'''  
     '                                                          ''''####''''         
             ,#######,   #######,   ,#######,      ##                                
            ,#'     '#,  ##    ##  ,#'     '#,    #''#        ######   ,####,        
            ##       ##  ##   ,#'  ##            #'  '#       #        #'  '#        
            ##       ##  #######   ##           ,######,      #####,   #    #        
            '#,     ,#'  ##    ##  '#,     ,#' ,#      #,         ##   #,  ,#        
             '#######'   ##     ##  '#######'  #'      '#     #####' # '####'        



                  #######################################################
                  #                        -***-                        #
                  #          Department of theory and spectroscopy      #
                  #    Directorship and core code : Frank Neese         #
                  #        Max Planck Institute fuer Kohlenforschung    #
                  #                Kaiser Wilhelm Platz 1               #
                  #                 D-45470 Muelheim/Ruhr               #
                  #                      Germany                        #
                  #                                                     #
                  #                  All rights reserved                #
                  #                        -***-                        #
                  #######################################################


                         Program Version 5.0.3 -  RELEASE  -


 With contributions from (in alphabetic order):
   Daniel Aravena         : Magnetic Suceptibility
   Michael Atanasov       : Ab Initio Ligand Field Theory (pilot matlab implementation)
   Alexander A. Auer      : GIAO ZORA, VPT2 properties, NMR spectrum
   Ute Becker             : Parallelization
   Giovanni Bistoni       : ED, misc. LED, open-shell LED, HFLD
   Martin Brehm           : Molecular dynamics
   Dmytro Bykov           : SCF Hessian
   Vijay G. Chilkuri      : MRCI spin determinant printing, contributions to CSF-ICE
   Dipayan Datta          : RHF DLPNO-CCSD density
   Achintya Kumar Dutta   : EOM-CC, STEOM-CC
   Dmitry Ganyushin       : Spin-Orbit,Spin-Spin,Magnetic field MRCI
   Miquel Garcia          : C-PCM and meta-GGA Hessian, CC/C-PCM, Gaussian charge scheme
   Yang Guo               : DLPNO-NEVPT2, F12-NEVPT2, CIM, IAO-localization
   Andreas Hansen         : Spin unrestricted coupled pair/coupled cluster methods
   Benjamin Helmich-Paris : MC-RPA, TRAH-SCF, COSX integrals
   Lee Huntington         : MR-EOM, pCC
   Robert Izsak           : Overlap fitted RIJCOSX, COSX-SCS-MP3, EOM
   Marcus Kettner         : VPT2
   Christian Kollmar      : KDIIS, OOCD, Brueckner-CCSD(T), CCSD density, CASPT2, CASPT2-K
   Simone Kossmann        : Meta GGA functionals, TD-DFT gradient, OOMP2, MP2 Hessian
   Martin Krupicka        : Initial AUTO-CI
   Lucas Lang             : DCDCAS
   Marvin Lechner         : AUTO-CI (C++ implementation), FIC-MRCC
   Dagmar Lenk            : GEPOL surface, SMD
   Dimitrios Liakos       : Extrapolation schemes; Compound Job, initial MDCI parallelization
   Dimitrios Manganas     : Further ROCIS development; embedding schemes
   Dimitrios Pantazis     : SARC Basis sets
   Anastasios Papadopoulos: AUTO-CI, single reference methods and gradients
   Taras Petrenko         : DFT Hessian,TD-DFT gradient, ASA, ECA, R-Raman, ABS, FL, XAS/XES, NRVS
   Peter Pinski           : DLPNO-MP2, DLPNO-MP2 Gradient
   Christoph Reimann      : Effective Core Potentials
   Marius Retegan         : Local ZFS, SOC
   Christoph Riplinger    : Optimizer, TS searches, QM/MM, DLPNO-CCSD(T), (RO)-DLPNO pert. Triples
   Tobias Risthaus        : Range-separated hybrids, TD-DFT gradient, RPA, STAB
   Michael Roemelt        : Original ROCIS implementation
   Masaaki Saitow         : Open-shell DLPNO-CCSD energy and density
   Barbara Sandhoefer     : DKH picture change effects
   Avijit Sen             : IP-ROCIS
   Kantharuban Sivalingam : CASSCF convergence, NEVPT2, FIC-MRCI
   Bernardo de Souza      : ESD, SOC TD-DFT
   Georgi Stoychev        : AutoAux, RI-MP2 NMR, DLPNO-MP2 response
   Willem Van den Heuvel  : Paramagnetic NMR
   Boris Wezisla          : Elementary symmetry handling
   Frank Wennmohs         : Technical directorship


 We gratefully acknowledge several colleagues who have allowed us to
 interface, adapt or use parts of their codes:
   Stefan Grimme, W. Hujo, H. Kruse, P. Pracht,  : VdW corrections, initial TS optimization,
                  C. Bannwarth, S. Ehlert          DFT functionals, gCP, sTDA/sTD-DF
   Ed Valeev, F. Pavosevic, A. Kumar             : LibInt (2-el integral package), F12 methods
   Garnet Chan, S. Sharma, J. Yang, R. Olivares  : DMRG
   Ulf Ekstrom                                   : XCFun DFT Library
   Mihaly Kallay                                 : mrcc  (arbitrary order and MRCC methods)
   Jiri Pittner, Ondrej Demel                    : Mk-CCSD
   Frank Weinhold                                : gennbo (NPA and NBO analysis)
   Christopher J. Cramer and Donald G. Truhlar   : smd solvation model
   Lars Goerigk                                  : TD-DFT with DH, B97 family of functionals
   V. Asgeirsson, H. Jonsson                     : NEB implementation
   FAccTs GmbH                                   : IRC, NEB, NEB-TS, DLPNO-Multilevel, CI-OPT
                                                   MM, QMMM, 2- and 3-layer-ONIOM, Crystal-QMMM,
                                                   LR-CPCM, SF, NACMEs, symmetry and pop. for TD-DFT,
                                                   nearIR, NL-DFT gradient (VV10), updates on ESD,
                                                   ML-optimized integration grids
   S Lehtola, MJT Oliveira, MAL Marques          : LibXC Library
   Liviu Ungur et al                             : ANISO software


 Your calculation uses the libint2 library for the computation of 2-el integrals
 For citations please refer to: http://libint.valeyev.net

 Your ORCA version has been built with support for libXC version: 5.1.0
 For citations please refer to: https://tddft.org/programs/libxc/

 This ORCA versions uses:
   CBLAS   interface :  Fast vector & matrix operations
   LAPACKE interface :  Fast linear algebra routines
   SCALAPACK package :  Parallel linear algebra routines
   Shared memory     :  Shared parallel matrices
   BLAS/LAPACK       :  OpenBLAS 0.3.15  USE64BITINT DYNAMIC_ARCH NO_AFFINITY SkylakeX SINGLE_THREADED
        Core in use  :  SkylakeX
   Copyright (c) 2011-2014, The OpenBLAS Project


Your calculation utilizes the geometrical counterpoise correction gCP
Please cite in your paper:
H.Kruse, S. Grimme J.Chem.Phys., 136, (2012), 154101 
   

Your calculation utilizes the atom-pairwise dispersion correction
with the Becke-Johnson damping scheme (D3BJ)
Cite in your paper:
S.Grimme, S.Ehrlich, L.Goerigk, J Comput Chem, (2011), 32, 1456–1465 
S.Grimme, J.Antony, S.Ehrlich and H.Krieg, J.Chem.Phys., 132, (2010), 154104 
   

Your calculation employs the composite approach PBEh-3c.
Please cite in your paper:
S. Grimme, J. G. Brandenburg, C. Bannwarth, A. Hansen J.Chem.Phys., 143, (2015), 054107 
   

================================================================================

cite the ECPs for Ir [Def2-ECP] as follows:
Ce-Yb(ecp-28): M. Dolg, H. Stoll, H.Preuss, J. Chem. Phys., 1989, 90, 1730-1734.
Y-Cd(ecp-28), Hf-Hg(ecp-46): D. Andrae,U. Haeussermann, M. Dolg, H. Stoll, H. Preuss, Theor. Chim. Acta, 1990, 77, 123-141.
In-Sb(ecp-28), Tl-Bi(ecp-46): B. Metz, H. Stoll, M. Dolg, J. Chem. Phys., 2000, 113, 2563-2569.
Te-Xe(ecp-28), Po-Rn(ecp-46): K. A. Peterson, D. Figgen, E. Goll, H. Stoll, M. Dolg, J. Chem. Phys., 2003, 119, 11113-11123.
Rb(ecp-28), Cs(ecp-46): T. Leininger, A. Nicklass, W. Kuechle, H. Stoll, M. Dolg, A. Bergner, Chem. Phys. Lett., 1996, 255, 274-280.
Sr(ecp-28), Ba(ecp-46): M. Kaupp, P. V. Schleyer, H. Stoll and H. Preuss, J. Chem. Phys., 1991, 94, 1360-1366.
La(ecp-46): M. Dolg, H. Stoll, A. Savin, H. Preuss, Theor. Chim. Acta, 1989, 75, 173-194.
Lu(ecp-28): X. Cao, M. Dolg, J. Chem. Phys., 2001, 115, 7348-7355.

ECP parameters for Ir [Def2-ECP] have been obtained from:
TURBOMOLE (7.0.2)

----- Orbital basis set information -----
Your calculation utilizes the basis: def2-mSVP

----- AuxJ basis set information -----
Your calculation utilizes the auxiliary basis: def2/J
   F. Weigend, Phys. Chem. Chem. Phys. 8, 1057 (2006).

================================================================================
                                        WARNINGS
                       Please study these warnings very carefully!
================================================================================


WARNING: Geometry Optimization
  ===> : Switching off AutoStart
         For restart on a previous wavefunction, please use MOREAD

WARNING: No Hueckel Guess possible with ECP basis!
  ===> : Switching to HCORE guess!

INFO   : the flag for use of the SHARK integral package has been found!

================================================================================
                                       INPUT FILE
================================================================================
NAME = reaction4-IEIP_ts_guess_scan_11-11_orca.inp
|  1> ! Opt PBEh-3c
|  2> %geom Constraints
|  3> { B 0 20 2.1285714285714286 C }
|  4> { B 24 30 1.342857142857143 C }
|  5>     end
|  6> end
|  7> %output 
|  8> xyzfile=True 
|  9> end 
| 10> %scf 
| 11> maxiter 250 
| 12> end
| 13> %output
| 14> Print[P_Hirshfeld] = 1
| 15> end
| 16> % maxcore
| 17> 4000
| 18> *xyz 1 1
| 19> Ir   0.60786622  -0.73135801   0.43893714 
| 20> C    0.13358122  -2.84293329   0.35236944 
| 21> C   -0.08785898  -2.38149590   1.69853768 
| 22> C    2.14654630  -2.07017083   1.18471589 
| 23> C    1.49951658  -2.65991444   0.04432259 
| 24> C    1.15995793  -1.93025305   2.19687920 
| 25> N   -1.06813342   0.11258033  -0.50865855 
| 26> C   -2.34574895   0.30857559   0.19425340 
| 27> C   -3.13835254   1.51146249  -0.29759441 
| 28> H   -3.97224391   1.68446346   0.38086035 
| 29> H   -3.56943985   1.35998538  -1.28811296 
| 30> H   -2.53448541   2.41903417  -0.31230572 
| 31> C   -3.16911639  -0.97204562   0.11256317 
| 32> H   -2.07266195   0.48636449   1.23547750 
| 33> H   -4.07951840  -0.86702024   0.70134077 
| 34> H   -3.46026840  -1.18665479  -0.91649554 
| 35> H   -2.62666392  -1.83357963   0.49854838 
| 36> C   -0.91462288   0.45969114  -1.73356850 
| 37> C    0.40273853   0.29772816  -2.27061911 
| 38> H   -1.72761285   0.87935377  -2.31764385 
| 39> C    1.45547981   0.09200602  -1.38279962 
| 40> C    2.66138450  -0.14815630  -2.10594951 
| 41> S    0.87064321   0.23001970  -3.90223005 
| 42> C    2.49099205  -0.09643311  -3.45705587 
| 43> H    1.63642165   1.14377048  -0.60156581 
| 44> H    3.62672403  -0.29387406  -1.64321954 
| 45> H    3.24309012  -0.21394081  -4.22239951 
| 46> H   -0.60716092  -3.27526857  -0.30435908 
| 47> H   -1.01203176  -2.42868134   2.25407949 
| 48> H    1.31998248  -1.48333742   3.16801135 
| 49> O    1.76274752   2.27861321   0.13192616 
| 50> O    0.55977838   1.02974111   1.52504865 
| 51> C    1.14764651   2.10885012   1.20444908 
| 52> C    1.11185629   3.23028999   2.19941739 
| 53> H    0.99075148   4.18564864   1.69360774 
| 54> H    2.06649498   3.26520844   2.72704506 
| 55> H    0.32158296   3.09172868   2.93159098 
| 56> H    3.19709170  -1.84500669   1.28392357 
| 57> H    1.97241621  -2.91580129  -0.89258728 
| 58> *
| 59> 
| 60>                          ****END OF INPUT****
================================================================================

                       *****************************
                       * Geometry Optimization Run *
                       *****************************

Geometry optimization settings:
Update method            Update   .... BFGS
Choice of coordinates    CoordSys .... Z-matrix Internals
Initial Hessian          InHess   .... Almoef's Model

Convergence Tolerances:
Energy Change            TolE     ....  5.0000e-06 Eh
Max. Gradient            TolMAXG  ....  3.0000e-04 Eh/bohr
RMS Gradient             TolRMSG  ....  1.0000e-04 Eh/bohr
Max. Displacement        TolMAXD  ....  4.0000e-03 bohr
RMS Displacement         TolRMSD  ....  2.0000e-03 bohr
Strict Convergence                ....  False
------------------------------------------------------------------------------
                        ORCA OPTIMIZATION COORDINATE SETUP
------------------------------------------------------------------------------

The optimization will be done in new redundant internal coordinates
Making redundant internal coordinates   ...  (new redundants) done
Evaluating the initial hessian          ...  (Almloef) done
Evaluating the coordinates              ...  done
Calculating the B-matrix                .... done
Calculating the G-matrix                .... done
Diagonalizing the G-matrix              .... done
Imposing constraints:
 Iter   0:  RMS(Cart)=    0.0165302332 RMS(Int)=    0.0110350426
 Iter   1:  RMS(Cart)=    0.0030712017 RMS(Int)=    0.0021913959
 Iter   2:  RMS(Cart)=    0.0006094301 RMS(Int)=    0.0004390531
 Iter   3:  RMS(Cart)=    0.0001220072 RMS(Int)=    0.0000880743
 Iter   4:  RMS(Cart)=    0.0000244677 RMS(Int)=    0.0000176721
 Iter   5:  RMS(Cart)=    0.0000049090 RMS(Int)=    0.0000035461
 Iter   6:  RMS(Cart)=    0.0000009850 RMS(Int)=    0.0000007116
 Iter   7:  RMS(Cart)=    0.0000001977 RMS(Int)=    0.0000001428
 Iter   8:  RMS(Cart)=    0.0000000397 RMS(Int)=    0.0000000287
CONVERGED
Small eigenvalue found = 1.440e-02
Small eigenvalue found = 2.360e-02
The first mode is                       ....  288
The number of degrees of freedom        ....  111
Storing new coordinates                 .... done

    -----------------------------------------------------------------
                    Redundant Internal Coordinates


    -----------------------------------------------------------------
         Definition                    Initial Value    Approx d2E/dq
    -----------------------------------------------------------------
      1. B(C   1,Ir  0)                  2.1655         0.084094   
      2. B(C   2,Ir  0)                  2.1890         0.077136   
      3. B(C   2,C   1)                  1.4404         0.519605   
      4. B(C   3,Ir  0)                  2.1712         0.082336   
      5. B(C   4,C   3)                  1.4375         0.524394   
      6. B(C   4,Ir  0)                  2.1607         0.085614   
      7. B(C   4,C   1)                  1.4129         0.575969   
      8. B(C   5,Ir  0)                  2.1976         0.074662   
      9. B(C   5,C   2)                  1.4188         0.564976   
     10. B(C   5,C   3)                  1.4218         0.558868   
     11. B(N   6,Ir  0)                  2.1025         0.095191   
     12. B(C   7,N   6)                  1.4713         0.415073   
     13. B(C   8,C   7)                  1.5222         0.384444   
     14. B(H   9,C   8)                  1.0889         0.361618   
     15. B(H  10,C   8)                  1.0908         0.359005   
     16. B(H  11,C   8)                  1.0902         0.359822   
     17. B(C  12,C   7)                  1.5247         0.380971   
     18. B(H  13,C   7)                  1.0910         0.358748   
     19. B(H  14,C  12)                  1.0893         0.361060   
     20. B(H  15,C  12)                  1.0908         0.359077   
     21. B(H  16,C  12)                  1.0888         0.361694   
     22. B(C  17,N   6)                  1.2764         0.831004   
     23. B(C  18,C  17)                  1.4262         0.535826   
     24. B(H  19,C  17)                  1.0855         0.366162   
     25. B(C  20,Ir  0)                  2.1286         0.082408 C 
     26. B(C  20,C  18)                  1.3933         0.619286   
     27. B(C  21,C  20)                  1.4270         0.546444   
     28. B(S  22,C  18)                  1.6987         0.541941   
     29. B(C  23,C  21)                  1.3626         0.690478   
     30. B(C  23,S  22)                  1.7112         0.516517   
     31. B(H  24,C  20)                  1.3225         0.153222   
     32. B(H  25,C  21)                  1.0804         0.373046   
     33. B(H  26,C  23)                  1.0795         0.374331   
     34. B(H  27,C   1)                  1.0802         0.373254   
     35. B(H  28,C   2)                  1.0793         0.374498   
     36. B(H  29,C   5)                  1.0809         0.372282   
     37. B(O  30,H  24)                  1.3429         0.120879 C 
     38. B(O  31,Ir  0)                  2.0699         0.107275   
     39. B(C  32,O  30)                  1.2446         0.942858   
     40. B(C  32,O  31)                  1.2672         0.869680   
     41. B(C  33,C  32)                  1.4996         0.417678   
     42. B(H  34,C  33)                  1.0878         0.363077   
     43. B(H  35,C  33)                  1.0913         0.358379   
     44. B(H  36,C  33)                  1.0862         0.365175   
     45. B(H  37,C   3)                  1.0790         0.374984   
     46. B(H  38,C   4)                  1.0802         0.373249   
     47. A(C   3,Ir  0,C  20)          104.0196         0.244547   
     48. A(C   2,Ir  0,N   6)          107.8555         0.246219   
     49. A(C   5,Ir  0,C  20)          141.1056         0.241141   
     50. A(C   2,Ir  0,C   5)           37.7406         0.238881   
     51. A(N   6,Ir  0,O  31)           82.9085         0.257193   
     52. A(N   6,Ir  0,C  20)           77.5406         0.248589   
     53. A(C   4,Ir  0,C   5)           63.6654         0.242461   
     54. A(C   1,Ir  0,C   4)           38.1245         0.246649   
     55. A(C   5,Ir  0,O  31)           92.8138         0.249343   
     56. A(C   3,Ir  0,C   4)           38.7590         0.245896   
     57. A(C   1,Ir  0,O  31)          147.6687         0.253719   
     58. A(C   1,Ir  0,N   6)          101.3975         0.249323   
     59. A(C   4,Ir  0,N   6)          127.2117         0.249974   
     60. A(C   2,Ir  0,C   3)           64.1608         0.242237   
     61. A(C   3,Ir  0,O  31)          111.1483         0.252933   
     62. A(C   1,Ir  0,C   2)           38.6275         0.242971   
     63. A(C   4,Ir  0,C  20)           91.2201         0.245928   
     64. A(C   2,Ir  0,C  20)          153.0879         0.242267   
     65. A(C   1,Ir  0,C  20)          114.8329         0.245293   
     66. A(C   1,Ir  0,C   3)           64.4364         0.245262   
     67. A(C   1,Ir  0,C   5)           63.6391         0.241840   
     68. A(C   2,Ir  0,O  31)          109.3274         0.250530   
     69. A(C   5,Ir  0,N   6)          141.1462         0.245064   
     70. A(C   2,Ir  0,C   4)           64.1723         0.243597   
     71. A(C   4,Ir  0,O  31)          149.8601         0.254388   
     72. A(C   3,Ir  0,C   5)           37.9793         0.241110   
     73. A(C   3,Ir  0,N   6)          165.2606         0.248558   
     74. A(C  20,Ir  0,O  31)           97.4361         0.252965   
     75. A(C   2,C   1,H  27)          126.2175         0.344633   
     76. A(C   4,C   1,H  27)          125.6188         0.350661   
     77. A(Ir  0,C   1,C   2)           71.5655         0.312641   
     78. A(Ir  0,C   1,H  27)          124.3929         0.268471   
     79. A(C   2,C   1,C   4)          108.1511         0.415060   
     80. A(Ir  0,C   1,C   4)           70.7538         0.317915   
     81. A(Ir  0,C   2,C   1)           69.8071         0.308312   
     82. A(C   1,C   2,C   5)          107.1509         0.413640   
     83. A(Ir  0,C   2,H  28)          126.9680         0.265130   
     84. A(C   5,C   2,H  28)          125.9531         0.349719   
     85. A(Ir  0,C   2,C   5)           71.4602         0.312507   
     86. A(C   1,C   2,H  28)          126.7791         0.344825   
     87. A(C   4,C   3,H  37)          126.6249         0.345432   
     88. A(C   5,C   3,H  37)          126.1935         0.349155   
     89. A(C   4,C   3,C   5)          107.0324         0.413516   
     90. A(Ir  0,C   3,C   4)           70.2255         0.312037   
     91. A(Ir  0,C   3,C   5)           72.0149         0.315274   
     92. A(Ir  0,C   3,H  37)          126.3710         0.267802   
     93. A(Ir  0,C   4,C   1)           71.1217         0.318845   
     94. A(C   3,C   4,H  38)          125.9942         0.345163   
     95. A(Ir  0,C   4,C   3)           71.0155         0.314017   
     96. A(Ir  0,C   4,H  38)          123.4123         0.269200   
     97. A(C   1,C   4,H  38)          125.5905         0.350661   
     98. A(C   1,C   4,C   3)          108.4143         0.415737   
     99. A(Ir  0,C   5,H  29)          122.0237         0.263600   
    100. A(C   2,C   5,H  29)          125.3087         0.349369   
    101. A(C   3,C   5,H  29)          125.3264         0.348729   
    102. A(Ir  0,C   5,C   3)           70.0059         0.310319   
    103. A(C   2,C   5,C   3)          109.2243         0.419037   
    104. A(Ir  0,C   5,C   2)           70.7992         0.310864   
    105. A(Ir  0,N   6,C  17)          116.2240         0.340875   
    106. A(C   7,N   6,C  17)          121.6793         0.420188   
    107. A(Ir  0,N   6,C   7)          122.0942         0.304253   
    108. A(C   8,C   7,H  13)          108.0551         0.325650   
    109. A(C  12,C   7,H  13)          108.8550         0.325164   
    110. A(N   6,C   7,C   8)          113.7687         0.369474   
    111. A(N   6,C   7,C  12)          109.3568         0.368898   
    112. A(C   8,C   7,C  12)          111.4223         0.366366   
    113. A(N   6,C   7,H  13)          105.0874         0.327810   
    114. A(C   7,C   8,H   9)          108.8442         0.326077   
    115. A(C   7,C   8,H  10)          112.9202         0.325688   
    116. A(H   9,C   8,H  10)          106.5708         0.290892   
    117. A(C   7,C   8,H  11)          111.9497         0.325810   
    118. A(H   9,C   8,H  11)          107.4783         0.290996   
    119. A(H  10,C   8,H  11)          108.7985         0.290665   
    120. A(C   7,C  12,H  14)          109.9627         0.325508   
    121. A(C   7,C  12,H  15)          111.0970         0.325213   
    122. A(H  14,C  12,H  15)          107.8075         0.290831   
    123. A(C   7,C  12,H  16)          112.1215         0.325602   
    124. A(H  14,C  12,H  16)          107.5221         0.291163   
    125. A(H  15,C  12,H  16)          108.1649         0.290911   
    126. A(N   6,C  17,C  18)          115.2667         0.442805   
    127. A(N   6,C  17,H  19)          122.2817         0.369737   
    128. A(C  18,C  17,H  19)          122.4285         0.345302   
    129. A(C  17,C  18,S  22)          128.0699         0.435576   
    130. A(C  20,C  18,S  22)          113.5647         0.447120   
    131. A(C  17,C  18,C  20)          118.2591         0.422769   
    132. A(C  18,C  20,C  21)          109.7484         0.424255   
    133. A(Ir  0,C  20,H  24)           82.2600         0.235044   
    134. A(C  18,C  20,H  24)          111.2533         0.306444   
    135. A(C  21,C  20,H  24)          108.3238         0.300371   
    136. A(Ir  0,C  20,C  18)          107.7769         0.320639   
    137. A(Ir  0,C  20,C  21)          133.2992         0.314170   
    138. A(C  20,C  21,C  23)          113.0955         0.432615   
    139. A(C  20,C  21,H  25)          124.0698         0.347531   
    140. A(C  23,C  21,H  25)          122.7247         0.361589   
    141. A(C  18,S  22,C  23)           91.0434         0.456839   
    142. A(C  21,C  23,S  22)          112.5398         0.452079   
    143. A(C  21,C  23,H  26)          127.7143         0.361802   
    144. A(S  22,C  23,H  26)          119.7308         0.362388   
    145. L(C  20,H  24,O  30,Ir  0, 1) 182.7719         0.217417   
    146. L(C  20,H  24,O  30,Ir  0, 2) 184.3021         0.217417   
    147. A(H  24,O  30,C  32)          107.3515         0.311167   
    148. A(Ir  0,O  31,C  32)          125.2861         0.350460   
    149. A(O  30,C  32,O  31)          123.6362         0.491898   
    150. A(O  30,C  32,C  33)          118.9331         0.433105   
    151. A(O  31,C  32,C  33)          117.4190         0.426870   
    152. A(C  32,C  33,H  34)          110.5443         0.330788   
    153. A(C  32,C  33,H  35)          108.8947         0.330076   
    154. A(H  34,C  33,H  35)          107.1041         0.290997   
    155. A(C  32,C  33,H  36)          111.6666         0.331104   
    156. A(H  34,C  33,H  36)          110.1503         0.291857   
    157. A(H  35,C  33,H  36)          108.3382         0.291260   
    158. D(C   4,C   1,Ir  0,C   5)    -80.1837         0.001695   
    159. D(H  27,C   1,Ir  0,C   5)    159.2490         0.001695   
    160. D(C   4,C   1,Ir  0,C  20)     56.5191         0.001695   
    161. D(C   2,C   1,Ir  0,N   6)   -104.4050         0.001695   
    162. D(C   2,C   1,Ir  0,C   3)     79.9018         0.001695   
    163. D(H  27,C   1,Ir  0,C   3)   -158.3234         0.001695   
    164. D(C   4,C   1,Ir  0,N   6)    137.9371         0.001695   
    165. D(H  27,C   1,Ir  0,O  31)    112.1319         0.001695   
    166. D(C   2,C   1,Ir  0,C   4)    117.6578         0.001695   
    167. D(H  27,C   1,Ir  0,C  20)    -64.0483         0.001695   
    168. D(C   2,C   1,Ir  0,C  20)    174.1769         0.001695   
    169. D(C   4,C   1,Ir  0,C   3)    -37.7560         0.001695   
    170. D(C   4,C   1,Ir  0,C   2)   -117.6578         0.001695   
    171. D(C   2,C   1,Ir  0,C   5)     37.4742         0.001695   
    172. D(H  27,C   1,Ir  0,C   4)   -120.5673         0.001695   
    173. D(C   4,C   1,Ir  0,O  31)   -127.3008         0.001695   
    174. D(H  27,C   1,Ir  0,C   2)    121.7748         0.001695   
    175. D(C   2,C   1,Ir  0,O  31)     -9.6429         0.001695   
    176. D(H  27,C   1,Ir  0,N   6)     17.3698         0.001695   
    177. D(C   1,C   2,Ir  0,C   5)   -117.0485         0.001664   
    178. D(H  28,C   2,C   1,C   4)   -176.6825         0.021426   
    179. D(C   5,C   2,C   1,H  27)    178.3108         0.021426   
    180. D(C   1,C   2,Ir  0,N   6)     85.9543         0.001664   
    181. D(C   1,C   2,Ir  0,C   3)    -80.6767         0.001664   
    182. D(C   1,C   2,Ir  0,C   4)    -37.4100         0.001664   
    183. D(H  28,C   2,C   1,Ir  0)    121.6722         0.021426   
    184. D(C   5,C   2,Ir  0,C  20)    105.3110         0.001664   
    185. D(H  28,C   2,Ir  0,C   1)   -121.4415         0.001664   
    186. D(H  28,C   2,C   1,H  27)      2.0747         0.021426   
    187. D(H  28,C   2,Ir  0,N   6)    -35.4872         0.001664   
    188. D(C   5,C   2,Ir  0,C   3)     36.3718         0.001664   
    189. D(H  28,C   2,Ir  0,C  20)   -133.1790         0.001664   
    190. D(C   5,C   2,C   1,Ir  0)    -62.0917         0.021426   
    191. D(Ir  0,C   2,C   1,H  27)   -119.5975         0.021426   
    192. D(H  28,C   2,Ir  0,C   3)    157.8817         0.001664   
    193. D(C   5,C   2,Ir  0,N   6)   -156.9972         0.001664   
    194. D(C   5,C   2,Ir  0,C   1)    117.0485         0.001664   
    195. D(C   5,C   2,Ir  0,C   4)     79.6386         0.001664   
    196. D(H  28,C   2,Ir  0,O  31)     53.1109         0.001664   
    197. D(C   5,C   2,Ir  0,O  31)    -68.3991         0.001664   
    198. D(H  28,C   2,Ir  0,C   5)    121.5100         0.001664   
    199. D(C   1,C   2,Ir  0,C  20)    -11.7375         0.001664   
    200. D(C   1,C   2,Ir  0,O  31)    174.5524         0.001664   
    201. D(Ir  0,C   2,C   1,C   4)     61.6453         0.021426   
    202. D(C   5,C   2,C   1,C   4)     -0.4464         0.021426   
    203. D(H  28,C   2,Ir  0,C   4)   -158.8515         0.001664   
    204. D(C   4,C   3,Ir  0,C   2)     80.2109         0.001687   
    205. D(H  37,C   3,Ir  0,C   1)    158.6475         0.001687   
    206. D(H  37,C   3,Ir  0,C   5)   -122.1387         0.001687   
    207. D(C   4,C   3,Ir  0,O  31)   -177.8450         0.001687   
    208. D(H  37,C   3,Ir  0,C   2)   -158.2853         0.001687   
    209. D(C   5,C   3,Ir  0,C   1)    -79.2138         0.001687   
    210. D(C   4,C   3,Ir  0,N   6)     20.3247         0.001687   
    211. D(C   5,C   3,Ir  0,O  31)     65.7975         0.001687   
    212. D(H  37,C   3,Ir  0,C   4)    121.5038         0.001687   
    213. D(C   5,C   3,Ir  0,C   4)   -116.3575         0.001687   
    214. D(H  37,C   3,Ir  0,N   6)    141.8285         0.001687   
    215. D(C   4,C   3,Ir  0,C   1)     37.1438         0.001687   
    216. D(C   4,C   3,Ir  0,C  20)    -73.9812         0.001687   
    217. D(C   5,C   3,Ir  0,C   2)    -36.1466         0.001687   
    218. D(C   5,C   3,Ir  0,N   6)    -96.0328         0.001687   
    219. D(C   4,C   3,Ir  0,C   5)    116.3575         0.001687   
    220. D(C   5,C   3,Ir  0,C  20)    169.6613         0.001687   
    221. D(H  37,C   3,Ir  0,C  20)     47.5226         0.001687   
    222. D(H  37,C   3,Ir  0,O  31)    -56.3412         0.001687   
    223. D(C   1,C   4,Ir  0,C  20)   -130.7890         0.001702   
    224. D(C   1,C   4,Ir  0,C   2)     37.9001         0.001702   
    225. D(C   3,C   4,Ir  0,C   2)    -80.1788         0.001702   
    226. D(C   1,C   4,Ir  0,C   5)     80.1085         0.001702   
    227. D(C   1,C   4,Ir  0,N   6)    -55.5502         0.001702   
    228. D(C   3,C   4,Ir  0,C   5)    -37.9704         0.001702   
    229. D(C   3,C   4,Ir  0,C   1)   -118.0789         0.001702   
    230. D(C   1,C   4,Ir  0,O  31)    122.0840         0.001702   
    231. D(C   1,C   4,Ir  0,C   3)    118.0789         0.001702   
    232. D(H  38,C   4,C   1,Ir  0)   -118.0941         0.026569   
    233. D(C   3,C   4,Ir  0,C  20)    111.1320         0.001702   
    234. D(C   3,C   4,Ir  0,O  31)      4.0051         0.001702   
    235. D(Ir  0,C   4,C   1,C   2)    -62.1640         0.026569   
    236. D(H  38,C   4,Ir  0,C   1)    120.7486         0.001702   
    237. D(H  38,C   4,Ir  0,C   3)   -121.1725         0.001702   
    238. D(H  38,C   4,Ir  0,C   5)   -159.1429         0.001702   
    239. D(H  38,C   4,Ir  0,N   6)     65.1984         0.001702   
    240. D(H  38,C   4,Ir  0,C  20)    -10.0404         0.001702   
    241. D(H  38,C   4,Ir  0,C   2)    158.6487         0.001702   
    242. D(Ir  0,C   4,C   1,H  27)    119.0693         0.026569   
    243. D(H  38,C   4,Ir  0,O  31)   -117.1674         0.001702   
    244. D(C   3,C   4,C   1,Ir  0)     61.5620         0.026569   
    245. D(C   3,C   4,C   1,C   2)     -0.6020         0.026569   
    246. D(H  38,C   4,C   1,C   2)    179.7418         0.026569   
    247. D(C   3,C   4,Ir  0,N   6)   -173.6292         0.001702   
    248. D(C   3,C   4,C   1,H  27)   -179.3686         0.026569   
    249. D(Ir  0,C   4,C   3,H  37)   -121.1954         0.021836   
    250. D(Ir  0,C   4,C   3,C   5)     63.0438         0.021836   
    251. D(H  38,C   4,C   3,C   5)   -178.9311         0.021836   
    252. D(C   1,C   4,C   3,C   5)      1.4144         0.021836   
    253. D(C   1,C   4,C   3,H  37)    177.1752         0.021836   
    254. D(H  38,C   4,C   3,Ir  0)    118.0251         0.021836   
    255. D(H  38,C   4,C   1,H  27)      0.9752         0.026569   
    256. D(H  38,C   4,C   3,H  37)     -3.1704         0.021836   
    257. D(C   1,C   4,C   3,Ir  0)    -61.6294         0.021836   
    258. D(H  29,C   5,C   2,H  28)     -6.5105         0.025512   
    259. D(C   2,C   5,Ir  0,C   4)    -81.1006         0.001654   
    260. D(C   2,C   5,Ir  0,C   3)   -119.8505         0.001654   
    261. D(C   3,C   5,C   2,C   1)      1.3429         0.025512   
    262. D(C   2,C   5,Ir  0,C  20)   -135.9504         0.001654   
    263. D(C   2,C   5,Ir  0,O  31)    118.5464         0.001654   
    264. D(H  29,C   5,Ir  0,O  31)     -1.7228         0.001654   
    265. D(C   3,C   5,Ir  0,C   2)    119.8505         0.001654   
    266. D(C   3,C   5,Ir  0,C   4)     38.7499         0.001654   
    267. D(C   3,C   5,Ir  0,N   6)    156.2143         0.001654   
    268. D(C   3,C   5,Ir  0,C  20)    -16.0999         0.001654   
    269. D(C   3,C   5,Ir  0,O  31)   -121.6031         0.001654   
    270. D(H  29,C   5,Ir  0,C   1)   -158.6216         0.001654   
    271. D(H  29,C   5,Ir  0,C   2)   -120.2692         0.001654   
    272. D(H  29,C   5,Ir  0,C   3)    119.8803         0.001654   
    273. D(H  29,C   5,Ir  0,C   4)    158.6302         0.001654   
    274. D(H  29,C   5,Ir  0,N   6)    -83.9053         0.001654   
    275. D(C   3,C   5,Ir  0,C   1)     81.4981         0.001654   
    276. D(H  29,C   5,Ir  0,C  20)    103.7804         0.001654   
    277. D(Ir  0,C   5,C   2,C   1)     61.0190         0.025512   
    278. D(Ir  0,C   5,C   2,H  28)   -122.7051         0.025512   
    279. D(C   2,C   5,Ir  0,N   6)     36.3638         0.001654   
    280. D(C   3,C   5,C   2,Ir  0)    -59.6761         0.025512   
    281. D(H  29,C   5,C   2,Ir  0)    116.1946         0.025512   
    282. D(C   3,C   5,C   2,H  28)    177.6188         0.025512   
    283. D(C   2,C   5,Ir  0,C   1)    -38.3524         0.001654   
    284. D(H  29,C   5,C   2,C   1)    177.2136         0.025512   
    285. D(H  29,C   5,C   3,H  37)      6.6393         0.024936   
    286. D(Ir  0,C   5,C   3,H  37)    122.3454         0.024936   
    287. D(C   2,C   5,C   3,Ir  0)     60.1638         0.024936   
    288. D(C   2,C   5,C   3,C   4)     -1.7066         0.024936   
    289. D(C   2,C   5,C   3,H  37)   -177.4909         0.024936   
    290. D(H  29,C   5,C   3,Ir  0)   -115.7060         0.024936   
    291. D(Ir  0,C   5,C   3,C   4)    -61.8703         0.024936   
    292. D(H  29,C   5,C   3,C   4)   -177.5764         0.024936   
    293. D(C   7,N   6,Ir  0,C   1)     79.9084         0.001768   
    294. D(C   7,N   6,Ir  0,C   2)     40.4716         0.001768   
    295. D(C   7,N   6,Ir  0,C   3)     95.3511         0.001768   
    296. D(C   7,N   6,Ir  0,C   4)    111.1964         0.001768   
    297. D(C   7,N   6,Ir  0,C   5)     18.0587         0.001768   
    298. D(C   7,N   6,Ir  0,C  20)   -166.8747         0.001768   
    299. D(C   7,N   6,Ir  0,O  31)    -67.6069         0.001768   
    300. D(C  17,N   6,Ir  0,C   1)   -100.6552         0.001768   
    301. D(C  17,N   6,Ir  0,C   2)   -140.0919         0.001768   
    302. D(C  17,N   6,Ir  0,C   3)    -85.2124         0.001768   
    303. D(C  17,N   6,Ir  0,C   4)    -69.3672         0.001768   
    304. D(C  17,N   6,Ir  0,C   5)   -162.5048         0.001768   
    305. D(C  17,N   6,Ir  0,C  20)     12.5617         0.001768   
    306. D(C  17,N   6,Ir  0,O  31)    111.8296         0.001768   
    307. D(C   8,C   7,N   6,Ir  0)    148.8976         0.014693   
    308. D(C   8,C   7,N   6,C  17)    -30.5083         0.014693   
    309. D(C  12,C   7,N   6,Ir  0)    -85.8123         0.014693   
    310. D(C  12,C   7,N   6,C  17)     94.7818         0.014693   
    311. D(H  13,C   7,N   6,Ir  0)     30.8976         0.014693   
    312. D(H  13,C   7,N   6,C  17)   -148.5084         0.014693   
    313. D(H   9,C   8,C   7,N   6)   -170.2718         0.011766   
    314. D(H   9,C   8,C   7,C  12)     65.5454         0.011766   
    315. D(H   9,C   8,C   7,H  13)    -53.9948         0.011766   
    316. D(H  10,C   8,C   7,N   6)     71.5971         0.011766   
    317. D(H  10,C   8,C   7,C  12)    -52.5857         0.011766   
    318. D(H  10,C   8,C   7,H  13)   -172.1260         0.011766   
    319. D(H  11,C   8,C   7,N   6)    -51.6061         0.011766   
    320. D(H  11,C   8,C   7,C  12)   -175.7889         0.011766   
    321. D(H  11,C   8,C   7,H  13)     64.6708         0.011766   
    322. D(H  14,C  12,C   7,N   6)    175.1911         0.011565   
    323. D(H  14,C  12,C   7,C   8)    -58.1728         0.011565   
    324. D(H  14,C  12,C   7,H  13)     60.8918         0.011565   
    325. D(H  15,C  12,C   7,N   6)    -65.5417         0.011565   
    326. D(H  15,C  12,C   7,C   8)     61.0944         0.011565   
    327. D(H  15,C  12,C   7,H  13)   -179.8410         0.011565   
    328. D(H  16,C  12,C   7,N   6)     55.6251         0.011565   
    329. D(H  16,C  12,C   7,C   8)   -177.7388         0.011565   
    330. D(H  16,C  12,C   7,H  13)    -58.6742         0.011565   
    331. D(C  18,C  17,N   6,Ir  0)     -3.3199         0.059439   
    332. D(C  18,C  17,N   6,C   7)    176.1191         0.059439   
    333. D(H  19,C  17,N   6,Ir  0)    178.3881         0.059439   
    334. D(H  19,C  17,N   6,C   7)     -2.1729         0.059439   
    335. D(C  20,C  18,C  17,N   6)    -14.8241         0.019609   
    336. D(C  20,C  18,C  17,H  19)    163.4651         0.019609   
    337. D(S  22,C  18,C  17,N   6)    161.1637         0.019609   
    338. D(S  22,C  18,C  17,H  19)    -20.5470         0.019609   
    339. D(C  18,C  20,Ir  0,C   1)     78.5433         0.001687   
    340. D(H  24,C  20,C  18,C  17)    -64.5410         0.028834   
    341. D(C  18,C  20,Ir  0,C   3)    146.5482         0.001687   
    342. D(C  18,C  20,Ir  0,C   4)    109.5440         0.001687   
    343. D(Ir  0,C  20,C  18,C  17)     23.9091         0.028834   
    344. D(C  18,C  20,Ir  0,N   6)    -18.3922         0.001687   
    345. D(C  18,C  20,Ir  0,O  31)    -99.3975         0.001687   
    346. D(H  24,C  20,Ir  0,C   4)   -140.5431         0.001687   
    347. D(C  21,C  20,Ir  0,C   2)    -55.5689         0.001687   
    348. D(C  21,C  20,Ir  0,C   3)      4.3922         0.001687   
    349. D(C  21,C  20,Ir  0,C   4)    -32.6120         0.001687   
    350. D(C  21,C  20,Ir  0,C   5)     14.5227         0.001687   
    351. D(C  21,C  20,Ir  0,N   6)   -160.5482         0.001687   
    352. D(C  21,C  20,Ir  0,O  31)    118.4465         0.001687   
    353. D(H  24,C  20,Ir  0,C   1)   -171.5438         0.001687   
    354. D(H  24,C  20,Ir  0,C   2)   -163.5000         0.001687   
    355. D(C  21,C  20,Ir  0,C   1)    -63.6127         0.001687   
    356. D(H  24,C  20,Ir  0,C   3)   -103.5389         0.001687   
    357. D(H  24,C  20,Ir  0,C   5)    -93.4084         0.001687   
    358. D(H  24,C  20,Ir  0,N   6)     91.5207         0.001687   
    359. D(C  18,C  20,Ir  0,C   5)    156.6787         0.001687   
    360. D(H  24,C  20,Ir  0,O  31)     10.5153         0.001687   
    361. D(Ir  0,C  20,C  18,S  22)   -152.6456         0.028834   
    362. D(C  21,C  20,C  18,C  17)    175.5884         0.028834   
    363. D(C  18,C  20,Ir  0,C   2)     86.5871         0.001687   
    364. D(C  21,C  20,C  18,S  22)     -0.9663         0.028834   
    365. D(H  24,C  20,C  18,S  22)    118.9043         0.028834   
    366. D(C  23,C  21,C  20,Ir  0)    142.5076         0.022156   
    367. D(C  23,C  21,C  20,C  18)      0.8769         0.022156   
    368. D(C  23,C  21,C  20,H  24)   -120.7651         0.022156   
    369. D(H  25,C  21,C  20,Ir  0)    -41.2214         0.022156   
    370. D(H  25,C  21,C  20,C  18)    177.1479         0.022156   
    371. D(H  25,C  21,C  20,H  24)     55.5058         0.022156   
    372. D(C  23,S  22,C  18,C  17)   -175.5053         0.005889   
    373. D(C  23,S  22,C  18,C  20)      0.6395         0.005889   
    374. D(S  22,C  23,C  21,C  20)     -0.4223         0.033502   
    375. D(S  22,C  23,C  21,H  25)   -176.7506         0.033502   
    376. D(H  26,C  23,C  21,C  20)    178.1427         0.033502   
    377. D(H  26,C  23,C  21,H  25)      1.8143         0.033502   
    378. D(C  21,C  23,S  22,C  18)     -0.1152         0.005467   
    379. D(H  26,C  23,S  22,C  18)   -178.8079         0.005467   
    380. D(C  32,O  30,C  20,Ir  0)    -10.2008         0.001502   
    381. D(C  32,O  30,C  20,C  18)     96.4661         0.001502   
    382. D(C  32,O  30,C  20,C  21)   -143.9149         0.001502   
    383. D(C  32,O  31,Ir  0,C   1)    170.7185         0.001822   
    384. D(C  32,O  31,Ir  0,C   2)    164.3564         0.001822   
    385. D(C  32,O  31,Ir  0,C   3)     95.4292         0.001822   
    386. D(C  32,O  31,Ir  0,C   4)     92.7420         0.001822   
    387. D(C  32,O  31,Ir  0,C   5)    129.6209         0.001822   
    388. D(C  32,O  31,Ir  0,N   6)    -89.1564         0.001822   
    389. D(C  32,O  31,Ir  0,C  20)    -12.7771         0.001822   
    390. D(O  31,C  32,O  30,H  24)      2.1689         0.071556   
    391. D(C  33,C  32,O  30,H  24)   -179.1141         0.071556   
    392. D(O  30,C  32,O  31,Ir  0)      5.0510         0.059531   
    393. D(C  33,C  32,O  31,Ir  0)   -173.6840         0.059531   
    394. D(H  34,C  33,C  32,O  30)     39.6626         0.012904   
    395. D(H  34,C  33,C  32,O  31)   -141.5408         0.012904   
    396. D(H  35,C  33,C  32,O  30)    -77.7403         0.012904   
    397. D(H  35,C  33,C  32,O  31)    101.0563         0.012904   
    398. D(H  36,C  33,C  32,O  30)    162.6689         0.012904   
    399. D(H  36,C  33,C  32,O  31)    -18.5344         0.012904   
    -----------------------------------------------------------------

Number of atoms                         .... 39
Number of degrees of freedom            .... 399

         *************************************************************
         *                GEOMETRY OPTIMIZATION CYCLE   1            *
         *************************************************************
---------------------------------
CARTESIAN COORDINATES (ANGSTROEM)
---------------------------------
  Ir     0.610911   -0.725134    0.427581
  C      0.139359   -2.836711    0.335829
  C     -0.081022   -2.378946    1.683630
  C      2.153829   -2.062628    1.165690
  C      1.505192   -2.650597    0.025546
  C      1.168162   -1.926505    2.181331
  N     -1.070274    0.117265   -0.512844
  C     -2.346350    0.310391    0.193665
  C     -3.142203    1.512552   -0.294722
  H     -3.974583    1.683430    0.386132
  H     -3.575662    1.361501   -1.284274
  H     -2.539846    2.421119   -0.309997
  C     -3.167858   -0.971472    0.112695
  H     -2.070801    0.487440    1.234370
  H     -4.076875   -0.868591    0.703997
  H     -3.461380   -1.185384   -0.915838
  H     -2.622989   -1.832565    0.496269
  C     -0.919974    0.463813   -1.732025
  C      0.395874    0.294190   -2.255323
  H     -1.730105    0.884750   -2.319164
  C      1.440715    0.083922   -1.357824
  C      2.649684   -0.163003   -2.074567
  S      0.874126    0.220527   -3.883671
  C      2.489010   -0.113603   -3.426765
  H      1.625541    1.138632   -0.581633
  H      3.611623   -0.311886   -1.605738
  H      3.245882   -0.236336   -4.186615
  H     -0.601804   -3.268441   -0.320824
  H     -1.004397   -2.428973    2.240257
  H      1.329381   -1.481554    3.153170
  O      1.760592    2.269398    0.129982
  O      0.560825    1.032256    1.520034
  C      1.147105    2.109445    1.201032
  C      1.113021    3.234014    2.192535
  H      0.993628    4.188018    1.683756
  H      2.067619    3.268946    2.720236
  H      0.322375    3.099047    2.924985
  H      3.204259   -1.835991    1.262777
  H      1.976780   -2.903145   -0.912938

----------------------------
CARTESIAN COORDINATES (A.U.)
----------------------------
  NO LB      ZA    FRAG     MASS         X           Y           Z
   0 Ir   17.0000*   0   192.220    1.154454   -1.370304    0.808012
   1 C     6.0000    0    12.011    0.263349   -5.360608    0.634625
   2 C     6.0000    0    12.011   -0.153109   -4.495556    3.181599
   3 C     6.0000    0    12.011    4.070147   -3.897802    2.202836
   4 C     6.0000    0    12.011    2.844401   -5.008902    0.048275
   5 C     6.0000    0    12.011    2.207506   -3.640567    4.122118
   6 N     7.0000    0    14.007   -2.022525    0.221600   -0.969135
   7 C     6.0000    0    12.011   -4.433960    0.586554    0.365975
   8 C     6.0000    0    12.011   -5.937904    2.858309   -0.556944
   9 H     1.0000    0     1.008   -7.510873    3.181222    0.729684
  10 H     1.0000    0     1.008   -6.757021    2.572864   -2.426926
  11 H     1.0000    0     1.008   -4.799614    4.575252   -0.585810
  12 C     6.0000    0    12.011   -5.986383   -1.835816    0.212963
  13 H     1.0000    0     1.008   -3.913247    0.921127    2.332621
  14 H     1.0000    0     1.008   -7.704177   -1.641400    1.330362
  15 H     1.0000    0     1.008   -6.541061   -2.240051   -1.730683
  16 H     1.0000    0     1.008   -4.956731   -3.463047    0.937812
  17 C     6.0000    0    12.011   -1.738498    0.876479   -3.273053
  18 C     6.0000    0    12.011    0.748093    0.555939   -4.261942
  19 H     1.0000    0     1.008   -3.269425    1.671935   -4.382584
  20 C     6.0000    0    12.011    2.722557    0.158589   -2.565915
  21 C     6.0000    0    12.011    5.007178   -0.308031   -3.920364
  22 S    16.0000    0    32.060    1.651859    0.416735   -7.339074
  23 C     6.0000    0    12.011    4.703548   -0.214678   -6.475647
  24 H     1.0000    0     1.008    3.071828    2.151704   -1.099126
  25 H     1.0000    0     1.008    6.824977   -0.589379   -3.034405
  26 H     1.0000    0     1.008    6.133829   -0.446610   -7.911556
  27 H     1.0000    0     1.008   -1.137244   -6.176459   -0.606270
  28 H     1.0000    0     1.008   -1.898035   -4.590095    4.233473
  29 H     1.0000    0     1.008    2.512165   -2.799731    5.958628
  30 O     8.0000    0    15.999    3.327036    4.288541    0.245631
  31 O     8.0000    0    15.999    1.059805    1.950680    2.872449
  32 C     6.0000    0    12.011    2.167714    3.986274    2.269621
  33 C     6.0000    0    12.011    2.103306    6.111401    4.143290
  34 H     1.0000    0     1.008    1.877685    7.914207    3.181838
  35 H     1.0000    0     1.008    3.907233    6.177413    5.140502
  36 H     1.0000    0     1.008    0.609200    5.856350    5.527421
  37 H     1.0000    0     1.008    6.055172   -3.469520    2.386302
  38 H     1.0000    0     1.008    3.735573   -5.486149   -1.725202
* core charge reduced due to ECP

--------------------------------
INTERNAL COORDINATES (ANGSTROEM)
--------------------------------
 Ir     0   0   0     0.000000000000     0.00000000     0.00000000
 C      1   0   0     2.165915601083     0.00000000     0.00000000
 C      2   1   0     1.440183723506    71.57561739     0.00000000
 C      1   2   3     2.171668045429    64.39607181    79.82719631
 C      2   1   3     1.412150193481    70.76502708   242.38469069
 C      3   2   1     1.417396000105   107.17423459   297.88072301
 N      1   2   3     2.102176088416   101.46606619   255.49046030
 C      7   1   2     1.471326202408   122.03455171    79.83476829
 C      8   7   1     1.522193027600   113.76868521   148.89063119
 H      9   8   7     1.088854909503   108.84422716   189.72827961
 H      9   8   7     1.090829309100   112.92000266    71.59718894
 H      9   8   7     1.090210203435   111.94977699   308.39380767
 C      8   7   1     1.524663214756   109.35670432   274.18071660
 H      8   7   1     1.091023844356   105.08739672    30.89083857
 H     13   8   7     1.089275544809   109.96257931   175.19107290
 H     13   8   7     1.090774228428   111.09721892   294.45833476
 H     13   8   7     1.088797554615   112.12156553    55.62512388
 C      7   1   2     1.282363359551   116.34659947   259.25727758
 C     18   7   1     1.431815787435   115.96360583   356.48905352
 H     18   7   1     1.085455401579   121.93626445   178.30336846
 C     19  18   7     1.392411307167   118.24053325   345.17445378
 C     21  19  18     1.426474614116   109.92486724   175.55095842
 S     19  18   7     1.698727018873   128.18474114   161.20166840
 C     22  21  19     1.362790252179   112.98647835     0.96576519
 H     21  19  18     1.322601487474   111.25802887   295.78903503
 H     22  21  19     1.080385625088   124.12045664   177.24412349
 H     24  22  21     1.079449143659   127.71163254   178.13176463
 H      2   1   3     1.080233799363   124.37721689   121.79833379
 H      3   2   1     1.079327798076   126.78104485   121.65512442
 H      6   3   2     1.080943610789   125.29789658   177.22102642
 O     25  21  19     1.357142850742   175.51945631   344.10264296
 O      1   2   3     2.069642665528   147.72098876   350.36650705
 C     31  25  21     1.247988050085   107.74933574   112.19550814
 C     33  31  25     1.499623372643   118.70061982   180.88380548
 H     34  33  31     1.087759131043   110.54420399    39.61273494
 H     34  33  31     1.091304396007   108.89479734   282.20974626
 H     34  33  31     1.086190286567   111.66644866   162.61882741
 H      4   1   2     1.078974833429   126.35454210   158.66300658
 H      5   2   1     1.080237124228   125.58737854   241.91691933

---------------------------
INTERNAL COORDINATES (A.U.)
---------------------------
 Ir     0   0   0     0.000000000000     0.00000000     0.00000000
 C      1   0   0     4.092987315235     0.00000000     0.00000000
 C      2   1   0     2.721552819957    71.57561739     0.00000000
 C      1   2   3     4.103857859649    64.39607181    79.82719631
 C      2   1   3     2.668577125643    70.76502708   242.38469069
 C      3   2   1     2.678490263514   107.17423459   297.88072301
 N      1   2   3     3.972537092384   101.46606619   255.49046030
 C      7   1   2     2.780403576214   122.03455171    79.83476829
 C      8   7   1     2.876527945129   113.76868521   148.89063119
 H      9   8   7     2.057637578536   108.84422716   189.72827961
 H      9   8   7     2.061368653053   112.92000266    71.59718894
 H      9   8   7     2.060198712899   111.94977699   308.39380767
 C      8   7   1     2.881195922354   109.35670432   274.18071660
 H      8   7   1     2.061736271410   105.08739672    30.89083857
 H     13   8   7     2.058432464066   109.96257931   175.19107290
 H     13   8   7     2.061264565668   111.09721892   294.45833476
 H     13   8   7     2.057529193505   112.12156553    55.62512388
 C      7   1   2     2.423315553727   116.34659947   259.25727758
 C     18   7   1     2.705739712478   115.96360583   356.48905352
 H     18   7   1     2.051213439570   121.93626445   178.30336846
 C     19  18   7     2.631276036321   118.24053325   345.17445378
 C     21  19  18     2.695646357671   109.92486724   175.55095842
 S     19  18   7     3.210128841962   128.18474114   161.20166840
 C     22  21  19     2.575300354595   112.98647835     0.96576519
 H     21  19  18     2.499354595643   111.25802887   295.78903503
 H     22  21  19     2.041632950441   124.12045664   177.24412349
 H     24  22  21     2.039863257011   127.71163254   178.13176463
 H      2   1   3     2.041346041401   124.37721689   121.79833379
 H      3   2   1     2.039633947091   126.78104485   121.65512442
 H      6   3   2     2.042687390602   125.29789658   177.22102642
 O     25  21  19     2.564628312511   175.51945631   344.10264296
 O      1   2   3     3.911057832927   147.72098876   350.36650705
 C     31  25  21     2.358355633067   107.74933574   112.19550814
 C     33  31  25     2.833877478323   118.70061982   180.88380548
 H     34  33  31     2.055566857344   110.54420399    39.61273494
 H     34  33  31     2.062266437198   108.89479734   282.20974626
 H     34  33  31     2.052602170936   111.66644866   162.61882741
 H      4   1   2     2.038966940575   126.35454210   158.66300658
 H      5   2   1     2.041352324486   125.58737854   241.91691933

---------------------
BASIS SET INFORMATION
---------------------
There are 6 groups of distinct atoms

 Group   1 Type Ir  : 7s6p5d1f contracted to 6s3p2d1f pattern {211111/411/41/1}
 Group   2 Type C   : 8s4p1d contracted to 4s2p1d pattern {5111/31/1}
 Group   3 Type N   : 8s4p1d contracted to 4s2p1d pattern {5111/31/1}
 Group   4 Type H   : 4s contracted to 2s pattern {31}
 Group   5 Type S   : 10s7p1d contracted to 4s3p1d pattern {5311/511/1}
 Group   6 Type O   : 8s4p1d contracted to 4s2p1d pattern {5111/31/1}

Atom   0Ir   basis set group =>   1
Atom   1C    basis set group =>   2
Atom   2C    basis set group =>   2
Atom   3C    basis set group =>   2
Atom   4C    basis set group =>   2
Atom   5C    basis set group =>   2
Atom   6N    basis set group =>   3
Atom   7C    basis set group =>   2
Atom   8C    basis set group =>   2
Atom   9H    basis set group =>   4
Atom  10H    basis set group =>   4
Atom  11H    basis set group =>   4
Atom  12C    basis set group =>   2
Atom  13H    basis set group =>   4
Atom  14H    basis set group =>   4
Atom  15H    basis set group =>   4
Atom  16H    basis set group =>   4
Atom  17C    basis set group =>   2
Atom  18C    basis set group =>   2
Atom  19H    basis set group =>   4
Atom  20C    basis set group =>   2
Atom  21C    basis set group =>   2
Atom  22S    basis set group =>   5
Atom  23C    basis set group =>   2
Atom  24H    basis set group =>   4
Atom  25H    basis set group =>   4
Atom  26H    basis set group =>   4
Atom  27H    basis set group =>   4
Atom  28H    basis set group =>   4
Atom  29H    basis set group =>   4
Atom  30O    basis set group =>   6
Atom  31O    basis set group =>   6
Atom  32C    basis set group =>   2
Atom  33C    basis set group =>   2
Atom  34H    basis set group =>   4
Atom  35H    basis set group =>   4
Atom  36H    basis set group =>   4
Atom  37H    basis set group =>   4
Atom  38H    basis set group =>   4
---------------------------------
AUXILIARY/J BASIS SET INFORMATION
---------------------------------
There are 6 groups of distinct atoms

 Group   1 Type Ir  : 11s5p5d3f3g contracted to 8s5p5d2f3g pattern {41111111/11111/11111/21/111}
 Group   2 Type C   : 12s5p4d2f1g contracted to 6s4p3d1f1g pattern {711111/2111/211/2/1}
 Group   3 Type N   : 12s5p4d2f1g contracted to 6s4p3d1f1g pattern {711111/2111/211/2/1}
 Group   4 Type H   : 5s2p1d contracted to 3s1p1d pattern {311/2/1}
 Group   5 Type S   : 14s5p5d2f1g contracted to 8s4p3d1f1g pattern {71111111/2111/311/2/1}
 Group   6 Type O   : 12s5p4d2f1g contracted to 6s4p3d1f1g pattern {711111/2111/211/2/1}

Atom   0Ir   basis set group =>   1
Atom   1C    basis set group =>   2
Atom   2C    basis set group =>   2
Atom   3C    basis set group =>   2
Atom   4C    basis set group =>   2
Atom   5C    basis set group =>   2
Atom   6N    basis set group =>   3
Atom   7C    basis set group =>   2
Atom   8C    basis set group =>   2
Atom   9H    basis set group =>   4
Atom  10H    basis set group =>   4
Atom  11H    basis set group =>   4
Atom  12C    basis set group =>   2
Atom  13H    basis set group =>   4
Atom  14H    basis set group =>   4
Atom  15H    basis set group =>   4
Atom  16H    basis set group =>   4
Atom  17C    basis set group =>   2
Atom  18C    basis set group =>   2
Atom  19H    basis set group =>   4
Atom  20C    basis set group =>   2
Atom  21C    basis set group =>   2
Atom  22S    basis set group =>   5
Atom  23C    basis set group =>   2
Atom  24H    basis set group =>   4
Atom  25H    basis set group =>   4
Atom  26H    basis set group =>   4
Atom  27H    basis set group =>   4
Atom  28H    basis set group =>   4
Atom  29H    basis set group =>   4
Atom  30O    basis set group =>   6
Atom  31O    basis set group =>   6
Atom  32C    basis set group =>   2
Atom  33C    basis set group =>   2
Atom  34H    basis set group =>   4
Atom  35H    basis set group =>   4
Atom  36H    basis set group =>   4
Atom  37H    basis set group =>   4
Atom  38H    basis set group =>   4
-------------------------
ECP PARAMETER INFORMATION
-------------------------

 Group 1, Type Ir ECP Def2-ECP (replacing 60 core electrons, lmax=3)

Atom   0Ir   ECP group =>   1

------------------------------------------------------------------------------
                           ORCA GTO INTEGRAL CALCULATION
                           -- RI-GTO INTEGRALS CHOSEN --
------------------------------------------------------------------------------
------------------------------------------------------------------------------
                   ___                                                        
                  /   \      - P O W E R E D   B Y -                         
                 /     \                                                     
                 |  |  |   _    _      __       _____    __    __             
                 |  |  |  | |  | |    /  \     |  _  \  |  |  /  |          
                  \  \/   | |  | |   /    \    | | | |  |  | /  /          
                 / \  \   | |__| |  /  /\  \   | |_| |  |  |/  /          
                |  |  |   |  __  | /  /__\  \  |    /   |      \           
                |  |  |   | |  | | |   __   |  |    \   |  |\   \          
                \     /   | |  | | |  |  |  |  | |\  \  |  | \   \       
                 \___/    |_|  |_| |__|  |__|  |_| \__\ |__|  \__/        
                                                                              
                      - O R C A' S   B I G   F R I E N D -                    
                                      &                                       
                       - I N T E G R A L  F E E D E R -                       
                                                                              
 v1 FN, 2020, v2 2021                                                         
------------------------------------------------------------------------------


Reading SHARK input file reaction4-IEIP_ts_guess_scan_11-11_orca.SHARKINP.tmp ... ok
----------------------
SHARK INTEGRAL PACKAGE
----------------------

Number of atoms                             ...     39
Number of basis functions                   ...    358
Number of shells                            ...    184
Maximum angular momentum                    ...      3
Integral batch strategy                     ... SHARK/LIBINT Hybrid
RI-J (if used) integral strategy            ... SPLIT-RIJ (Revised 2003 algorithm where possible)
Printlevel                                  ...      1
Contraction scheme used                     ... SEGMENTED contraction
Coulomb Range Separation                    ... NOT USED
Exchange Range Separation                   ... NOT USED
Finite Nucleus Model                        ... NOT USED
Auxiliary Coulomb fitting basis             ... AVAILABLE
   # of basis functions in Aux-J            ...   1231
   # of shells in Aux-J                     ...    405
   Maximum angular momentum in Aux-J        ...      4
Auxiliary J/K fitting basis                 ... NOT available
Auxiliary Correlation fitting basis         ... NOT available
Auxiliary 'external' fitting basis          ... NOT available
Integral threshold                          ...     2.500000e-11
Primitive cut-off                           ...     2.500000e-12
Primitive pair pre-selection threshold      ...     2.500000e-12

Calculating pre-screening integrals         ... done (  0.1 sec) Dimension = 184
Organizing shell pair data                  ... done (  0.3 sec)
Shell pair information
Total number of shell pairs                 ...     17020
Shell pairs after pre-screening             ...     12981
Total number of primitive shell pairs       ...     60705
Primitive shell pairs kept                  ...     29195
          la=0 lb=0:   4972 shell pairs
          la=1 lb=0:   4268 shell pairs
          la=1 lb=1:    859 shell pairs
          la=2 lb=0:   1749 shell pairs
          la=2 lb=1:    785 shell pairs
          la=2 lb=2:    174 shell pairs
          la=3 lb=0:    111 shell pairs
          la=3 lb=1:     41 shell pairs
          la=3 lb=2:     21 shell pairs
          la=3 lb=3:      1 shell pairs

Calculating one electron integrals          ... done (  0.2 sec)
Calculating ECP integrals                   ... done (  0.9 sec)
Calculating RI/J V-Matrix + Cholesky decomp.... done (  0.1 sec)
Calculating Nuclear repulsion               ... done (  0.0 sec) ENN=   2035.765136823970 Eh

SHARK setup successfully completed in   2.2 seconds

Maximum memory used throughout the entire GTOINT-calculation: 90.7 MB
-------------------------------------------------------------------------------
                                 ORCA SCF
-------------------------------------------------------------------------------

------------
SCF SETTINGS
------------
Hamiltonian:
 Density Functional     Method          .... DFT(GTOs)
 Exchange Functional    Exchange        .... PBE
   PBE kappa parameter   XKappa         ....  1.024500
   PBE mue parameter    XMuePBE         ....  0.123457
 Correlation Functional Correlation     .... PBE
   PBE beta parameter  CBetaPBE         ....  0.030000
 LDA part of GGA corr.  LDAOpt          .... PW91-LDA
 Gradients option       PostSCFGGA      .... off
 Hybrid DFT is turned on
   Fraction HF Exchange ScalHFX         ....  0.420000
   Scaling of DF-GGA-X  ScalDFX         ....  0.580000
   Scaling of DF-GGA-C  ScalDFC         ....  1.000000
   Scaling of DF-LDA-C  ScalLDAC        ....  1.000000
   Perturbative correction              ....  0.000000
   Density functional embedding theory  .... OFF
 RI-approximation to the Coulomb term is turned on
   Number of AuxJ basis functions       .... 1231
   RIJ-ON(X) (HFX calculated with O(N)) .... on
   Number of AuxJ basis functions       .... 1231
   RIJ-COSX (HFX calculated with COS-X)).... on


General Settings:
 Integral files         IntName         .... reaction4-IEIP_ts_guess_scan_11-11_orca
 Hartree-Fock type      HFTyp           .... RHF
 Total Charge           Charge          ....    1
 Multiplicity           Mult            ....    1
 Number of Electrons    NEL             ....  164
 Basis Dimension        Dim             ....  358
 Nuclear Repulsion      ENuc            ....   2035.7651368240 Eh

Convergence Acceleration:
 DIIS                   CNVDIIS         .... on
   Start iteration      DIISMaxIt       ....    12
   Startup error        DIISStart       ....  0.200000
   # of expansion vecs  DIISMaxEq       ....     5
   Bias factor          DIISBfac        ....   1.050
   Max. coefficient     DIISMaxC        ....  10.000
 Trust-Rad. Augm. Hess. CNVTRAH         .... auto
   Auto Start mean grad. ratio tolernc. ....  1.125000
   Auto Start start iteration           ....    20
   Auto Start num. interpolation iter.  ....    10
   Max. Number of Micro iterations      ....    16
   Max. Number of Macro iterations      .... Maxiter - #DIIS iter
   Number of Davidson start vectors     ....     2
   Converg. threshold I  (grad. norm)   ....   1.000e-05
   Converg. threshold II (energy diff.) ....   1.000e-08
   Grad. Scal. Fac. for Micro threshold ....   0.100
   Minimum threshold for Micro iter.    ....   0.010
   NR start threshold (gradient norm)   ....   0.001
   Initial trust radius                 ....   0.400
   Minimum AH scaling param. (alpha)    ....   1.000
   Maximum AH scaling param. (alpha)    .... 1000.000
   Orbital update algorithm             .... Taylor
   White noise on init. David. guess    .... on
   Maximum white noise                  ....   0.010
   Quad. conv. algorithm                .... NR
   COSX micro iterations for RIJONX calc.... off
 SOSCF                  CNVSOSCF        .... off
 Level Shifting         CNVShift        .... on
   Level shift para.    LevelShift      ....    0.2500
   Turn off err/grad.   ShiftErr        ....    0.0010
 Zerner damping         CNVZerner       .... off
 Static damping         CNVDamp         .... on
   Fraction old density DampFac         ....    0.7000
   Max. Damping (<1)    DampMax         ....    0.9800
   Min. Damping (>=0)   DampMin         ....    0.0000
   Turn off err/grad.   DampErr         ....    0.1000
 Fernandez-Rico         CNVRico         .... off

SCF Procedure:
 Maximum # iterations   MaxIter         ....   250
 SCF integral mode      SCFMode         .... Direct
   Integral package                     .... SHARK and LIBINT hybrid scheme
 Reset frequency        DirectResetFreq ....    20
 Integral Threshold     Thresh          ....  2.500e-11 Eh
 Primitive CutOff       TCut            ....  2.500e-12 Eh

Convergence Tolerance:
 Convergence Check Mode ConvCheckMode   .... Total+1el-Energy
 Convergence forced     ConvForced      .... 0
 Energy Change          TolE            ....  1.000e-08 Eh
 1-El. energy change                    ....  1.000e-05 Eh
 DIIS Error             TolErr          ....  5.000e-07


Diagonalization of the overlap matrix:
Smallest eigenvalue                        ... 1.154e-03
Time for diagonalization                   ...    0.036 sec
Threshold for overlap eigenvalues          ... 1.000e-08
Number of eigenvalues below threshold      ... 0
Time for construction of square roots      ...    0.012 sec
Total time needed                          ...    0.050 sec

--------------------
INITIAL GUESS: HCORE
--------------------
                      -----------------
                      INTIAL GUESS DONE 
                      -----------------
-------------------
DFT GRID GENERATION
-------------------

General Integration Accuracy     IntAcc      ... 4.159
Radial Grid Type                 RadialGrid  ... OptM3 with GC (2021)
Angular Grid (max. ang.)         AngularGrid ... 3 (Lebedev-194)
Angular grid pruning method      GridPruning ... 4 (adaptive)
Weight generation scheme         WeightScheme... Becke
Basis function cutoff            BFCut       ... 1.0000e-11
Integration weight cutoff        WCut        ... 1.0000e-14
Angular grids for H and He will be reduced by one unit
Partially contracted basis set               ... off
Rotationally invariant grid construction     ... off

Total number of grid points                  ...    93281
Total number of batches                      ...     1476
Average number of points per batch           ...       63
Average number of grid points per atom       ...     2392
Time for grid setup =    1.799 sec

--------------------
COSX GRID GENERATION
--------------------

GRIDX 1
-------
General Integration Accuracy     IntAcc      ... 3.816
Radial Grid Type                 RadialGrid  ... OptM3 with GC (2021)
Angular Grid (max. ang.)         AngularGrid ... 1 (Lebedev-50)
Angular grid pruning method      GridPruning ... 4 (adaptive)
Weight generation scheme         WeightScheme... Becke
Basis function cutoff            BFCut       ... 1.0000e-11
Integration weight cutoff        WCut        ... 1.0000e-14
Angular grids for H and He will be reduced by one unit
Partially contracted basis set               ... on
Rotationally invariant grid construction     ... off

Total number of grid points                  ...    23208
Total number of batches                      ...      381
Average number of points per batch           ...       60
Average number of grid points per atom       ...      595
UseSFitting                                  ... on

GRIDX 2
-------
General Integration Accuracy     IntAcc      ... 4.020
Radial Grid Type                 RadialGrid  ... OptM3 with GC (2021)
Angular Grid (max. ang.)         AngularGrid ... 2 (Lebedev-110)
Angular grid pruning method      GridPruning ... 4 (adaptive)
Weight generation scheme         WeightScheme... Becke
Basis function cutoff            BFCut       ... 1.0000e-11
Integration weight cutoff        WCut        ... 1.0000e-14
Angular grids for H and He will be reduced by one unit
Partially contracted basis set               ... on
Rotationally invariant grid construction     ... off

Total number of grid points                  ...    50320
Total number of batches                      ...      806
Average number of points per batch           ...       62
Average number of grid points per atom       ...     1290
UseSFitting                                  ... on

GRIDX 3
-------
General Integration Accuracy     IntAcc      ... 4.338
Radial Grid Type                 RadialGrid  ... OptM3 with GC (2021)
Angular Grid (max. ang.)         AngularGrid ... 3 (Lebedev-194)
Angular grid pruning method      GridPruning ... 4 (adaptive)
Weight generation scheme         WeightScheme... Becke
Basis function cutoff            BFCut       ... 1.0000e-11
Integration weight cutoff        WCut        ... 1.0000e-14
Angular grids for H and He will be reduced by one unit
Partially contracted basis set               ... on
Rotationally invariant grid construction     ... off

Total number of grid points                  ...   108778
Total number of batches                      ...     1718
Average number of points per batch           ...       63
Average number of grid points per atom       ...     2789
UseSFitting                                  ... on

Time for X-Grid setup             =    4.924 sec

--------------
SCF ITERATIONS
--------------
ITER       Energy         Delta-E        Max-DP      RMS-DP      [F,P]     Damp
               ***  Starting incremental Fock matrix formation  ***
  0   -844.8218960471   0.00000000000021.50310353  0.14865061  3.3052031 0.7000
  1  -1090.5439560418-245.72205999470110.11434677  0.13656567  1.5197176 0.7000
  2  -1162.0528693613 -71.508913319499 5.41764960  0.07270113  1.0586695 0.7000
  3  -1187.8021361134 -25.749266752090 3.75519495  0.04809406  0.7671797 0.7000
  4  -1208.2956400244 -20.493503911016 2.65433846  0.03878987  0.4746424 0.7000
  5  -1222.9068420782 -14.611202053846 2.42162588  0.03266172  0.3603969 0.7000
  6  -1233.9423043957 -11.035462317488 1.83725114  0.02987533  0.3000138 0.7000
  7  -1241.5636934882  -7.621389092423 1.61680140  0.02534165  0.2868294 0.7000
  8  -1249.2160119768  -7.652318488628 1.51811906  0.02559382  0.2889221 0.7000
  9  -1252.2567384091  -3.040726432329 1.49824764  0.02395540  0.3147660 0.7000
 10  -1256.3797616893  -4.123023280178 1.37109860  0.02335900  0.3050729 0.7000
 11  -1257.5770142127  -1.197252523420 1.42666070  0.02324822  0.3314075 0.7000
                               ***Turning on DIIS***
 12  -1260.0666600623  -2.489645849564 1.36088640  0.02288364  0.3132513 0.7000
 13  -1260.2469936990  -0.180333636734 1.25615175  0.01930936  0.3405172 0.7000
 14  -1268.7010773872  -8.454083688196 0.87996065  0.01375054  0.2595082 0.7000
 15  -1274.8750160990  -6.173938711770 0.61847902  0.00974098  0.1864214 0.7000
 16  -1279.1704021876  -4.295386088575 0.43512909  0.00688107  0.1250822 0.7000
 17  -1282.0704795729  -2.900077385384 1.01335297  0.01614991  0.0796683 0.0000
 18  -1288.4314141760  -6.360934603018 0.03861849  0.00059765  0.0257004 0.0000
 19  -1288.4475550266  -0.016140850674 0.03378015  0.00045079  0.0167827 0.0000
               *** Restarting incremental Fock matrix formation ***
                                   *** Resetting DIIS ***
 20  -1288.4494171588  -0.001862132206 0.04503390  0.00052652  0.0188977 0.0000
 21  -1288.4493119630   0.000105195801 0.02047365  0.00022157  0.0252088 0.0000
 22  -1288.4522478284  -0.002935865341 0.00579140  0.00007887  0.0061682 0.0000
 23  -1288.4525124613  -0.000264632880 0.00355979  0.00003524  0.0021959 0.0000
 24  -1288.4525507178  -0.000038256559 0.00259785  0.00003027  0.0005757 0.0000
               *** Restarting incremental Fock matrix formation ***
                                   *** Resetting DIIS ***
 25  -1288.4531406628  -0.000589944955 0.00489360  0.00009795  0.0006778 0.0000
 26  -1288.4531575249  -0.000016862131 0.00188670  0.00001773  0.0007427 0.0000
 27  -1288.4531568634   0.000000661474 0.00114609  0.00001002  0.0009290 0.0000
 28  -1288.4531609211  -0.000004057704 0.00022407  0.00000301  0.0001455 0.0000
 29  -1288.4531610807  -0.000000159589 0.00018069  0.00000161  0.0000730 0.0000
 30  -1288.4531611538  -0.000000073112 0.00007140  0.00000069  0.0000265 0.0000
 31  -1288.4531611771  -0.000000023284 0.00004113  0.00000044  0.0000128 0.0000
 32  -1288.4531611791  -0.000000001959 0.00002406  0.00000023  0.0000060 0.0000
 33  -1288.4531611790   0.000000000029 0.00001339  0.00000011  0.0000035 0.0000
 34  -1288.4531611757   0.000000003313 0.00000666  0.00000005  0.0000044 0.0000
                            ***DIIS convergence achieved***

               *****************************************************
               *                     SUCCESS                       *
               *           SCF CONVERGED AFTER  35 CYCLES          *
               *****************************************************

Old exchange energy                            =    -59.650135182 Eh
New exchange energy                            =    -59.650244414 Eh
Exchange energy change after final integration =     -0.000109232 Eh
Total energy after final integration           =  -1288.453270418 Eh
Final COS-X integration done in                =    60.755 sec

----------------
TOTAL SCF ENERGY
----------------

Total Energy       :        -1288.45327042 Eh          -35060.59593 eV

Components:
Nuclear Repulsion  :         2035.76513682 Eh           55395.98565 eV
Electronic Energy  :        -3324.21840724 Eh          -90456.58158 eV
One Electron Energy:        -5827.14927183 Eh         -158564.79296 eV
Two Electron Energy:         2502.93086459 Eh           68108.21138 eV
Max COSX asymmetry :            0.00002619 Eh               0.00071 eV

Virial components:
Potential Energy   :        -2501.52371386 Eh          -68069.92086 eV
Kinetic Energy     :         1213.07044344 Eh           33009.32493 eV
Virial Ratio       :            2.06214217


DFT components:
N(Alpha)           :       82.000333764596 electrons
N(Beta)            :       82.000333764596 electrons
N(Total)           :      164.000667529192 electrons
E(X)               :      -79.590944272381 Eh       
E(C)               :       -7.460223259677 Eh       
E(XC)              :      -87.051167532058 Eh       
DFET-embed. en.    :        0.000000000000 Eh       

---------------
SCF CONVERGENCE
---------------

  Last Energy change         ...   -1.0094e-08  Tolerance :   1.0000e-08
  Last MAX-Density change    ...    0.0000e+00  Tolerance :   1.0000e-07
  Last RMS-Density change    ...    0.0000e+00  Tolerance :   5.0000e-09
  Last DIIS Error            ...    7.5998e-07  Tolerance :   5.0000e-07

             **** THE GBW FILE WAS UPDATED (reaction4-IEIP_ts_guess_scan_11-11_orca.gbw) ****
             **** DENSITY reaction4-IEIP_ts_guess_scan_11-11_orca.scfp WAS UPDATED ****
             **** ENERGY FILE WAS UPDATED (reaction4-IEIP_ts_guess_scan_11-11_orca.en.tmp) ****
             **** THE GBW FILE WAS UPDATED (reaction4-IEIP_ts_guess_scan_11-11_orca.gbw) ****
             **** DENSITY reaction4-IEIP_ts_guess_scan_11-11_orca.scfp WAS UPDATED ****
----------------
ORBITAL ENERGIES
----------------

  NO   OCC          E(Eh)            E(eV) 
   0   2.0000     -89.761142     -2442.5248 
   1   2.0000     -19.636788      -534.3442 
   2   2.0000     -19.625035      -534.0243 
   3   2.0000     -14.832080      -403.6014 
   4   2.0000     -10.698894      -291.1317 
   5   2.0000     -10.652610      -289.8722 
   6   2.0000     -10.626583      -289.1640 
   7   2.0000     -10.624421      -289.1052 
   8   2.0000     -10.623644      -289.0840 
   9   2.0000     -10.621754      -289.0326 
  10   2.0000     -10.615797      -288.8705 
  11   2.0000     -10.613542      -288.8092 
  12   2.0000     -10.612263      -288.7744 
  13   2.0000     -10.608558      -288.6735 
  14   2.0000     -10.587881      -288.1109 
  15   2.0000     -10.586658      -288.0776 
  16   2.0000     -10.553046      -287.1630 
  17   2.0000     -10.550254      -287.0870 
  18   2.0000     -10.546392      -286.9819 
  19   2.0000      -8.400561      -228.5909 
  20   2.0000      -6.290451      -171.1719 
  21   2.0000      -6.286913      -171.0756 
  22   2.0000      -6.285514      -171.0375 
  23   2.0000      -4.021556      -109.4321 
  24   2.0000      -2.338861       -63.6436 
  25   2.0000      -2.307729       -62.7965 
  26   2.0000      -2.304624       -62.7120 
  27   2.0000      -1.331210       -36.2241 
  28   2.0000      -1.230478       -33.4830 
  29   2.0000      -1.208148       -32.8754 
  30   2.0000      -1.160919       -31.5902 
  31   2.0000      -1.125567       -30.6282 
  32   2.0000      -1.024029       -27.8652 
  33   2.0000      -0.973854       -26.4999 
  34   2.0000      -0.968028       -26.3414 
  35   2.0000      -0.966675       -26.3046 
  36   2.0000      -0.957945       -26.0670 
  37   2.0000      -0.941913       -25.6308 
  38   2.0000      -0.899790       -24.4845 
  39   2.0000      -0.870961       -23.7000 
  40   2.0000      -0.797721       -21.7071 
  41   2.0000      -0.781290       -21.2600 
  42   2.0000      -0.777385       -21.1537 
  43   2.0000      -0.776947       -21.1418 
  44   2.0000      -0.765023       -20.8173 
  45   2.0000      -0.761708       -20.7271 
  46   2.0000      -0.742646       -20.2084 
  47   2.0000      -0.722824       -19.6690 
  48   2.0000      -0.694367       -18.8947 
  49   2.0000      -0.684605       -18.6290 
  50   2.0000      -0.663432       -18.0529 
  51   2.0000      -0.663058       -18.0427 
  52   2.0000      -0.649885       -17.6843 
  53   2.0000      -0.639135       -17.3917 
  54   2.0000      -0.631578       -17.1861 
  55   2.0000      -0.628862       -17.1122 
  56   2.0000      -0.621426       -16.9099 
  57   2.0000      -0.609683       -16.5903 
  58   2.0000      -0.598383       -16.2828 
  59   2.0000      -0.597693       -16.2641 
  60   2.0000      -0.596890       -16.2422 
  61   2.0000      -0.590716       -16.0742 
  62   2.0000      -0.578661       -15.7462 
  63   2.0000      -0.569852       -15.5065 
  64   2.0000      -0.566260       -15.4087 
  65   2.0000      -0.561757       -15.2862 
  66   2.0000      -0.556536       -15.1441 
  67   2.0000      -0.546273       -14.8648 
  68   2.0000      -0.542590       -14.7646 
  69   2.0000      -0.535205       -14.5637 
  70   2.0000      -0.529832       -14.4175 
  71   2.0000      -0.518225       -14.1016 
  72   2.0000      -0.513065       -13.9612 
  73   2.0000      -0.502406       -13.6712 
[...]

----------------------
LOEWDIN ATOMIC CHARGES
----------------------
   0 Ir:   -0.260755
   1 C :   -0.060084
   2 C :   -0.097225
   3 C :   -0.097996
   4 C :   -0.039449
   5 C :   -0.017615
   6 N :   -0.006083
   7 C :   -0.069205
   8 C :   -0.362056
   9 H :    0.155906
  10 H :    0.132765
  11 H :    0.142932
  12 C :   -0.343951
  13 H :    0.153718
  14 H :    0.150365
  15 H :    0.138035
  16 H :    0.133097
  17 C :    0.029109
  18 C :   -0.194474
  19 H :    0.159639
  20 C :   -0.219209
  21 C :   -0.130916
  22 S :    0.494112
  23 C :   -0.257257
  24 H :    0.364522
  25 H :    0.161531
  26 H :    0.168991
  27 H :    0.181897
  28 H :    0.179048
  29 H :    0.187406
  30 O :   -0.258514
  31 O :   -0.175974
  32 C :    0.167911
  33 C :   -0.371149
  34 H :    0.165500
  35 H :    0.172932
  36 H :    0.156684
  37 H :    0.181375
  38 H :    0.184434

-------------------------------
LOEWDIN REDUCED ORBITAL CHARGES
-------------------------------
  0 Irs       :     2.451164  s :     2.451164
      pz      :     2.255670  p :     6.778065
      px      :     2.255728
      py      :     2.266667
      dz2     :     1.726841  d :     7.943192
      dxz     :     1.645823
      dyz     :     1.438451
      dx2y2   :     1.605099
      dxy     :     1.526979
      f0      :     0.010377  f :     0.088333
      f+1     :     0.005442
      f-1     :     0.015895
      f+2     :     0.013693
      f-2     :     0.016064
      f+3     :     0.010751
      f-3     :     0.016110
  1 C s       :     2.873438  s :     2.873438
      pz      :     1.053128  p :     3.083622
      px      :     1.074364
      py      :     0.956130
      dz2     :     0.025678  d :     0.103024
      dxz     :     0.025414
      dyz     :     0.016292
      dx2y2   :     0.019057
      dxy     :     0.016583
  2 C s       :     2.875422  s :     2.875422
      pz      :     1.036844  p :     3.123307
      px      :     1.089663
      py      :     0.996801
      dz2     :     0.024086  d :     0.098495
      dxz     :     0.028209
      dyz     :     0.016131
      dx2y2   :     0.017320
      dxy     :     0.012750
  3 C s       :     2.870887  s :     2.870887
      pz      :     1.028703  p :     3.128244
      px      :     1.083397
      py      :     1.016145
      dz2     :     0.022073  d :     0.098865
      dxz     :     0.031148
      dyz     :     0.015358
      dx2y2   :     0.016406
      dxy     :     0.013879
  4 C s       :     2.874497  s :     2.874497
      pz      :     1.079342  p :     3.060412
      px      :     1.044121
      py      :     0.936949
      dz2     :     0.022893  d :     0.104540
      dxz     :     0.028919
      dyz     :     0.013513
      dx2y2   :     0.019913
      dxy     :     0.019301
  5 C s       :     2.881008  s :     2.881008
      pz      :     1.047239  p :     3.032559
      px      :     1.043379
      py      :     0.941941
      dz2     :     0.021442  d :     0.104049
      dxz     :     0.031275
      dyz     :     0.015799
      dx2y2   :     0.015891
      dxy     :     0.019641
  6 N s       :     3.122406  s :     3.122406
      pz      :     1.249992  p :     3.785554
      px      :     1.287248
      py      :     1.248314
      dz2     :     0.029995  d :     0.098123
      dxz     :     0.027100
      dyz     :     0.018204
      dx2y2   :     0.012687
      dxy     :     0.010136
  7 C s       :     2.862279  s :     2.862279
      pz      :     1.056964  p :     3.072286
      px      :     0.938049
      py      :     1.077273
      dz2     :     0.028671  d :     0.134639
      dxz     :     0.028602
      dyz     :     0.013227
      dx2y2   :     0.030978
      dxy     :     0.033162
  8 C s       :     2.953510  s :     2.953510
      pz      :     1.138344  p :     3.341032
      px      :     1.123475
      py      :     1.079214
      dz2     :     0.015120  d :     0.067513
      dxz     :     0.017194
      dyz     :     0.005425
      dx2y2   :     0.010872
      dxy     :     0.018902
  9 H s       :     0.844094  s :     0.844094
 10 H s       :     0.867235  s :     0.867235
 11 H s       :     0.857068  s :     0.857068
 12 C s       :     2.953450  s :     2.953450
      pz      :     1.144930  p :     3.322540
      px      :     1.109215
      py      :     1.068395
      dz2     :     0.015029  d :     0.067961
      dxz     :     0.013810
      dyz     :     0.008417
      dx2y2   :     0.012647
      dxy     :     0.018058
 13 H s       :     0.846282  s :     0.846282
 14 H s       :     0.849635  s :     0.849635
 15 H s       :     0.861965  s :     0.861965
 16 H s       :     0.866903  s :     0.866903
 17 C s       :     2.875840  s :     2.875840
      pz      :     1.005512  p :     2.954654
      px      :     1.063453
      py      :     0.885689
      dz2     :     0.038302  d :     0.140397
      dxz     :     0.047436
      dyz     :     0.026748
      dx2y2   :     0.012817
      dxy     :     0.015094
 18 C s       :     2.889890  s :     2.889890
      pz      :     1.048921  p :     3.191863
      px      :     1.086572
      py      :     1.056371
      dz2     :     0.033770  d :     0.112721
      dxz     :     0.033974
      dyz     :     0.017365
      dx2y2   :     0.015793
      dxy     :     0.011820
 19 H s       :     0.840361  s :     0.840361
 20 C s       :     2.901226  s :     2.901226
      pz      :     1.147440  p :     3.218337
      px      :     1.060215
      py      :     1.010683
      dz2     :     0.014347  d :     0.099645
      dxz     :     0.038312
      dyz     :     0.012982
      dx2y2   :     0.017575
      dxy     :     0.016428
 21 C s       :     2.896215  s :     2.896215
      pz      :     1.076515  p :     3.139974
      px      :     1.084934
      py      :     0.978525
      dz2     :     0.028773  d :     0.094727
      dxz     :     0.031828
      dyz     :     0.014702
      dx2y2   :     0.012185
      dxy     :     0.007239
 22 S s       :     5.499038  s :     5.499038
      pz      :     3.256089  p :     9.851261
      px      :     3.083517
      py      :     3.511655
      dz2     :     0.049410  d :     0.155588
      dxz     :     0.035235
      dyz     :     0.017382
      dx2y2   :     0.026553
      dxy     :     0.027008
 23 C s       :     2.964249  s :     2.964249
      pz      :     1.120582  p :     3.207202
      px      :     1.029533
      py      :     1.057087
      dz2     :     0.023951  d :     0.085806
      dxz     :     0.030593
      dyz     :     0.011475
      dx2y2   :     0.011130
      dxy     :     0.008658
 24 H s       :     0.635478  s :     0.635478
 25 H s       :     0.838469  s :     0.838469
 26 H s       :     0.831009  s :     0.831009
 27 H s       :     0.818103  s :     0.818103
 28 H s       :     0.820952  s :     0.820952
 29 H s       :     0.812594  s :     0.812594
 30 O s       :     3.514348  s :     3.514348
      pz      :     1.447349  p :     4.689552
      px      :     1.583342
      py      :     1.658860
      dz2     :     0.015178  d :     0.054614
      dxz     :     0.015363
      dyz     :     0.013889
      dx2y2   :     0.006366
      dxy     :     0.003818
 31 O s       :     3.441618  s :     3.441618
      pz      :     1.687828  p :     4.673868
      px      :     1.586801
      py      :     1.399239
      dz2     :     0.008982  d :     0.060488
      dxz     :     0.004830
      dyz     :     0.015027
      dx2y2   :     0.014430
      dxy     :     0.017220
 32 C s       :     2.812903  s :     2.812903
      pz      :     0.957009  p :     2.701335
      px      :     0.780017
      py      :     0.964309
      dz2     :     0.069987  d :     0.317852
      dxz     :     0.052558
      dyz     :     0.091894
      dx2y2   :     0.052354
      dxy     :     0.051059
 33 C s       :     2.957992  s :     2.957992
      pz      :     1.104586  p :     3.350588
      px      :     1.154943
      py      :     1.091059
      dz2     :     0.004201  d :     0.062568
      dxz     :     0.016368
      dyz     :     0.021390
      dx2y2   :     0.018317
      dxy     :     0.002293
 34 H s       :     0.834500  s :     0.834500
 35 H s       :     0.827068  s :     0.827068
 36 H s       :     0.843316  s :     0.843316
 37 H s       :     0.818625  s :     0.818625
 38 H s       :     0.815566  s :     0.815566


                      *****************************
                      * MAYER POPULATION ANALYSIS *
                      *****************************

  NA   - Mulliken gross atomic population
  ZA   - Total nuclear charge
  QA   - Mulliken gross atomic charge
  VA   - Mayer's total valence
  BVA  - Mayer's bonded valence
  FA   - Mayer's free valence

  ATOM       NA         ZA         QA         VA         BVA        FA
  0 Ir    16.3934    17.0000     0.6066     3.7575     3.7575    -0.0000
  1 C      6.2481     6.0000    -0.2481     3.7278     3.7278    -0.0000
  2 C      6.2586     6.0000    -0.2586     3.7309     3.7309    -0.0000
  3 C      6.2728     6.0000    -0.2728     3.7442     3.7442    -0.0000
  4 C      6.2217     6.0000    -0.2217     3.7160     3.7160     0.0000
  5 C      6.1534     6.0000    -0.1534     3.6994     3.6994     0.0000
  6 N      7.4360     7.0000    -0.4360     3.2135     3.2135    -0.0000
  7 C      6.1258     6.0000    -0.1258     3.7103     3.7103     0.0000
  8 C      6.6807     6.0000    -0.6807     3.6893     3.6893    -0.0000
  9 H      0.7312     1.0000     0.2688     0.8976     0.8976    -0.0000
 10 H      0.7755     1.0000     0.2245     0.9108     0.9108     0.0000
 11 H      0.7471     1.0000     0.2529     0.9008     0.9008    -0.0000
 12 C      6.6333     6.0000    -0.6333     3.6716     3.6716     0.0000
 13 H      0.7225     1.0000     0.2775     0.8735     0.8735     0.0000
 14 H      0.7419     1.0000     0.2581     0.8989     0.8989     0.0000
 15 H      0.7673     1.0000     0.2327     0.9095     0.9095     0.0000
 16 H      0.7666     1.0000     0.2334     0.9060     0.9060     0.0000
 17 C      5.9312     6.0000     0.0688     3.6660     3.6660    -0.0000
 18 C      6.1237     6.0000    -0.1237     3.6893     3.6893     0.0000
 19 H      0.7159     1.0000     0.2841     0.8872     0.8872     0.0000
 20 C      6.5538     6.0000    -0.5538     3.5620     3.5620     0.0000
 21 C      6.1060     6.0000    -0.1060     3.7545     3.7545    -0.0000
 22 S     15.6596    16.0000     0.3404     2.5946     2.5946    -0.0000
 23 C      6.4256     6.0000    -0.4256     3.7543     3.7543     0.0000
 24 H      0.5245     1.0000     0.4755     0.7427     0.7427    -0.0000
 25 H      0.7341     1.0000     0.2659     0.9021     0.9021     0.0000
 26 H      0.7027     1.0000     0.2973     0.8974     0.8974    -0.0000
 27 H      0.7152     1.0000     0.2848     0.9063     0.9063     0.0000
 28 H      0.7189     1.0000     0.2811     0.9094     0.9094     0.0000
 29 H      0.7034     1.0000     0.2966     0.8960     0.8960     0.0000
 30 O      8.4851     8.0000    -0.4851     2.1326     2.1326     0.0000
 31 O      8.5030     8.0000    -0.5030     2.1225     2.1225     0.0000
 32 C      5.3656     6.0000     0.6344     3.8868     3.8868    -0.0000
 33 C      6.7440     6.0000    -0.7440     3.6565     3.6565     0.0000
 34 H      0.7259     1.0000     0.2741     0.8927     0.8927     0.0000
 35 H      0.7232     1.0000     0.2768     0.8907     0.8907    -0.0000
 36 H      0.7368     1.0000     0.2632     0.8968     0.8968     0.0000
 37 H      0.7187     1.0000     0.2813     0.9093     0.9093     0.0000
 38 H      0.7074     1.0000     0.2926     0.9031     0.9031    -0.0000

  Mayer bond orders larger than 0.100000
B(  0-Ir,  1-C ) :   0.4499 B(  0-Ir,  2-C ) :   0.4028 B(  0-Ir,  3-C ) :   0.4696 
B(  0-Ir,  4-C ) :   0.4264 B(  0-Ir,  5-C ) :   0.3695 B(  0-Ir,  6-N ) :   0.4652 
B(  0-Ir, 20-C ) :   0.4954 B(  0-Ir, 31-O ) :   0.5110 B(  1-C ,  2-C ) :   1.1266 
B(  1-C ,  4-C ) :   1.2207 B(  1-C , 27-H ) :   0.9086 B(  2-C ,  5-C ) :   1.2196 
B(  2-C , 28-H ) :   0.9103 B(  3-C ,  4-C ) :   1.1419 B(  3-C ,  5-C ) :   1.1707 
B(  3-C , 37-H ) :   0.9135 B(  4-C , 38-H ) :   0.8999 B(  5-C , 29-H ) :   0.9017 
B(  6-N ,  7-C ) :   0.8964 B(  6-N , 17-C ) :   1.6456 B(  7-C ,  8-C ) :   0.9903 
B(  7-C , 12-C ) :   0.9670 B(  7-C , 13-H ) :   0.8780 B(  8-C ,  9-H ) :   0.9049 
B(  8-C , 10-H ) :   0.9130 B(  8-C , 11-H ) :   0.9126 B( 12-C , 14-H ) :   0.9080 
B( 12-C , 15-H ) :   0.9153 B( 12-C , 16-H ) :   0.9120 B( 17-C , 18-C ) :   1.1160 
B( 17-C , 19-H ) :   0.8766 B( 18-C , 20-C ) :   1.2316 B( 18-C , 22-S ) :   1.2336 
B( 20-C , 21-C ) :   1.2736 B( 20-C , 24-H ) :   0.3186 B( 21-C , 23-C ) :   1.5378 
B( 21-C , 25-H ) :   0.9027 B( 22-S , 23-C ) :   1.2219 B( 23-C , 26-H ) :   0.8916 
B( 24-H , 30-O ) :   0.3638 B( 30-O , 32-C ) :   1.5392 B( 31-O , 32-C ) :   1.3986 
B( 32-C , 33-C ) :   0.9454 B( 33-C , 34-H ) :   0.8992 B( 33-C , 35-H ) :   0.8924 
B( 33-C , 36-H ) :   0.9076 


------------------
HIRSHFELD ANALYSIS
------------------

Total integrated alpha density =     82.000232724
Total integrated beta density  =     82.000232724

  ATOM     CHARGE      SPIN    
   0 Ir   0.169857    0.000000
   1 C   -0.004414    0.000000
   2 C   -0.016972    0.000000
   3 C   -0.021984    0.000000
   4 C    0.003572    0.000000
   5 C    0.018687    0.000000
   6 N   -0.070767    0.000000
   7 C    0.052178    0.000000
   8 C   -0.071568    0.000000
   9 H    0.052957    0.000000
  10 H    0.037493    0.000000
  11 H    0.040572    0.000000
  12 C   -0.071294    0.000000
  13 H    0.044289    0.000000
  14 H    0.049478    0.000000
  15 H    0.037425    0.000000
  16 H    0.030655    0.000000
  17 C    0.092924    0.000000
  18 C   -0.012454    0.000000
  19 H    0.076062    0.000000
  20 C   -0.090786    0.000000
  21 C   -0.028962    0.000000
  22 S    0.140660    0.000000
  23 C   -0.024579    0.000000
  24 H    0.107446    0.000000
  25 H    0.067687    0.000000
  26 H    0.079082    0.000000
  27 H    0.080419    0.000000
  28 H    0.078270    0.000000
  29 H    0.090079    0.000000
  30 O   -0.223962    0.000000
  31 O   -0.240979    0.000000
  32 C    0.253745    0.000000
  33 C   -0.061220    0.000000
  34 H    0.059328    0.000000
  35 H    0.064787    0.000000
  36 H    0.052147    0.000000
  37 H    0.079598    0.000000
  38 H    0.080080    0.000000

  TOTAL   0.999535    0.000000

-------
TIMINGS
-------

Total SCF time: 0 days 0 hours 4 min 59 sec 

Total time                  ....     299.786 sec
Sum of individual times     ....     299.175 sec  ( 99.8%)

Fock matrix formation       ....     290.292 sec  ( 96.8%)
  Split-RI-J                ....      22.376 sec  (  7.7% of F)
  Chain of spheres X        ....     251.512 sec  ( 86.6% of F)
  XC integration            ....      16.381 sec  (  5.6% of F)
    Basis function eval.    ....       7.600 sec  ( 46.4% of XC)
    Density eval.           ....       4.335 sec  ( 26.5% of XC)
    XC-Functional eval.     ....       1.228 sec  (  7.5% of XC)
    XC-Potential eval.      ....       2.622 sec  ( 16.0% of XC)
Diagonalization             ....       0.254 sec  (  0.1%)
Density matrix formation    ....       0.039 sec  (  0.0%)
Population analysis         ....       1.480 sec  (  0.5%)
Initial guess               ....       0.029 sec  (  0.0%)
Orbital Transformation      ....       0.000 sec  (  0.0%)
Orbital Orthonormalization  ....       0.022 sec  (  0.0%)
DIIS solution               ....       0.098 sec  (  0.0%)
Grid generation             ....       6.983 sec  (  2.3%)

Maximum memory used throughout the entire SCF-calculation: 173.1 MB


-------------------------------------------------------------------------------
                          DFT DISPERSION CORRECTION                            
                                                                               
                              DFTD3 V3.1  Rev 1                                
                          USING Becke-Johnson damping                          
-------------------------------------------------------------------------------
The PBEh-3c composite method is recognized
Using three-body term ABC
Active option DFTDOPT                   ...         4   

molecular C6(AA) [au] = 19537.767365 


            DFT-D V3
 parameters
 s6 scaling factor         :     1.0000 
 a1 scaling factor         :     0.4860 
 s8 scaling factor         :     0.0000 
 a2 scaling factor         :     4.5000 
 Damping factor alpha9(ATM):    16.0000 
 ad hoc parameters k1-k3   :    16.0000     1.3333    -4.0000 

 Edisp/kcal,au: -19.216942200270  -0.030624143451 
 E6   /kcal   : -19.551288011 
 E8   /kcal   :  -0.000000000 
 E6(ABC)      :   0.334345811 
 % E8         :   0.000000000 
 % E6(ABC)    :  -1.739849179 

-------------------------   ----------------
Dispersion correction           -0.030624143
-------------------------   ----------------

 ** NOTE ** -> element ir will be treated as co
NOTIFICATION: Different basis set in ORCA and otool_gcp:
ORCA: 358  gCP: 357 
If you are NOT using ECPs, check your basis set inputs!
------------------   -----------------
gCP correction             0.079527920
------------------   -----------------

-------------------------   --------------------
FINAL SINGLE POINT ENERGY     -1288.404127301043
-------------------------   --------------------

                                *** OPTIMIZATION RUN DONE ***

                            ***************************************
                            *     ORCA property calculations      *
                            ***************************************

                                    ---------------------
                                    Active property flags
                                    ---------------------
   (+) Dipole Moment


------------------------------------------------------------------------------
                       ORCA ELECTRIC PROPERTIES CALCULATION
------------------------------------------------------------------------------

Dipole Moment Calculation                       ... on
Quadrupole Moment Calculation                   ... off
Polarizability Calculation                      ... off
GBWName                                         ... reaction4-IEIP_ts_guess_scan_11-11_orca.gbw
Electron density                                ... reaction4-IEIP_ts_guess_scan_11-11_orca.scfp
The origin for moment calculation is the CENTER OF MASS  = ( 0.864665, -0.550342 -0.177363)

-------------
DIPOLE MOMENT
-------------
                                X             Y             Z
Electronic contribution:     37.21640     -74.47067      71.65478
Nuclear contribution   :    -37.79604      74.08957     -71.84584
                        -----------------------------------------
Total Dipole Moment    :     -0.57964      -0.38110      -0.19106
                        -----------------------------------------
Magnitude (a.u.)       :      0.71953
Magnitude (Debye)      :      1.82890



--------------------
Rotational spectrum 
--------------------
 
Rotational constants in cm-1:     0.010555     0.008806     0.008199 
Rotational constants in MHz :   316.417795   263.989614   245.809996 

 Dipole components along the rotational axes: 
x,y,z [a.u.] :     0.060516     0.168233     0.696964 
x,y,z [Debye]:     0.153819     0.427615     1.771542 

 

Timings for individual modules:

Sum of individual times         ...     6423.937 sec (= 107.066 min)
GTO integral calculation        ...       25.560 sec (=   0.426 min)   0.4 %
SCF iterations                  ...     5017.992 sec (=  83.633 min)  78.1 %
SCF Gradient evaluation         ...     1375.430 sec (=  22.924 min)  21.4 %
Geometry relaxation             ...        4.955 sec (=   0.083 min)   0.1 %
                             ****ORCA TERMINATED NORMALLY****
TOTAL RUN TIME: 0 days 1 hours 47 minutes 11 seconds 988 msec
