
                                 *****************
                                 * O   R   C   A *
                                 *****************

                                            #,                                       
                                            ###                                      
                                            ####                                     
                                            #####                                    
                                            ######                                   
                                           ########,                                 
                                     ,,################,,,,,                         
                               ,,#################################,,                 
                          ,,##########################################,,             
                       ,#########################################, ''#####,          
                    ,#############################################,,   '####,        
                  ,##################################################,,,,####,       
                ,###########''''           ''''###############################       
              ,#####''   ,,,,##########,,,,          '''####'''          '####       
            ,##' ,,,,###########################,,,                        '##       
           ' ,,###''''                  '''############,,,                           
         ,,##''                                '''############,,,,        ,,,,,,###''
      ,#''                                            '''#######################'''  
     '                                                          ''''####''''         
             ,#######,   #######,   ,#######,      ##                                
            ,#'     '#,  ##    ##  ,#'     '#,    #''#        ######   ,####,        
            ##       ##  ##   ,#'  ##            #'  '#       #        #'  '#        
            ##       ##  #######   ##           ,######,      #####,   #    #        
            '#,     ,#'  ##    ##  '#,     ,#' ,#      #,         ##   #,  ,#        
             '#######'   ##     ##  '#######'  #'      '#     #####' # '####'        



                  #######################################################
                  #                        -***-                        #
                  #          Department of theory and spectroscopy      #
                  #    Directorship and core code : Frank Neese         #
                  #        Max Planck Institute fuer Kohlenforschung    #
                  #                Kaiser Wilhelm Platz 1               #
                  #                 D-45470 Muelheim/Ruhr               #
                  #                      Germany                        #
                  #                                                     #
                  #                  All rights reserved                #
                  #                        -***-                        #
                  #######################################################


                         Program Version 5.0.3 -  RELEASE  -


 With contributions from (in alphabetic order):
   Daniel Aravena         : Magnetic Suceptibility
   Michael Atanasov       : Ab Initio Ligand Field Theory (pilot matlab implementation)
   Alexander A. Auer      : GIAO ZORA, VPT2 properties, NMR spectrum
   Ute Becker             : Parallelization
   Giovanni Bistoni       : ED, misc. LED, open-shell LED, HFLD
   Martin Brehm           : Molecular dynamics
   Dmytro Bykov           : SCF Hessian
   Vijay G. Chilkuri      : MRCI spin determinant printing, contributions to CSF-ICE
   Dipayan Datta          : RHF DLPNO-CCSD density
   Achintya Kumar Dutta   : EOM-CC, STEOM-CC
   Dmitry Ganyushin       : Spin-Orbit,Spin-Spin,Magnetic field MRCI
   Miquel Garcia          : C-PCM and meta-GGA Hessian, CC/C-PCM, Gaussian charge scheme
   Yang Guo               : DLPNO-NEVPT2, F12-NEVPT2, CIM, IAO-localization
   Andreas Hansen         : Spin unrestricted coupled pair/coupled cluster methods
   Benjamin Helmich-Paris : MC-RPA, TRAH-SCF, COSX integrals
   Lee Huntington         : MR-EOM, pCC
   Robert Izsak           : Overlap fitted RIJCOSX, COSX-SCS-MP3, EOM
   Marcus Kettner         : VPT2
   Christian Kollmar      : KDIIS, OOCD, Brueckner-CCSD(T), CCSD density, CASPT2, CASPT2-K
   Simone Kossmann        : Meta GGA functionals, TD-DFT gradient, OOMP2, MP2 Hessian
   Martin Krupicka        : Initial AUTO-CI
   Lucas Lang             : DCDCAS
   Marvin Lechner         : AUTO-CI (C++ implementation), FIC-MRCC
   Dagmar Lenk            : GEPOL surface, SMD
   Dimitrios Liakos       : Extrapolation schemes; Compound Job, initial MDCI parallelization
   Dimitrios Manganas     : Further ROCIS development; embedding schemes
   Dimitrios Pantazis     : SARC Basis sets
   Anastasios Papadopoulos: AUTO-CI, single reference methods and gradients
   Taras Petrenko         : DFT Hessian,TD-DFT gradient, ASA, ECA, R-Raman, ABS, FL, XAS/XES, NRVS
   Peter Pinski           : DLPNO-MP2, DLPNO-MP2 Gradient
   Christoph Reimann      : Effective Core Potentials
   Marius Retegan         : Local ZFS, SOC
   Christoph Riplinger    : Optimizer, TS searches, QM/MM, DLPNO-CCSD(T), (RO)-DLPNO pert. Triples
   Tobias Risthaus        : Range-separated hybrids, TD-DFT gradient, RPA, STAB
   Michael Roemelt        : Original ROCIS implementation
   Masaaki Saitow         : Open-shell DLPNO-CCSD energy and density
   Barbara Sandhoefer     : DKH picture change effects
   Avijit Sen             : IP-ROCIS
   Kantharuban Sivalingam : CASSCF convergence, NEVPT2, FIC-MRCI
   Bernardo de Souza      : ESD, SOC TD-DFT
   Georgi Stoychev        : AutoAux, RI-MP2 NMR, DLPNO-MP2 response
   Willem Van den Heuvel  : Paramagnetic NMR
   Boris Wezisla          : Elementary symmetry handling
   Frank Wennmohs         : Technical directorship


 We gratefully acknowledge several colleagues who have allowed us to
 interface, adapt or use parts of their codes:
   Stefan Grimme, W. Hujo, H. Kruse, P. Pracht,  : VdW corrections, initial TS optimization,
                  C. Bannwarth, S. Ehlert          DFT functionals, gCP, sTDA/sTD-DF
   Ed Valeev, F. Pavosevic, A. Kumar             : LibInt (2-el integral package), F12 methods
   Garnet Chan, S. Sharma, J. Yang, R. Olivares  : DMRG
   Ulf Ekstrom                                   : XCFun DFT Library
   Mihaly Kallay                                 : mrcc  (arbitrary order and MRCC methods)
   Jiri Pittner, Ondrej Demel                    : Mk-CCSD
   Frank Weinhold                                : gennbo (NPA and NBO analysis)
   Christopher J. Cramer and Donald G. Truhlar   : smd solvation model
   Lars Goerigk                                  : TD-DFT with DH, B97 family of functionals
   V. Asgeirsson, H. Jonsson                     : NEB implementation
   FAccTs GmbH                                   : IRC, NEB, NEB-TS, DLPNO-Multilevel, CI-OPT
                                                   MM, QMMM, 2- and 3-layer-ONIOM, Crystal-QMMM,
                                                   LR-CPCM, SF, NACMEs, symmetry and pop. for TD-DFT,
                                                   nearIR, NL-DFT gradient (VV10), updates on ESD,
                                                   ML-optimized integration grids
   S Lehtola, MJT Oliveira, MAL Marques          : LibXC Library
   Liviu Ungur et al                             : ANISO software


 Your calculation uses the libint2 library for the computation of 2-el integrals
 For citations please refer to: http://libint.valeyev.net

 Your ORCA version has been built with support for libXC version: 5.1.0
 For citations please refer to: https://tddft.org/programs/libxc/

 This ORCA versions uses:
   CBLAS   interface :  Fast vector & matrix operations
   LAPACKE interface :  Fast linear algebra routines
   SCALAPACK package :  Parallel linear algebra routines
   Shared memory     :  Shared parallel matrices
   BLAS/LAPACK       :  OpenBLAS 0.3.15  USE64BITINT DYNAMIC_ARCH NO_AFFINITY SkylakeX SINGLE_THREADED
        Core in use  :  SkylakeX
   Copyright (c) 2011-2014, The OpenBLAS Project


Your calculation utilizes the geometrical counterpoise correction gCP
Please cite in your paper:
H.Kruse, S. Grimme J.Chem.Phys., 136, (2012), 154101 
   

Your calculation utilizes the atom-pairwise dispersion correction
with the Becke-Johnson damping scheme (D3BJ)
Cite in your paper:
S.Grimme, S.Ehrlich, L.Goerigk, J Comput Chem, (2011), 32, 1456–1465 
S.Grimme, J.Antony, S.Ehrlich and H.Krieg, J.Chem.Phys., 132, (2010), 154104 
   

Your calculation employs the composite approach PBEh-3c.
Please cite in your paper:
S. Grimme, J. G. Brandenburg, C. Bannwarth, A. Hansen J.Chem.Phys., 143, (2015), 054107 
   

================================================================================

cite the ECPs for Ir [Def2-ECP] as follows:
Ce-Yb(ecp-28): M. Dolg, H. Stoll, H.Preuss, J. Chem. Phys., 1989, 90, 1730-1734.
Y-Cd(ecp-28), Hf-Hg(ecp-46): D. Andrae,U. Haeussermann, M. Dolg, H. Stoll, H. Preuss, Theor. Chim. Acta, 1990, 77, 123-141.
In-Sb(ecp-28), Tl-Bi(ecp-46): B. Metz, H. Stoll, M. Dolg, J. Chem. Phys., 2000, 113, 2563-2569.
Te-Xe(ecp-28), Po-Rn(ecp-46): K. A. Peterson, D. Figgen, E. Goll, H. Stoll, M. Dolg, J. Chem. Phys., 2003, 119, 11113-11123.
Rb(ecp-28), Cs(ecp-46): T. Leininger, A. Nicklass, W. Kuechle, H. Stoll, M. Dolg, A. Bergner, Chem. Phys. Lett., 1996, 255, 274-280.
Sr(ecp-28), Ba(ecp-46): M. Kaupp, P. V. Schleyer, H. Stoll and H. Preuss, J. Chem. Phys., 1991, 94, 1360-1366.
La(ecp-46): M. Dolg, H. Stoll, A. Savin, H. Preuss, Theor. Chim. Acta, 1989, 75, 173-194.
Lu(ecp-28): X. Cao, M. Dolg, J. Chem. Phys., 2001, 115, 7348-7355.

ECP parameters for Ir [Def2-ECP] have been obtained from:
TURBOMOLE (7.0.2)

----- Orbital basis set information -----
Your calculation utilizes the basis: def2-mSVP

----- AuxJ basis set information -----
Your calculation utilizes the auxiliary basis: def2/J
   F. Weigend, Phys. Chem. Chem. Phys. 8, 1057 (2006).

================================================================================
                                        WARNINGS
                       Please study these warnings very carefully!
================================================================================


WARNING: Geometry Optimization
  ===> : Switching off AutoStart
         For restart on a previous wavefunction, please use MOREAD

WARNING: No Hueckel Guess possible with ECP basis!
  ===> : Switching to HCORE guess!

INFO   : the flag for use of the SHARK integral package has been found!

================================================================================
                                       INPUT FILE
================================================================================
NAME = reaction4-IEIP_ts_guess_scan_0-12_orca.inp
|  1> ! Opt PBEh-3c
|  2> %geom Constraints
|  3> { B 0 20 2.6 C }
|  4> { B 24 30 1.3285714285714287 C }
|  5>     end
|  6> end
|  7> %output 
|  8> xyzfile=True 
|  9> end 
| 10> %scf 
| 11> maxiter 250 
| 12> end
| 13> %output
| 14> Print[P_Hirshfeld] = 1
| 15> end
| 16> % maxcore
| 17> 4000
| 18> *xyz 1 1
| 19> Ir   0.56173292  -0.74392142   0.51744615 
| 20> C    0.00428842  -2.81804945   0.37663673 
| 21> C    0.07421963  -2.38097908   1.75004331 
| 22> C    2.16936956  -2.16076896   0.82266209 
| 23> C    1.27488529  -2.65173001  -0.20206466 
| 24> C    1.44173835  -2.03291023   2.01781358 
| 25> N   -1.03873070   0.15129793  -0.50270817 
| 26> C   -2.32236467   0.47565480   0.14205160 
| 27> C   -3.12537192   1.53440458  -0.59700164 
| 28> H   -3.96241416   1.84077822   0.02887691 
| 29> H   -3.55459428   1.16930177  -1.53138154 
| 30> H   -2.53397429   2.42634454  -0.80612604 
| 31> C   -3.13169516  -0.79880389   0.34824067 
| 32> H   -2.04802250   0.87533085   1.11998089 
| 33> H   -4.05734078  -0.56330230   0.87127570 
| 34> H   -3.39607264  -1.25880961  -0.60487880 
| 35> H   -2.59836382  -1.53134788   0.95248106 
| 36> C   -0.82637910   0.35542834  -1.74659950 
| 37> C    0.52307413   0.16393991  -2.22633982 
| 38> H   -1.61376537   0.69758142  -2.41268183 
| 39> C    1.63309688   0.53286139  -1.47805000 
| 40> C    2.82881798   0.15692817  -2.15220190 
| 41> S    0.93218418  -0.55834605  -3.72392763 
| 42> C    2.60357434  -0.42828192  -3.36033647 
| 43> H    1.54409393   1.41562996  -0.62890146 
| 44> H    3.82083620   0.36418421  -1.77763979 
| 45> H    3.33448874  -0.77446243  -4.07558681 
| 46> H   -0.88183620  -3.17079404  -0.13122638 
| 47> H   -0.72289334  -2.41920811   2.47809066 
| 48> H    1.82191910  -1.65471874   2.95587550 
| 49> O    1.35818696   2.40960789   0.25467750 
| 50> O    0.53936077   0.91338792   1.69392386 
| 51> C    0.94010331   2.09329180   1.37132462 
| 52> C    0.90322553   3.10142325   2.48334275 
| 53> H    0.85327155   4.11154152   2.08601933 
| 54> H    1.82216883   3.01881468   3.06721902 
| 55> H    0.07140027   2.92368204   3.16134619 
| 56> H    3.21548659  -1.92861635   0.68779586 
| 57> H    1.54166550  -2.85717473  -1.22873142 
| 58> *
| 59> 
| 60>                          ****END OF INPUT****
================================================================================

                       *****************************
                       * Geometry Optimization Run *
                       *****************************

Geometry optimization settings:
Update method            Update   .... BFGS
Choice of coordinates    CoordSys .... Z-matrix Internals
Initial Hessian          InHess   .... Almoef's Model

Convergence Tolerances:
Energy Change            TolE     ....  5.0000e-06 Eh
Max. Gradient            TolMAXG  ....  3.0000e-04 Eh/bohr
RMS Gradient             TolRMSG  ....  1.0000e-04 Eh/bohr
Max. Displacement        TolMAXD  ....  4.0000e-03 bohr
RMS Displacement         TolRMSD  ....  2.0000e-03 bohr
Strict Convergence                ....  False
------------------------------------------------------------------------------
                        ORCA OPTIMIZATION COORDINATE SETUP
------------------------------------------------------------------------------

The optimization will be done in new redundant internal coordinates
Making redundant internal coordinates   ...  (new redundants) done
Evaluating the initial hessian          ...  (Almloef) done
Evaluating the coordinates              ...  done
Calculating the B-matrix                .... done
Calculating the G-matrix                .... done
Diagonalizing the G-matrix              .... done
Imposing constraints:
 Iter   0:  RMS(Cart)=    0.0044457704 RMS(Int)=    0.0010562895
 Iter   1:  RMS(Cart)=    0.0002934429 RMS(Int)=    0.0001143451
 Iter   2:  RMS(Cart)=    0.0000399598 RMS(Int)=    0.0000165495
 Iter   3:  RMS(Cart)=    0.0000060876 RMS(Int)=    0.0000024780
 Iter   4:  RMS(Cart)=    0.0000009208 RMS(Int)=    0.0000003721
 Iter   5:  RMS(Cart)=    0.0000001386 RMS(Int)=    0.0000000559
 Iter   6:  RMS(Cart)=    0.0000000208 RMS(Int)=    0.0000000084
CONVERGED
Small eigenvalue found = 1.319e-02
Small eigenvalue found = 2.501e-02
Small eigenvalue found = 2.604e-02
The first mode is                       ....  234
The number of degrees of freedom        ....  111
Storing new coordinates                 .... done

    -----------------------------------------------------------------
                    Redundant Internal Coordinates


    -----------------------------------------------------------------
         Definition                    Initial Value    Approx d2E/dq
    -----------------------------------------------------------------
      1. B(C   1,Ir  0)                  2.1524         0.088393   
      2. B(C   2,C   1)                  1.4429         0.514311   
      3. B(C   2,Ir  0)                  2.1064         0.104645   
      4. B(C   3,Ir  0)                  2.1646         0.084529   
      5. B(C   4,Ir  0)                  2.1601         0.085911   
      6. B(C   4,C   1)                  1.4059         0.589024   
      7. B(C   4,C   3)                  1.4461         0.508431   
      8. B(C   5,C   3)                  1.4050         0.591177   
      9. B(C   5,C   2)                  1.4363         0.527070   
     10. B(C   5,Ir  0)                  2.1650         0.084393   
     11. B(N   6,Ir  0)                  2.0985         0.096492   
     12. B(C   7,N   6)                  1.4726         0.413090   
     13. B(C   8,C   7)                  1.5205         0.386819   
     14. B(H   9,C   8)                  1.0891         0.361238   
     15. B(H  10,C   8)                  1.0911         0.358588   
     16. B(H  11,C   8)                  1.0904         0.359530   
     17. B(C  12,C   7)                  1.5237         0.382269   
     18. B(H  13,C   7)                  1.0915         0.358134   
     19. B(H  14,C  12)                  1.0890         0.361471   
     20. B(H  15,C  12)                  1.0908         0.358987   
     21. B(H  16,C  12)                  1.0891         0.361274   
     22. B(C  17,N   6)                  1.2781         0.843529   
     23. B(C  18,C  17)                  1.4449         0.510611   
     24. B(H  19,C  17)                  1.0866         0.364619   
     25. B(C  20,C  18)                  1.3890         0.628034   
     26. B(C  20,Ir  0)                  2.6000         0.017069 C 
     27. B(C  21,C  20)                  1.4233         0.553016   
     28. B(S  22,C  18)                  1.7122         0.515656   
     29. B(C  23,C  21)                  1.3612         0.694590   
     30. B(C  23,S  22)                  1.7154         0.509709   
     31. B(H  24,C  20)                  1.2289         0.216809   
     32. B(H  25,C  21)                  1.0804         0.372970   
     33. B(H  26,C  23)                  1.0797         0.374045   
     34. B(H  27,C   1)                  1.0805         0.372832   
     35. B(H  28,C   2)                  1.0802         0.373255   
     36. B(H  29,C   5)                  1.0805         0.372860   
     37. B(O  30,H  24)                  1.3286         0.127392 C 
     38. B(O  31,Ir  0)                  2.0318         0.122934   
     39. B(C  32,O  30)                  1.2341         0.994062   
     40. B(C  32,O  31)                  1.2870         0.816422   
     41. B(C  33,C  32)                  1.5014         0.414924   
     42. B(H  34,C  33)                  1.0866         0.364626   
     43. B(H  35,C  33)                  1.0919         0.357627   
     44. B(H  36,C  33)                  1.0878         0.363080   
     45. B(H  37,C   3)                  1.0800         0.373546   
     46. B(H  38,C   4)                  1.0805         0.372925   
     47. A(C   4,Ir  0,N   6)          117.8205         0.250596   
     48. A(C   3,Ir  0,C   5)           37.8721         0.246321   
     49. A(C   3,Ir  0,N   6)          156.1011         0.250004   
     50. A(C   5,Ir  0,O  31)           95.1116         0.259014   
     51. A(C   1,Ir  0,C   4)           38.0529         0.248563   
     52. A(C   1,Ir  0,N   6)          100.4805         0.251641   
     53. A(C   3,Ir  0,O  31)          117.4166         0.259076   
     54. A(C   4,Ir  0,O  31)          156.4409         0.259702   
     55. A(C   2,Ir  0,C   5)           39.2672         0.254109   
     56. A(C   1,Ir  0,C   2)           39.5896         0.255848   
     57. A(C   2,Ir  0,N   6)          116.0788         0.257975   
     58. A(C   2,Ir  0,C   4)           65.4697         0.254776   
     59. A(C   3,Ir  0,C   4)           39.0687         0.246957   
     60. A(C   1,Ir  0,O  31)          145.1739         0.260806   
     61. A(N   6,Ir  0,O  31)           85.6937         0.262995   
     62. A(C   4,Ir  0,C   5)           64.5777         0.246899   
     63. A(C   1,Ir  0,C   3)           64.5781         0.247978   
     64. A(C   2,Ir  0,C   3)           65.2032         0.254169   
     65. A(C   2,Ir  0,O  31)          107.0202         0.267496   
     66. A(C   5,Ir  0,N   6)          154.2837         0.249946   
     67. A(C   1,Ir  0,C   5)           64.9626         0.247920   
     68. A(C   4,C   1,H  27)          125.8888         0.351925   
     69. A(Ir  0,C   1,C   2)           68.4881         0.314656   
     70. A(C   2,C   1,H  27)          125.8724         0.343976   
     71. A(C   2,C   1,C   4)          108.1881         0.415959   
     72. A(Ir  0,C   1,H  27)          123.8979         0.270461   
     73. A(Ir  0,C   1,C   4)           71.2721         0.321691   
     74. A(C   1,C   2,C   5)          107.2749         0.407837   
     75. A(C   5,C   2,H  28)          125.8396         0.345460   
     76. A(Ir  0,C   2,C   5)           72.5664         0.324746   
     77. A(Ir  0,C   2,C   1)           71.9224         0.323443   
     78. A(Ir  0,C   2,H  28)          126.3457         0.277576   
     79. A(C   1,C   2,H  28)          126.5129         0.344041   
     80. A(Ir  0,C   3,H  37)          124.1306         0.268713   
     81. A(Ir  0,C   3,C   5)           71.0803         0.319539   
     82. A(C   5,C   3,H  37)          126.0350         0.352256   
     83. A(C   4,C   3,H  37)          125.7071         0.343423   
     84. A(Ir  0,C   3,C   4)           70.3009         0.311803   
     85. A(C   4,C   3,C   5)          108.2573         0.415379   
     86. A(C   3,C   4,H  38)          125.8144         0.343327   
     87. A(Ir  0,C   4,C   1)           70.6750         0.320195   
     88. A(C   1,C   4,H  38)          126.2762         0.351940   
     89. A(Ir  0,C   4,H  38)          124.4674         0.269306   
     90. A(Ir  0,C   4,C   3)           70.6304         0.312623   
     91. A(C   1,C   4,C   3)          107.9089         0.415109   
     92. A(Ir  0,C   5,H  29)          122.4294         0.268572   
     93. A(C   3,C   5,H  29)          126.0214         0.352147   
     94. A(C   2,C   5,H  29)          125.5687         0.345398   
     95. A(Ir  0,C   5,C   3)           71.0475         0.319455   
     96. A(C   2,C   5,C   3)          108.2066         0.418049   
     97. A(Ir  0,C   5,C   2)           68.1664         0.313545   
     98. A(Ir  0,N   6,C  17)          114.4790         0.342508   
     99. A(C   7,N   6,C  17)          122.3969         0.420952   
    100. A(Ir  0,N   6,C   7)          123.0878         0.304682   
    101. A(N   6,C   7,C   8)          113.6342         0.369561   
    102. A(N   6,C   7,C  12)          109.7553         0.368811   
    103. A(C   8,C   7,C  12)          111.5714         0.366967   
    104. A(N   6,C   7,H  13)          104.7049         0.327459   
    105. A(C   8,C   7,H  13)          108.2554         0.325888   
    106. A(C  12,C   7,H  13)          108.5742         0.325255   
    107. A(C   7,C   8,H  11)          112.1079         0.326097   
    108. A(H   9,C   8,H  11)          107.2733         0.290911   
    109. A(H  10,C   8,H  11)          108.8331         0.290575   
    110. A(C   7,C   8,H   9)          108.8101         0.326351   
    111. A(C   7,C   8,H  10)          113.0153         0.325956   
    112. A(H   9,C   8,H  10)          106.4931         0.290791   
    113. A(C   7,C  12,H  14)          109.6090         0.325751   
    114. A(C   7,C  12,H  15)          111.2972         0.325382   
    115. A(H  14,C  12,H  15)          107.7491         0.290872   
    116. A(C   7,C  12,H  16)          112.1817         0.325722   
    117. A(H  14,C  12,H  16)          107.1717         0.291162   
    118. A(H  15,C  12,H  16)          108.6509         0.290847   
    119. A(N   6,C  17,C  18)          117.1709         0.440153   
    120. A(N   6,C  17,H  19)          121.7780         0.370420   
    121. A(C  18,C  17,H  19)          121.0044         0.342279   
    122. A(C  17,C  18,C  20)          122.1603         0.420198   
    123. A(C  17,C  18,S  22)          124.7142         0.427980   
    124. A(C  20,C  18,S  22)          113.1104         0.444238   
    125. A(C  18,C  20,C  21)          110.2321         0.426232   
    126. A(C  18,C  20,H  24)          120.4214         0.324965   
    127. A(C  21,C  20,H  24)          125.2987         0.318268   
    128. A(C  20,C  21,H  25)          123.8100         0.348219   
    129. A(C  23,C  21,H  25)          122.8220         0.361944   
    130. A(C  20,C  21,C  23)          113.2733         0.434009   
    131. A(C  18,S  22,C  23)           90.8827         0.451632   
    132. A(C  21,C  23,H  26)          127.8633         0.362121   
    133. A(S  22,C  23,H  26)          119.6592         0.361521   
    134. A(C  21,C  23,S  22)          112.4606         0.451477   
    135. L(C  20,H  24,O  30,C  18, 1) 175.8148         0.229573   
    136. L(C  20,H  24,O  30,C  18, 2) 182.1683         0.229573   
    137. A(H  24,O  30,C  32)          117.0845         0.316529   
    138. A(Ir  0,O  31,C  32)          126.6189         0.354819   
    139. A(O  30,C  32,O  31)          124.5873         0.490959   
    140. A(O  30,C  32,C  33)          120.4281         0.436728   
    141. A(O  31,C  32,C  33)          114.9668         0.421574   
    142. A(C  32,C  33,H  34)          110.7627         0.330659   
    143. A(C  32,C  33,H  35)          108.9404         0.329602   
    144. A(H  34,C  33,H  35)          107.7314         0.291095   
    145. A(C  32,C  33,H  36)          111.7596         0.330427   
    146. A(H  34,C  33,H  36)          110.1612         0.291789   
    147. A(H  35,C  33,H  36)          107.3330         0.290901   
    148. D(H  27,C   1,Ir  0,N   6)      1.0603         0.001715   
    149. D(C   2,C   1,Ir  0,C   5)     39.1038         0.001715   
    150. D(C   2,C   1,Ir  0,N   6)   -118.5433         0.001715   
    151. D(C   2,C   1,Ir  0,C   4)    119.2022         0.001715   
    152. D(H  27,C   1,Ir  0,C   2)    119.6036         0.001715   
    153. D(C   4,C   1,Ir  0,C   2)   -119.2022         0.001715   
    154. D(C   4,C   1,Ir  0,C   3)    -38.0555         0.001715   
    155. D(C   4,C   1,Ir  0,C   5)    -80.0984         0.001715   
    156. D(H  27,C   1,Ir  0,O  31)     98.6564         0.001715   
    157. D(C   4,C   1,Ir  0,N   6)    122.2545         0.001715   
    158. D(H  27,C   1,Ir  0,C   5)    158.7074         0.001715   
    159. D(H  27,C   1,Ir  0,C   4)   -121.1942         0.001715   
    160. D(C   4,C   1,Ir  0,O  31)   -140.1494         0.001715   
    161. D(C   2,C   1,Ir  0,C   3)     81.1467         0.001715   
    162. D(C   2,C   1,Ir  0,O  31)    -20.9472         0.001715   
    163. D(H  27,C   1,Ir  0,C   3)   -159.2497         0.001715   
    164. D(C   5,C   2,C   1,H  27)    178.5165         0.020978   
    165. D(C   1,C   2,Ir  0,C   5)   -115.4625         0.001800   
    166. D(C   5,C   2,Ir  0,N   6)   -170.4436         0.001800   
    167. D(C   1,C   2,Ir  0,C   3)    -79.4345         0.001800   
    168. D(H  28,C   2,Ir  0,C   4)   -158.7311         0.001800   
    169. D(C   5,C   2,Ir  0,C   1)    115.4625         0.001800   
    170. D(Ir  0,C   2,C   1,C   4)     60.4776         0.020978   
    171. D(C   5,C   2,Ir  0,C   3)     36.0280         0.001800   
    172. D(H  28,C   2,Ir  0,N   6)    -48.3787         0.001800   
    173. D(H  28,C   2,Ir  0,C   5)    122.0649         0.001800   
    174. D(C   5,C   2,C   1,C   4)     -3.9561         0.020978   
    175. D(H  28,C   2,C   1,H  27)      5.2280         0.020978   
    176. D(H  28,C   2,Ir  0,C   1)   -122.4726         0.001800   
    177. D(H  28,C   2,C   1,C   4)   -177.2445         0.020978   
    178. D(C   1,C   2,Ir  0,O  31)    167.6713         0.001800   
    179. D(C   5,C   2,Ir  0,C   4)     79.2039         0.001800   
    180. D(H  28,C   2,C   1,Ir  0)    122.2779         0.020978   
    181. D(Ir  0,C   2,C   1,H  27)   -117.0499         0.020978   
    182. D(C   1,C   2,Ir  0,N   6)     74.0939         0.001800   
    183. D(C   5,C   2,Ir  0,O  31)    -76.8663         0.001800   
    184. D(H  28,C   2,Ir  0,O  31)     45.1987         0.001800   
    185. D(H  28,C   2,Ir  0,C   3)    158.0929         0.001800   
    186. D(C   1,C   2,Ir  0,C   4)    -36.2585         0.001800   
    187. D(C   5,C   2,C   1,Ir  0)    -64.4336         0.020978   
    188. D(C   4,C   3,Ir  0,C   5)    118.3257         0.001697   
    189. D(C   4,C   3,Ir  0,O  31)    178.0940         0.001697   
    190. D(C   4,C   3,Ir  0,N   6)    -17.7896         0.001697   
    191. D(C   4,C   3,Ir  0,C   1)     37.0754         0.001697   
    192. D(C   5,C   3,Ir  0,O  31)     59.7683         0.001697   
    193. D(C   5,C   3,Ir  0,C   2)    -37.3310         0.001697   
    194. D(C   4,C   3,Ir  0,C   2)     80.9947         0.001697   
    195. D(H  37,C   3,Ir  0,C   4)    120.4129         0.001697   
    196. D(H  37,C   3,Ir  0,C   1)    157.4883         0.001697   
    197. D(C   5,C   3,Ir  0,C   1)    -81.2503         0.001697   
    198. D(C   5,C   3,Ir  0,C   4)   -118.3257         0.001697   
    199. D(H  37,C   3,Ir  0,C   5)   -121.2614         0.001697   
    200. D(H  37,C   3,Ir  0,N   6)    102.6233         0.001697   
    201. D(H  37,C   3,Ir  0,O  31)    -61.4931         0.001697   
    202. D(C   5,C   3,Ir  0,N   6)   -136.1153         0.001697   
    203. D(H  37,C   3,Ir  0,C   2)   -158.5924         0.001697   
    204. D(C   1,C   4,Ir  0,C   3)    117.9501         0.001703   
    205. D(H  38,C   4,C   3,H  37)      0.6206         0.020487   
    206. D(C   1,C   4,Ir  0,C   5)     81.1995         0.001703   
    207. D(C   1,C   4,Ir  0,N   6)    -70.0949         0.001703   
    208. D(C   1,C   4,Ir  0,O  31)    113.7139         0.001703   
    209. D(C   1,C   4,Ir  0,C   2)     37.6965         0.001703   
    210. D(C   3,C   4,Ir  0,C   1)   -117.9501         0.001703   
    211. D(H  38,C   4,C   3,C   5)   -179.6520         0.020487   
    212. D(C   3,C   4,Ir  0,C   5)    -36.7506         0.001703   
    213. D(C   3,C   4,Ir  0,N   6)    171.9550         0.001703   
    214. D(C   3,C   4,Ir  0,O  31)     -4.2362         0.001703   
    215. D(Ir  0,C   4,C   1,C   2)    -58.7384         0.027859   
    216. D(H  38,C   4,Ir  0,C   2)    159.0146         0.001703   
    217. D(H  38,C   4,Ir  0,C   3)   -120.7317         0.001703   
    218. D(H  38,C   4,C   1,C   2)   -177.8518         0.027859   
    219. D(H  38,C   4,Ir  0,N   6)     51.2233         0.001703   
    220. D(H  38,C   4,Ir  0,O  31)   -124.9679         0.001703   
    221. D(Ir  0,C   4,C   1,H  27)    118.7885         0.027859   
    222. D(C   3,C   4,C   1,Ir  0)     61.1389         0.027859   
    223. D(C   3,C   4,C   1,H  27)    179.9274         0.027859   
    224. D(H  38,C   4,C   1,Ir  0)   -119.1133         0.027859   
    225. D(H  38,C   4,Ir  0,C   5)   -157.4823         0.001703   
    226. D(H  38,C   4,C   1,H  27)     -0.3248         0.027859   
    227. D(Ir  0,C   4,C   3,C   5)     61.2645         0.020487   
    228. D(Ir  0,C   4,C   3,H  37)   -118.4628         0.020487   
    229. D(C   3,C   4,C   1,C   2)      2.4005         0.027859   
    230. D(C   1,C   4,C   3,C   5)      0.0972         0.020487   
    231. D(C   1,C   4,C   3,H  37)   -179.6301         0.020487   
    232. D(H  38,C   4,C   3,Ir  0)    119.0835         0.020487   
    233. D(H  38,C   4,Ir  0,C   1)    121.3182         0.001703   
    234. D(C   1,C   4,C   3,Ir  0)    -61.1673         0.020487   
    235. D(C   3,C   4,Ir  0,C   2)    -80.2537         0.001703   
    236. D(C   2,C   5,Ir  0,C   1)    -39.4243         0.001696   
    237. D(H  29,C   5,C   3,C   4)   -177.6016         0.028075   
    238. D(C   2,C   5,Ir  0,C   4)    -81.6698         0.001696   
    239. D(C   2,C   5,Ir  0,N   6)     20.0996         0.001696   
    240. D(C   2,C   5,Ir  0,O  31)    110.7868         0.001696   
    241. D(C   3,C   5,Ir  0,C   1)     80.1443         0.001696   
    242. D(C   3,C   5,Ir  0,C   2)    119.5686         0.001696   
    243. D(C   3,C   5,Ir  0,C   4)     37.8988         0.001696   
    244. D(H  29,C   5,C   2,C   1)    179.0752         0.022068   
    245. D(C   3,C   5,Ir  0,O  31)   -129.6447         0.001696   
    246. D(H  29,C   5,Ir  0,C   1)   -158.6238         0.001696   
    247. D(C   3,C   5,C   2,Ir  0)    -59.9934         0.022068   
    248. D(H  29,C   5,Ir  0,C   3)    121.2319         0.001696   
    249. D(H  29,C   5,Ir  0,C   4)    159.1307         0.001696   
    250. D(H  29,C   5,Ir  0,N   6)    -99.1000         0.001696   
    251. D(H  29,C   5,Ir  0,O  31)     -8.4128         0.001696   
    252. D(Ir  0,C   5,C   2,C   1)     64.0066         0.022068   
    253. D(H  29,C   5,Ir  0,C   2)   -119.1996         0.001696   
    254. D(Ir  0,C   5,C   2,H  28)   -122.6473         0.022068   
    255. D(C   3,C   5,C   2,C   1)      4.0132         0.022068   
    256. D(C   3,C   5,C   2,H  28)    177.3594         0.022068   
    257. D(C   3,C   5,Ir  0,N   6)    139.6682         0.001696   
    258. D(H  29,C   5,C   2,Ir  0)    115.0686         0.022068   
    259. D(H  29,C   5,C   2,H  28)     -7.5786         0.022068   
    260. D(Ir  0,C   5,C   3,C   4)    -60.7715         0.028075   
    261. D(Ir  0,C   5,C   3,H  37)    118.9548         0.028075   
    262. D(C   2,C   5,C   3,Ir  0)     58.2036         0.028075   
    263. D(C   2,C   5,C   3,C   4)     -2.5678         0.028075   
    264. D(C   2,C   5,C   3,H  37)    177.1584         0.028075   
    265. D(C   2,C   5,Ir  0,C   3)   -119.5686         0.001696   
    266. D(H  29,C   5,C   3,Ir  0)   -116.8301         0.028075   
    267. D(H  29,C   5,C   3,H  37)      2.1247         0.028075   
    268. D(C  17,N   6,Ir  0,C   1)    -93.7334         0.001776   
    269. D(C   7,N   6,Ir  0,C   2)     45.5642         0.001776   
    270. D(C   7,N   6,Ir  0,C   3)    132.8099         0.001776   
    271. D(C   7,N   6,Ir  0,C   4)    120.2347         0.001776   
    272. D(C   7,N   6,Ir  0,C   5)     31.5498         0.001776   
    273. D(C   7,N   6,Ir  0,C   1)     84.1204         0.001776   
    274. D(C   7,N   6,Ir  0,O  31)    -61.2911         0.001776   
    275. D(C  17,N   6,Ir  0,C   2)   -132.2896         0.001776   
    276. D(C  17,N   6,Ir  0,C   3)    -45.0439         0.001776   
    277. D(C  17,N   6,Ir  0,C   4)    -57.6191         0.001776   
    278. D(C  17,N   6,Ir  0,C   5)   -146.3040         0.001776   
    279. D(C  17,N   6,Ir  0,O  31)    120.8551         0.001776   
    280. D(C   8,C   7,N   6,Ir  0)    159.1415         0.014555   
    281. D(C   8,C   7,N   6,C  17)    -23.1719         0.014555   
    282. D(C  12,C   7,N   6,Ir  0)    -75.1559         0.014555   
    283. D(C  12,C   7,N   6,C  17)    102.5307         0.014555   
    284. D(H  13,C   7,N   6,Ir  0)     41.2140         0.014555   
    285. D(H  13,C   7,N   6,C  17)   -141.0994         0.014555   
    286. D(H   9,C   8,C   7,N   6)   -170.0672         0.011905   
    287. D(H   9,C   8,C   7,C  12)     65.2006         0.011905   
    288. D(H   9,C   8,C   7,H  13)    -54.2113         0.011905   
    289. D(H  10,C   8,C   7,N   6)     71.8629         0.011905   
    290. D(H  10,C   8,C   7,C  12)    -52.8694         0.011905   
    291. D(H  10,C   8,C   7,H  13)   -172.2812         0.011905   
    292. D(H  11,C   8,C   7,N   6)    -51.5812         0.011905   
    293. D(H  11,C   8,C   7,C  12)   -176.3134         0.011905   
    294. D(H  11,C   8,C   7,H  13)     64.2747         0.011905   
    295. D(H  14,C  12,C   7,N   6)    177.0929         0.011639   
    296. D(H  14,C  12,C   7,C   8)    -56.0348         0.011639   
    297. D(H  14,C  12,C   7,H  13)     63.1881         0.011639   
    298. D(H  15,C  12,C   7,N   6)    -63.8148         0.011639   
    299. D(H  15,C  12,C   7,C   8)     63.0575         0.011639   
    300. D(H  15,C  12,C   7,H  13)   -177.7197         0.011639   
    301. D(H  16,C  12,C   7,N   6)     58.1645         0.011639   
    302. D(H  16,C  12,C   7,C   8)   -174.9631         0.011639   
    303. D(H  16,C  12,C   7,H  13)    -55.7403         0.011639   
    304. D(C  18,C  17,N   6,Ir  0)    -10.2000         0.061482   
    305. D(C  18,C  17,N   6,C   7)    171.9296         0.061482   
    306. D(H  19,C  17,N   6,Ir  0)    172.2633         0.061482   
    307. D(H  19,C  17,N   6,C   7)     -5.6070         0.061482   
    308. D(C  20,C  18,C  17,N   6)    -38.1147         0.017769   
    309. D(C  20,C  18,C  17,H  19)    139.4422         0.017769   
    310. D(S  22,C  18,C  17,N   6)    140.3720         0.017769   
    311. D(S  22,C  18,C  17,H  19)    -42.0711         0.017769   
    312. D(C  21,C  20,C  18,C  17)    176.4398         0.029710   
    313. D(C  21,C  20,C  18,S  22)     -2.2077         0.029710   
    314. D(H  24,C  20,C  18,C  17)    -25.0348         0.029710   
    315. D(H  24,C  20,C  18,S  22)    156.3177         0.029710   
    316. D(C  23,C  21,C  20,C  18)      1.6895         0.022714   
    317. D(C  23,C  21,C  20,H  24)   -155.5550         0.022714   
    318. D(H  25,C  21,C  20,C  18)    178.2344         0.022714   
    319. D(H  25,C  21,C  20,H  24)     20.9900         0.022714   
    320. D(C  23,S  22,C  18,C  17)   -176.9134         0.005453   
    321. D(C  23,S  22,C  18,C  20)      1.6937         0.005453   
    322. D(S  22,C  23,C  21,C  20)     -0.4490         0.033935   
    323. D(S  22,C  23,C  21,H  25)   -177.0329         0.033935   
    324. D(H  26,C  23,C  21,C  20)    178.0335         0.033935   
    325. D(H  26,C  23,C  21,H  25)      1.4496         0.033935   
    326. D(C  21,C  23,S  22,C  18)     -0.6924         0.005358   
    327. D(H  26,C  23,S  22,C  18)   -179.3137         0.005358   
    328. D(C  32,O  30,C  20,C  18)     85.0177         0.001504   
    329. D(C  32,O  30,C  20,C  21)   -121.3564         0.001504   
    330. D(C  32,O  31,Ir  0,C   1)   -175.3973         0.001923   
    331. D(C  32,O  31,Ir  0,C   2)    170.8182         0.001923   
    332. D(C  32,O  31,Ir  0,C   3)    100.4102         0.001923   
    333. D(C  32,O  31,Ir  0,C   4)    103.4166         0.001923   
    334. D(C  32,O  31,Ir  0,C   5)    132.5865         0.001923   
    335. D(C  32,O  31,Ir  0,N   6)    -73.2059         0.001923   
    336. D(O  31,C  32,O  30,H  24)     -7.8250         0.080799   
    337. D(C  33,C  32,O  30,H  24)    170.5650         0.080799   
    338. D(O  30,C  32,O  31,Ir  0)      3.0677         0.051625   
    339. D(C  33,C  32,O  31,Ir  0)   -175.4010         0.051625   
    340. D(H  34,C  33,C  32,O  30)     24.5410         0.012740   
    341. D(H  34,C  33,C  32,O  31)   -156.9211         0.012740   
    342. D(H  35,C  33,C  32,O  30)    -93.7828         0.012740   
    343. D(H  35,C  33,C  32,O  31)     84.7552         0.012740   
    344. D(H  36,C  33,C  32,O  30)    147.7850         0.012740   
    345. D(H  36,C  33,C  32,O  31)    -33.6771         0.012740   
    -----------------------------------------------------------------

Number of atoms                         .... 39
Number of degrees of freedom            .... 345

         *************************************************************
         *                GEOMETRY OPTIMIZATION CYCLE   1            *
         *************************************************************
---------------------------------
CARTESIAN COORDINATES (ANGSTROEM)
---------------------------------
  Ir     0.560975   -0.745206    0.517764
  C      0.003073   -2.819247    0.376723
  C      0.073314   -2.382441    1.750135
  C      2.168297   -2.162588    0.822460
  C      1.273498   -2.653159   -0.202124
  C      1.440943   -2.034766    2.017707
  N     -1.039345    0.150753   -0.502008
  C     -2.322964    0.474969    0.142854
  C     -3.125781    1.534210   -0.595702
  H     -3.962810    1.840388    0.030291
  H     -3.555011    1.169644   -1.530288
  H     -2.534244    2.426171   -0.804345
  C     -3.132489   -0.799477    0.348357
  H     -2.048611    0.874110    1.120999
  H     -4.058126   -0.564106    0.871466
  H     -3.396886   -1.258961   -0.605009
  H     -2.599293   -1.532404    0.952252
  C     -0.826780    0.355409   -1.745596
  C      0.523249    0.165592   -2.224189
  H     -1.614002    0.697276   -2.412020
  C      1.632390    0.536306   -1.474672
  C      2.829020    0.161865   -2.148105
  S      0.934589   -0.556039   -3.721449
  C      2.605477   -0.423675   -3.356423
  H      1.542329    1.419647   -0.625151
  H      3.820512    0.370438   -1.772878
  H      3.337442   -0.768851   -4.071086
  H     -0.883203   -3.171715   -0.131069
  H     -0.723687   -2.420622    2.478307
  H      1.821403   -1.656845    2.955765
  O      1.358710    2.403031    0.249115
  O      0.539164    0.911623    1.693708
  C      0.940952    2.089976    1.367396
  C      0.906039    3.101243    2.476637
  H      0.856886    4.110311    2.076541
  H      1.825343    3.019252    3.060033
  H      0.074543    2.926302    3.155778
  H      3.214450   -1.930689    0.687439
  H      1.540004   -2.858534   -1.228876

----------------------------
CARTESIAN COORDINATES (A.U.)
----------------------------
  NO LB      ZA    FRAG     MASS         X           Y           Z
   0 Ir   17.0000*   0   192.220    1.060089   -1.408235    0.978431
   1 C     6.0000    0    12.011    0.005807   -5.327605    0.711903
   2 C     6.0000    0    12.011    0.138544   -4.502161    3.307275
   3 C     6.0000    0    12.011    4.097487   -4.086699    1.554225
   4 C     6.0000    0    12.011    2.406562   -5.013744   -0.381959
   5 C     6.0000    0    12.011    2.722987   -3.845150    3.812913
   6 N     7.0000    0    14.007   -1.964078    0.284883   -0.948657
   7 C     6.0000    0    12.011   -4.389765    0.897562    0.269955
   8 C     6.0000    0    12.011   -5.906871    2.899237   -1.125713
   9 H     1.0000    0     1.008   -7.488625    3.477829    0.057242
  10 H     1.0000    0     1.008   -6.717997    2.210306   -2.891825
  11 H     1.0000    0     1.008   -4.789027    4.584798   -1.519991
  12 C     6.0000    0    12.011   -5.919546   -1.510792    0.658299
  13 H     1.0000    0     1.008   -3.871314    1.651828    2.118382
  14 H     1.0000    0     1.008   -7.668747   -1.066006    1.646832
  15 H     1.0000    0     1.008   -6.419185   -2.379091   -1.143301
  16 H     1.0000    0     1.008   -4.911953   -2.895825    1.799495
  17 C     6.0000    0    12.011   -1.562388    0.671625   -3.298697
  18 C     6.0000    0    12.011    0.988797    0.312924   -4.203109
  19 H     1.0000    0     1.008   -3.050021    1.317661   -4.558057
  20 C     6.0000    0    12.011    3.084769    1.013471   -2.786726
  21 C     6.0000    0    12.011    5.346073    0.305881   -4.059330
  22 S    16.0000    0    32.060    1.766117   -1.050762   -7.032520
  23 C     6.0000    0    12.011    4.923638   -0.800630   -6.342720
  24 H     1.0000    0     1.008    2.914580    2.682743   -1.181363
  25 H     1.0000    0     1.008    7.219722    0.700027   -3.350254
  26 H     1.0000    0     1.008    6.306852   -1.452917   -7.693238
  27 H     1.0000    0     1.008   -1.669011   -5.993672   -0.247685
  28 H     1.0000    0     1.008   -1.367570   -4.574312    4.683322
  29 H     1.0000    0     1.008    3.441953   -3.130984    5.585586
  30 O     8.0000    0    15.999    2.567591    4.541071    0.470760
  31 O     8.0000    0    15.999    1.018872    1.722719    3.200644
  32 C     6.0000    0    12.011    1.778141    3.949483    2.584005
  33 C     6.0000    0    12.011    1.712166    5.860501    4.680166
  34 H     1.0000    0     1.008    1.619280    7.767361    3.924094
  35 H     1.0000    0     1.008    3.449399    5.705559    5.782625
  36 H     1.0000    0     1.008    0.140866    5.529908    5.963556
  37 H     1.0000    0     1.008    6.074430   -3.648474    1.299071
  38 H     1.0000    0     1.008    2.910187   -5.401846   -2.322239
* core charge reduced due to ECP

--------------------------------
INTERNAL COORDINATES (ANGSTROEM)
--------------------------------
 Ir     0   0   0     0.000000000000     0.00000000     0.00000000
 C      1   0   0     2.152342618677     0.00000000     0.00000000
 C      2   1   0     1.442971419139    68.48724711     0.00000000
 C      1   2   3     2.164511327738    64.58274111    81.14629349
 C      2   1   3     1.406049025093    71.27006382   240.79780112
 C      4   1   2     1.405055912287    71.07955338   278.74876305
 N      1   2   3     2.098479525793   100.47276666   241.45855074
 C      7   1   2     1.472629861528   123.08706708    84.14199614
 C      8   7   1     1.520516830475   113.63416658   159.14212483
 H      9   8   7     1.089141165406   108.81008480   189.93281590
 H      9   8   7     1.091145129540   113.01533962    71.86287393
 H      9   8   7     1.090431595145   112.10788920   308.41882987
 C      8   7   1     1.523737092529   109.75530455   284.84472935
 H      8   7   1     1.091489930061   104.70485235    41.21465101
 H     13   8   7     1.088965773257   109.60902874   177.09292356
 H     13   8   7     1.090842536050   111.29717208   296.18519785
 H     13   8   7     1.089114073189   112.18164847    58.16454041
 C      7   1   2     1.278291072940   114.48686508   266.28968098
 C     18   7   1     1.444936889077   117.19763094   349.88415381
 H     18   7   1     1.086605511985   121.76285557   172.31029905
 C     19  18   7     1.388593251690   122.17017471   321.90584832
 C     21  19  18     1.423220123227   110.25323508   176.43067314
 S     19  18   7     1.712260870803   124.71064832   140.37445685
 C     22  21  19     1.361174010194   113.26351804     1.68572804
 H     21  19  18     1.228110384401   120.37365733   334.97350490
 H     22  21  19     1.080440645837   123.81490814   178.23227954
 H     24  22  21     1.079657285670   127.86634862   178.03523423
 H      2   1   3     1.080541774502   123.89908034   119.60233588
 H      3   2   1     1.080233071850   126.51261510   122.27849252
 H      6   4   1     1.080521342470   126.02232023   243.16897550
 O     25  21  19     1.342857142579   175.58745566   343.28987361
 O      1   2   3     2.032553704991   145.16182203   339.06281393
 C     31  25  21     1.233592557449   116.91876550   102.40907615
 C     33  31  25     1.501423761829   120.43636203   170.57425455
 H     34  33  31     1.086600303509   110.76262327    24.54218369
 H     34  33  31     1.091875662849   108.94035399   266.21837336
 H     34  33  31     1.087756344757   111.75956749   147.78596996
 H      4   1   2     1.080020636275   124.13175432   157.48882057
 H      5   2   1     1.080473900431   126.27885742   240.88643911

---------------------------
INTERNAL COORDINATES (A.U.)
---------------------------
 Ir     0   0   0     0.000000000000     0.00000000     0.00000000
 C      1   0   0     4.067338095666     0.00000000     0.00000000
 C      2   1   0     2.726820801248    68.48724711     0.00000000
 C      1   2   3     4.090333623194    64.58274111    81.14629349
 C      2   1   3     2.657047588292    71.27006382   240.79780112
 C      4   1   2     2.655170877069    71.07955338   278.74876305
 N      1   2   3     3.965551601390   100.47276666   241.45855074
 C      7   1   2     2.782867134923   123.08706708    84.14199614
 C      8   7   1     2.873360391615   113.63416658   159.14212483
 H      9   8   7     2.058178523796   108.81008480   189.93281590
 H      9   8   7     2.061965467192   113.01533962    71.86287393
 H      9   8   7     2.060617082598   112.10788920   308.41882987
 C      8   7   1     2.879445804977   109.75530455   284.84472935
 H      8   7   1     2.062617045748   104.70485235    41.21465101
 H     13   8   7     2.057847080669   109.60902874   177.09292356
 H     13   8   7     2.061393648367   111.29717208   296.18519785
 H     13   8   7     2.058127326927   112.18164847    58.16454041
 C      7   1   2     2.415620047293   114.48686508   266.28968098
 C     18   7   1     2.730535001155   117.19763094   349.88415381
 H     18   7   1     2.053386833261   121.76285557   172.31029905
 C     19  18   7     2.624060957105   122.17017471   321.90584832
 C     21  19  18     2.689496261185   110.25323508   176.43067314
 S     19  18   7     3.235704115648   124.71064832   140.37445685
 C     22  21  19     2.572246099878   113.26351804     1.68572804
 H     21  19  18     2.320792288742   120.37365733   334.97350490
 H     22  21  19     2.041736924588   123.81490814   178.23227954
 H     24  22  21     2.040256588410   127.86634862   178.03523423
 H      2   1   3     2.041928030070   123.89908034   119.60233588
 H      3   2   1     2.041344666601   126.51261510   122.27849252
 H      6   4   1     2.041889419125   126.02232023   243.16897550
 O     25  21  19     2.537632236455   175.58745566   343.28987361
 O      1   2   3     3.840969854920   145.16182203   339.06281393
 C     31  25  21     2.331152094423   116.91876550   102.40907615
 C     33  31  25     2.837279720819   120.43636203   170.57425455
 H     34  33  31     2.053376990668   110.76262327    24.54218369
 H     34  33  31     2.063345975078   108.94035399   266.21837336
 H     34  33  31     2.055561592025   111.75956749   147.78596996
 H      4   1   2     2.040943221543   124.13175432   157.48882057
 H      5   2   1     2.041799766664   126.27885742   240.88643911

---------------------
BASIS SET INFORMATION
---------------------
There are 6 groups of distinct atoms

 Group   1 Type Ir  : 7s6p5d1f contracted to 6s3p2d1f pattern {211111/411/41/1}
 Group   2 Type C   : 8s4p1d contracted to 4s2p1d pattern {5111/31/1}
 Group   3 Type N   : 8s4p1d contracted to 4s2p1d pattern {5111/31/1}
 Group   4 Type H   : 4s contracted to 2s pattern {31}
 Group   5 Type S   : 10s7p1d contracted to 4s3p1d pattern {5311/511/1}
 Group   6 Type O   : 8s4p1d contracted to 4s2p1d pattern {5111/31/1}

Atom   0Ir   basis set group =>   1
Atom   1C    basis set group =>   2
Atom   2C    basis set group =>   2
Atom   3C    basis set group =>   2
Atom   4C    basis set group =>   2
Atom   5C    basis set group =>   2
Atom   6N    basis set group =>   3
Atom   7C    basis set group =>   2
Atom   8C    basis set group =>   2
Atom   9H    basis set group =>   4
Atom  10H    basis set group =>   4
Atom  11H    basis set group =>   4
Atom  12C    basis set group =>   2
Atom  13H    basis set group =>   4
Atom  14H    basis set group =>   4
Atom  15H    basis set group =>   4
Atom  16H    basis set group =>   4
Atom  17C    basis set group =>   2
Atom  18C    basis set group =>   2
Atom  19H    basis set group =>   4
Atom  20C    basis set group =>   2
Atom  21C    basis set group =>   2
Atom  22S    basis set group =>   5
Atom  23C    basis set group =>   2
Atom  24H    basis set group =>   4
Atom  25H    basis set group =>   4
Atom  26H    basis set group =>   4
Atom  27H    basis set group =>   4
Atom  28H    basis set group =>   4
Atom  29H    basis set group =>   4
Atom  30O    basis set group =>   6
Atom  31O    basis set group =>   6
Atom  32C    basis set group =>   2
Atom  33C    basis set group =>   2
Atom  34H    basis set group =>   4
Atom  35H    basis set group =>   4
Atom  36H    basis set group =>   4
Atom  37H    basis set group =>   4
Atom  38H    basis set group =>   4
---------------------------------
AUXILIARY/J BASIS SET INFORMATION
---------------------------------
There are 6 groups of distinct atoms

 Group   1 Type Ir  : 11s5p5d3f3g contracted to 8s5p5d2f3g pattern {41111111/11111/11111/21/111}
 Group   2 Type C   : 12s5p4d2f1g contracted to 6s4p3d1f1g pattern {711111/2111/211/2/1}
 Group   3 Type N   : 12s5p4d2f1g contracted to 6s4p3d1f1g pattern {711111/2111/211/2/1}
 Group   4 Type H   : 5s2p1d contracted to 3s1p1d pattern {311/2/1}
 Group   5 Type S   : 14s5p5d2f1g contracted to 8s4p3d1f1g pattern {71111111/2111/311/2/1}
 Group   6 Type O   : 12s5p4d2f1g contracted to 6s4p3d1f1g pattern {711111/2111/211/2/1}

Atom   0Ir   basis set group =>   1
Atom   1C    basis set group =>   2
Atom   2C    basis set group =>   2
Atom   3C    basis set group =>   2
Atom   4C    basis set group =>   2
Atom   5C    basis set group =>   2
Atom   6N    basis set group =>   3
Atom   7C    basis set group =>   2
Atom   8C    basis set group =>   2
Atom   9H    basis set group =>   4
Atom  10H    basis set group =>   4
Atom  11H    basis set group =>   4
Atom  12C    basis set group =>   2
Atom  13H    basis set group =>   4
Atom  14H    basis set group =>   4
Atom  15H    basis set group =>   4
Atom  16H    basis set group =>   4
Atom  17C    basis set group =>   2
Atom  18C    basis set group =>   2
Atom  19H    basis set group =>   4
Atom  20C    basis set group =>   2
Atom  21C    basis set group =>   2
Atom  22S    basis set group =>   5
Atom  23C    basis set group =>   2
Atom  24H    basis set group =>   4
Atom  25H    basis set group =>   4
Atom  26H    basis set group =>   4
Atom  27H    basis set group =>   4
Atom  28H    basis set group =>   4
Atom  29H    basis set group =>   4
Atom  30O    basis set group =>   6
Atom  31O    basis set group =>   6
Atom  32C    basis set group =>   2
Atom  33C    basis set group =>   2
Atom  34H    basis set group =>   4
Atom  35H    basis set group =>   4
Atom  36H    basis set group =>   4
Atom  37H    basis set group =>   4
Atom  38H    basis set group =>   4
-------------------------
ECP PARAMETER INFORMATION
-------------------------

 Group 1, Type Ir ECP Def2-ECP (replacing 60 core electrons, lmax=3)

Atom   0Ir   ECP group =>   1

------------------------------------------------------------------------------
                           ORCA GTO INTEGRAL CALCULATION
                           -- RI-GTO INTEGRALS CHOSEN --
------------------------------------------------------------------------------
------------------------------------------------------------------------------
                   ___                                                        
                  /   \      - P O W E R E D   B Y -                         
                 /     \                                                     
                 |  |  |   _    _      __       _____    __    __             
                 |  |  |  | |  | |    /  \     |  _  \  |  |  /  |          
                  \  \/   | |  | |   /    \    | | | |  |  | /  /          
                 / \  \   | |__| |  /  /\  \   | |_| |  |  |/  /          
                |  |  |   |  __  | /  /__\  \  |    /   |      \           
                |  |  |   | |  | | |   __   |  |    \   |  |\   \          
                \     /   | |  | | |  |  |  |  | |\  \  |  | \   \       
                 \___/    |_|  |_| |__|  |__|  |_| \__\ |__|  \__/        
                                                                              
                      - O R C A' S   B I G   F R I E N D -                    
                                      &                                       
                       - I N T E G R A L  F E E D E R -                       
                                                                              
 v1 FN, 2020, v2 2021                                                         
------------------------------------------------------------------------------


Reading SHARK input file reaction4-IEIP_ts_guess_scan_0-12_orca.SHARKINP.tmp ... ok
----------------------
SHARK INTEGRAL PACKAGE
----------------------

Number of atoms                             ...     39
Number of basis functions                   ...    358
Number of shells                            ...    184
Maximum angular momentum                    ...      3
Integral batch strategy                     ... SHARK/LIBINT Hybrid
RI-J (if used) integral strategy            ... SPLIT-RIJ (Revised 2003 algorithm where possible)
Printlevel                                  ...      1
Contraction scheme used                     ... SEGMENTED contraction
Coulomb Range Separation                    ... NOT USED
Exchange Range Separation                   ... NOT USED
Finite Nucleus Model                        ... NOT USED
Auxiliary Coulomb fitting basis             ... AVAILABLE
   # of basis functions in Aux-J            ...   1231
   # of shells in Aux-J                     ...    405
   Maximum angular momentum in Aux-J        ...      4
Auxiliary J/K fitting basis                 ... NOT available
Auxiliary Correlation fitting basis         ... NOT available
Auxiliary 'external' fitting basis          ... NOT available
Integral threshold                          ...     2.500000e-11
Primitive cut-off                           ...     2.500000e-12
Primitive pair pre-selection threshold      ...     2.500000e-12

Calculating pre-screening integrals         ... done (  0.1 sec) Dimension = 184
Organizing shell pair data                  ... done (  0.1 sec)
Shell pair information
Total number of shell pairs                 ...     17020
Shell pairs after pre-screening             ...     12941
Total number of primitive shell pairs       ...     60705
Primitive shell pairs kept                  ...     29079
          la=0 lb=0:   4958 shell pairs
          la=1 lb=0:   4246 shell pairs
          la=1 lb=1:    856 shell pairs
          la=2 lb=0:   1742 shell pairs
          la=2 lb=1:    785 shell pairs
          la=2 lb=2:    178 shell pairs
          la=3 lb=0:    112 shell pairs
          la=3 lb=1:     42 shell pairs
          la=3 lb=2:     21 shell pairs
          la=3 lb=3:      1 shell pairs

Calculating one electron integrals          ... done (  0.1 sec)
Calculating ECP integrals                   ... done (  0.8 sec)
Calculating RI/J V-Matrix + Cholesky decomp.... done (  0.1 sec)
Calculating Nuclear repulsion               ... done (  0.0 sec) ENN=   2030.662820337340 Eh

SHARK setup successfully completed in   1.4 seconds

Maximum memory used throughout the entire GTOINT-calculation: 90.6 MB
-------------------------------------------------------------------------------
                                 ORCA SCF
-------------------------------------------------------------------------------

------------
SCF SETTINGS
------------
Hamiltonian:
 Density Functional     Method          .... DFT(GTOs)
 Exchange Functional    Exchange        .... PBE
   PBE kappa parameter   XKappa         ....  1.024500
   PBE mue parameter    XMuePBE         ....  0.123457
 Correlation Functional Correlation     .... PBE
   PBE beta parameter  CBetaPBE         ....  0.030000
 LDA part of GGA corr.  LDAOpt          .... PW91-LDA
 Gradients option       PostSCFGGA      .... off
 Hybrid DFT is turned on
   Fraction HF Exchange ScalHFX         ....  0.420000
   Scaling of DF-GGA-X  ScalDFX         ....  0.580000
   Scaling of DF-GGA-C  ScalDFC         ....  1.000000
   Scaling of DF-LDA-C  ScalLDAC        ....  1.000000
   Perturbative correction              ....  0.000000
   Density functional embedding theory  .... OFF
 RI-approximation to the Coulomb term is turned on
   Number of AuxJ basis functions       .... 1231
   RIJ-ON(X) (HFX calculated with O(N)) .... on
   Number of AuxJ basis functions       .... 1231
   RIJ-COSX (HFX calculated with COS-X)).... on


General Settings:
 Integral files         IntName         .... reaction4-IEIP_ts_guess_scan_0-12_orca
 Hartree-Fock type      HFTyp           .... RHF
 Total Charge           Charge          ....    1
 Multiplicity           Mult            ....    1
 Number of Electrons    NEL             ....  164
 Basis Dimension        Dim             ....  358
 Nuclear Repulsion      ENuc            ....   2030.6628203373 Eh

Convergence Acceleration:
 DIIS                   CNVDIIS         .... on
   Start iteration      DIISMaxIt       ....    12
   Startup error        DIISStart       ....  0.200000
   # of expansion vecs  DIISMaxEq       ....     5
   Bias factor          DIISBfac        ....   1.050
   Max. coefficient     DIISMaxC        ....  10.000
 Trust-Rad. Augm. Hess. CNVTRAH         .... auto
   Auto Start mean grad. ratio tolernc. ....  1.125000
   Auto Start start iteration           ....    20
   Auto Start num. interpolation iter.  ....    10
   Max. Number of Micro iterations      ....    16
   Max. Number of Macro iterations      .... Maxiter - #DIIS iter
   Number of Davidson start vectors     ....     2
   Converg. threshold I  (grad. norm)   ....   1.000e-05
   Converg. threshold II (energy diff.) ....   1.000e-08
   Grad. Scal. Fac. for Micro threshold ....   0.100
   Minimum threshold for Micro iter.    ....   0.010
   NR start threshold (gradient norm)   ....   0.001
   Initial trust radius                 ....   0.400
   Minimum AH scaling param. (alpha)    ....   1.000
   Maximum AH scaling param. (alpha)    .... 1000.000
   Orbital update algorithm             .... Taylor
   White noise on init. David. guess    .... on
   Maximum white noise                  ....   0.010
   Quad. conv. algorithm                .... NR
   COSX micro iterations for RIJONX calc.... off
 SOSCF                  CNVSOSCF        .... off
 Level Shifting         CNVShift        .... on
   Level shift para.    LevelShift      ....    0.2500
   Turn off err/grad.   ShiftErr        ....    0.0010
 Zerner damping         CNVZerner       .... off
 Static damping         CNVDamp         .... on
   Fraction old density DampFac         ....    0.7000
   Max. Damping (<1)    DampMax         ....    0.9800
   Min. Damping (>=0)   DampMin         ....    0.0000
   Turn off err/grad.   DampErr         ....    0.1000
 Fernandez-Rico         CNVRico         .... off

SCF Procedure:
 Maximum # iterations   MaxIter         ....   250
 SCF integral mode      SCFMode         .... Direct
   Integral package                     .... SHARK and LIBINT hybrid scheme
 Reset frequency        DirectResetFreq ....    20
 Integral Threshold     Thresh          ....  2.500e-11 Eh
 Primitive CutOff       TCut            ....  2.500e-12 Eh

Convergence Tolerance:
 Convergence Check Mode ConvCheckMode   .... Total+1el-Energy
 Convergence forced     ConvForced      .... 0
 Energy Change          TolE            ....  1.000e-08 Eh
 1-El. energy change                    ....  1.000e-05 Eh
 DIIS Error             TolErr          ....  5.000e-07


Diagonalization of the overlap matrix:
Smallest eigenvalue                        ... 1.105e-03
Time for diagonalization                   ...    0.016 sec
Threshold for overlap eigenvalues          ... 1.000e-08
Number of eigenvalues below threshold      ... 0
Time for construction of square roots      ...    0.006 sec
Total time needed                          ...    0.022 sec

--------------------
INITIAL GUESS: HCORE
--------------------
                      -----------------
                      INTIAL GUESS DONE 
                      -----------------
-------------------
DFT GRID GENERATION
-------------------

General Integration Accuracy     IntAcc      ... 4.159
Radial Grid Type                 RadialGrid  ... OptM3 with GC (2021)
Angular Grid (max. ang.)         AngularGrid ... 3 (Lebedev-194)
Angular grid pruning method      GridPruning ... 4 (adaptive)
Weight generation scheme         WeightScheme... Becke
Basis function cutoff            BFCut       ... 1.0000e-11
Integration weight cutoff        WCut        ... 1.0000e-14
Angular grids for H and He will be reduced by one unit
Partially contracted basis set               ... off
Rotationally invariant grid construction     ... off

Total number of grid points                  ...    93350
Total number of batches                      ...     1481
Average number of points per batch           ...       63
Average number of grid points per atom       ...     2394
Time for grid setup =    1.695 sec

--------------------
COSX GRID GENERATION
--------------------

GRIDX 1
-------
General Integration Accuracy     IntAcc      ... 3.816
Radial Grid Type                 RadialGrid  ... OptM3 with GC (2021)
Angular Grid (max. ang.)         AngularGrid ... 1 (Lebedev-50)
Angular grid pruning method      GridPruning ... 4 (adaptive)
Weight generation scheme         WeightScheme... Becke
Basis function cutoff            BFCut       ... 1.0000e-11
Integration weight cutoff        WCut        ... 1.0000e-14
Angular grids for H and He will be reduced by one unit
Partially contracted basis set               ... on
Rotationally invariant grid construction     ... off

Total number of grid points                  ...    23184
Total number of batches                      ...      382
Average number of points per batch           ...       60
Average number of grid points per atom       ...      594
UseSFitting                                  ... on

GRIDX 2
-------
General Integration Accuracy     IntAcc      ... 4.020
Radial Grid Type                 RadialGrid  ... OptM3 with GC (2021)
Angular Grid (max. ang.)         AngularGrid ... 2 (Lebedev-110)
Angular grid pruning method      GridPruning ... 4 (adaptive)
Weight generation scheme         WeightScheme... Becke
Basis function cutoff            BFCut       ... 1.0000e-11
Integration weight cutoff        WCut        ... 1.0000e-14
Angular grids for H and He will be reduced by one unit
Partially contracted basis set               ... on
Rotationally invariant grid construction     ... off

Total number of grid points                  ...    50335
Total number of batches                      ...      808
Average number of points per batch           ...       62
Average number of grid points per atom       ...     1291
UseSFitting                                  ... on

GRIDX 3
-------
General Integration Accuracy     IntAcc      ... 4.338
Radial Grid Type                 RadialGrid  ... OptM3 with GC (2021)
Angular Grid (max. ang.)         AngularGrid ... 3 (Lebedev-194)
Angular grid pruning method      GridPruning ... 4 (adaptive)
Weight generation scheme         WeightScheme... Becke
Basis function cutoff            BFCut       ... 1.0000e-11
Integration weight cutoff        WCut        ... 1.0000e-14
Angular grids for H and He will be reduced by one unit
Partially contracted basis set               ... on
Rotationally invariant grid construction     ... off

Total number of grid points                  ...   108863
Total number of batches                      ...     1722
Average number of points per batch           ...       63
Average number of grid points per atom       ...     2791
UseSFitting                                  ... on

Time for X-Grid setup             =    4.471 sec

--------------
SCF ITERATIONS
--------------
ITER       Energy         Delta-E        Max-DP      RMS-DP      [F,P]     Damp
               ***  Starting incremental Fock matrix formation  ***
  0   -873.9251235513   0.00000000000019.54063662  0.14974931  2.6599289 0.7000
  1  -1102.3410254010-228.415901849697 9.04818204  0.11275624  1.4872348 0.7000
  2  -1167.8535530755 -65.512527674465 5.33508203  0.06378893  1.0230304 0.7000
  3  -1193.1780391023 -25.324486026838 3.70350655  0.04478202  0.7267946 0.7000
  4  -1210.4108675478 -17.232828445437 2.61535561  0.03522114  0.4479105 0.7000
  5  -1225.8948176763 -15.483950128501 2.16738964  0.03045745  0.3369413 0.7000
  6  -1235.6046779869  -9.709860310638 1.82134561  0.02958789  0.3292413 0.7000
  7  -1242.4151327794  -6.810454792477 1.61107260  0.02644853  0.3298775 0.7000
  8  -1246.4334100817  -4.018277302360 1.62775737  0.02591789  0.3924771 0.7000
  9  -1250.6116583538  -4.178248272098 1.48226100  0.02438394  0.3455372 0.7000
 10  -1254.0126790849  -3.401020731057 1.57647844  0.02620317  0.3704917 0.7000
 11  -1255.4168446503  -1.404165565421 1.51156629  0.02302316  0.3279117 0.7000
                               ***Turning on DIIS***
 12  -1259.0847070419  -3.667862391572 1.50061009  0.02392522  0.3400357 0.7000
 13  -1259.3605955385  -0.275888496631 1.39609812  0.01942003  0.2957851 0.7000
 14  -1268.5033709710  -9.142775432446 0.97208768  0.01374798  0.2092698 0.7000
 15  -1274.8294969383  -6.326125967294 0.67642265  0.00971883  0.1524492 0.7000
 16  -1279.1051752744  -4.275678336136 1.56676237  0.02284398  0.0919084 0.0000
 17  -1288.3267918428  -9.221616568386 0.05823615  0.00095459  0.0585703 0.0000
 18  -1288.3993494110  -0.072557568191 0.05632063  0.00087210  0.0343256 0.0000
 19  -1288.4217669960  -0.022417585001 0.03506547  0.00050772  0.0301139 0.0000
               *** Restarting incremental Fock matrix formation ***
                                   *** Resetting DIIS ***
 20  -1288.4333594745  -0.011592478565 0.00979975  0.00032368  0.0060859 0.0000
 21  -1288.4348418069  -0.001482332379 0.00500497  0.00010144  0.0068961 0.0000
 22  -1288.4354731588  -0.000631351842 0.00444876  0.00007120  0.0016485 0.0000
 23  -1288.4355784556  -0.000105296874 0.00316618  0.00003681  0.0015257 0.0000
 24  -1288.4356254839  -0.000047028245 0.00299417  0.00003847  0.0006974 0.0000
               *** Restarting incremental Fock matrix formation ***
                                   *** Resetting DIIS ***
 25  -1288.4367095390  -0.001084055077 0.00486540  0.00008455  0.0007420 0.0000
 26  -1288.4367253415  -0.000015802585 0.00210904  0.00002042  0.0009679 0.0000
 27  -1288.4367246203   0.000000721236 0.00070839  0.00000782  0.0010562 0.0000
 28  -1288.4367299202  -0.000005299925 0.00037965  0.00000459  0.0003117 0.0000
 29  -1288.4367306367  -0.000000716415 0.00010541  0.00000154  0.0000772 0.0000
 30  -1288.4367306705  -0.000000033803 0.00009145  0.00000088  0.0000606 0.0000
 31  -1288.4367306857  -0.000000015233 0.00005574  0.00000058  0.0000119 0.0000
 32  -1288.4367306777   0.000000008029 0.00001916  0.00000025  0.0000072 0.0000
 33  -1288.4367306726   0.000000005037 0.00001240  0.00000012  0.0000023 0.0000
 34  -1288.4367306704   0.000000002177 0.00000715  0.00000006  0.0000028 0.0000
                            ***DIIS convergence achieved***

               *****************************************************
               *                     SUCCESS                       *
               *           SCF CONVERGED AFTER  35 CYCLES          *
               *****************************************************

Old exchange energy                            =    -59.655417399 Eh
New exchange energy                            =    -59.655400213 Eh
Exchange energy change after final integration =      0.000017186 Eh
Total energy after final integration           =  -1288.436713481 Eh
Final COS-X integration done in                =    54.828 sec

----------------
TOTAL SCF ENERGY
----------------

Total Energy       :        -1288.43671348 Eh          -35060.14540 eV

Components:
Nuclear Repulsion  :         2030.66282034 Eh           55257.14456 eV
Electronic Energy  :        -3319.09953382 Eh          -90317.28996 eV
One Electron Energy:        -5816.87244021 Eh         -158285.14616 eV
Two Electron Energy:         2497.77290639 Eh           67967.85620 eV
Max COSX asymmetry :            0.00001574 Eh               0.00043 eV

Virial components:
Potential Energy   :        -2501.54818401 Eh          -68070.58673 eV
Kinetic Energy     :         1213.11147053 Eh           33010.44133 eV
Virial Ratio       :            2.06209260


DFT components:
N(Alpha)           :       82.000221869400 electrons
N(Beta)            :       82.000221869400 electrons
N(Total)           :      164.000443738800 electrons
E(X)               :      -79.588722844855 Eh       
E(C)               :       -7.452473853883 Eh       
E(XC)              :      -87.041196698738 Eh       
DFET-embed. en.    :        0.000000000000 Eh       

---------------
SCF CONVERGENCE
---------------

  Last Energy change         ...    3.8035e-09  Tolerance :   1.0000e-08
  Last MAX-Density change    ...    0.0000e+00  Tolerance :   1.0000e-07
  Last RMS-Density change    ...    0.0000e+00  Tolerance :   5.0000e-09
  Last DIIS Error            ...    5.4571e-07  Tolerance :   5.0000e-07

             **** THE GBW FILE WAS UPDATED (reaction4-IEIP_ts_guess_scan_0-12_orca.gbw) ****
             **** DENSITY reaction4-IEIP_ts_guess_scan_0-12_orca.scfp WAS UPDATED ****
             **** ENERGY FILE WAS UPDATED (reaction4-IEIP_ts_guess_scan_0-12_orca.en.tmp) ****
             **** THE GBW FILE WAS UPDATED (reaction4-IEIP_ts_guess_scan_0-12_orca.gbw) ****
             **** DENSITY reaction4-IEIP_ts_guess_scan_0-12_orca.scfp WAS UPDATED ****
----------------
ORBITAL ENERGIES
----------------

  NO   OCC          E(Eh)            E(eV) 
   0   2.0000     -89.754316     -2442.3391 
   1   2.0000     -19.629255      -534.1392 
   2   2.0000     -19.595098      -533.2097 
   3   2.0000     -14.838412      -403.7737 
   4   2.0000     -10.687906      -290.8327 
   5   2.0000     -10.659601      -290.0625 
   6   2.0000     -10.638743      -289.4949 
   7   2.0000     -10.636905      -289.4449 
   8   2.0000     -10.635289      -289.4009 
   9   2.0000     -10.634138      -289.3696 
  10   2.0000     -10.633003      -289.3387 
  11   2.0000     -10.623540      -289.0812 
  12   2.0000     -10.616079      -288.8782 
  13   2.0000     -10.604601      -288.5659 
  14   2.0000     -10.576612      -287.8043 
  15   2.0000     -10.573434      -287.7178 
  16   2.0000     -10.557046      -287.2718 
  17   2.0000     -10.551868      -287.1309 
  18   2.0000     -10.536272      -286.7065 
  19   2.0000      -8.393679      -228.4036 
  20   2.0000      -6.283761      -170.9898 
  21   2.0000      -6.280157      -170.8918 
  22   2.0000      -6.278379      -170.8434 
  23   2.0000      -4.031803      -109.7109 
  24   2.0000      -2.351440       -63.9859 
  25   2.0000      -2.316870       -63.0453 
  26   2.0000      -2.314812       -62.9892 
  27   2.0000      -1.312983       -35.7281 
  28   2.0000      -1.217290       -33.1241 
  29   2.0000      -1.209789       -32.9200 
  30   2.0000      -1.175915       -31.9983 
  31   2.0000      -1.118766       -30.4432 
  32   2.0000      -1.024567       -27.8799 
  33   2.0000      -0.990770       -26.9602 
  34   2.0000      -0.980741       -26.6873 
  35   2.0000      -0.959783       -26.1170 
  36   2.0000      -0.952963       -25.9314 
  37   2.0000      -0.931455       -25.3462 
  38   2.0000      -0.903129       -24.5754 
  39   2.0000      -0.870251       -23.6807 
  40   2.0000      -0.795311       -21.6415 
  41   2.0000      -0.791423       -21.5357 
  42   2.0000      -0.789723       -21.4895 
  43   2.0000      -0.778377       -21.1807 
  44   2.0000      -0.772559       -21.0224 
  45   2.0000      -0.762062       -20.7368 
  46   2.0000      -0.743070       -20.2200 
  47   2.0000      -0.722963       -19.6728 
  48   2.0000      -0.694023       -18.8853 
  49   2.0000      -0.674625       -18.3575 
  50   2.0000      -0.664092       -18.0708 
  51   2.0000      -0.653255       -17.7760 
  52   2.0000      -0.650154       -17.6916 
  53   2.0000      -0.641910       -17.4673 
  54   2.0000      -0.639972       -17.4145 
  55   2.0000      -0.633897       -17.2492 
  56   2.0000      -0.623774       -16.9737 
  57   2.0000      -0.611657       -16.6440 
  58   2.0000      -0.610929       -16.6242 
  59   2.0000      -0.607159       -16.5216 
  60   2.0000      -0.594425       -16.1751 
  61   2.0000      -0.585058       -15.9202 
  62   2.0000      -0.573157       -15.5964 
  63   2.0000      -0.567129       -15.4324 
  64   2.0000      -0.561260       -15.2727 
  65   2.0000      -0.555966       -15.1286 
  66   2.0000      -0.552862       -15.0442 
  67   2.0000      -0.548503       -14.9255 
  68   2.0000      -0.539970       -14.6933 
  69   2.0000      -0.533718       -14.5232 
  70   2.0000      -0.527019       -14.3409 
  71   2.0000      -0.521301       -14.1853 
  72   2.0000      -0.516477       -14.0540 
  73   2.0000      -0.509057       -13.8522 
  74   2.0000      -0.493398       -13.4260 
  75   2.0000      -0.480347       -13.0709 
  76   2.0000      -0.461542       -12.5592 
  77   2.0000      -0.453097       -12.3294 
  78   2.0000      -0.442405       -12.0385 
  79   2.0000      -0.419783       -11.4229 
  80   2.0000      -0.416032       -11.3208 
  81   2.0000      -0.402094       -10.9415 
  82   0.0000      -0.200411        -5.4535 
  83   0.0000      -0.165919        -4.5149 
  84   0.0000      -0.141338        -3.8460 
  85   0.0000      -0.095794        -2.6067 
  86   0.0000      -0.075757        -2.0614 
  87   0.0000      -0.068978        -1.8770 
  88   0.0000      -0.058880        -1.6022 
  89   0.0000      -0.054094        -1.4720 
  90   0.0000      -0.042914        -1.1678 
  91   0.0000      -0.036112        -0.9826 
  92   0.0000      -0.005567        -0.1515 
  93   0.0000      -0.003118        -0.0848 
  94   0.0000       0.009754         0.2654 
  95   0.0000       0.020934         0.5697 
  96   0.0000       0.030580         0.8321 
  97   0.0000       0.037717         1.0263 
  98   0.0000       0.043738         1.1902 
  99   0.0000       0.055115         1.4997 
 100   0.0000       0.068634         1.8676 
 101   0.0000       0.071022         1.9326 
 102   0.0000       0.074654         2.0314 
 103   0.0000       0.077089         2.0977 
 104   0.0000       0.081851         2.2273 
 105   0.0000       0.087897         2.3918 
 106   0.0000       0.093606         2.5472 
 107   0.0000       0.100112         2.7242 
 108   0.0000       0.107650         2.9293 
 109   0.0000       0.112871         3.0714 
 110   0.0000       0.115377         3.1396 
 111   0.0000       0.119422         3.2496 
 112   0.0000       0.123488         3.3603 
 113   0.0000       0.125903         3.4260 
 114   0.0000       0.130444         3.5495 
 115   0.0000       0.136190         3.7059 
 116   0.0000       0.141027         3.8375 
 117   0.0000       0.152373         4.1463 
 118   0.0000       0.156499         4.2585 
 119   0.0000       0.158597         4.3156 
 120   0.0000       0.167307         4.5526 
 121   0.0000       0.178317         4.8522 
 122   0.0000       0.188283         5.1234 
 123   0.0000       0.202830         5.5193 
 124   0.0000       0.225232         6.1289 
 125   0.0000       0.232232         6.3194 
 126   0.0000       0.260490         7.0883 
 127   0.0000       0.271983         7.4010 
 128   0.0000       0.279277         7.5995 
 129   0.0000       0.294696         8.0191 
 130   0.0000       0.300826         8.1859 
 131   0.0000       0.311160         8.4671 
 132   0.0000       0.322208         8.7677 
 133   0.0000       0.339996         9.2518 
 134   0.0000       0.344350         9.3702 
 135   0.0000       0.357843         9.7374 
 136   0.0000       0.362783         9.8718 
 137   0.0000       0.374409        10.1882 
 138   0.0000       0.384114        10.4523 
 139   0.0000       0.397424        10.8144 
 140   0.0000       0.401346        10.9212 
 141   0.0000       0.418351        11.3839 
 142   0.0000       0.422262        11.4903 
 143   0.0000       0.437636        11.9087 
 144   0.0000       0.443649        12.0723 
 145   0.0000       0.448759        12.2113 
 146   0.0000       0.455573        12.3968 
 147   0.0000       0.459553        12.5051 
 148   0.0000       0.466498        12.6941 
 149   0.0000       0.478285        13.0148 
 150   0.0000       0.484319        13.1790 
 151   0.0000       0.488511        13.2931 
 152   0.0000       0.493697        13.4342 
 153   0.0000       0.500460        13.6182 
 154   0.0000       0.511031        13.9059 
 155   0.0000       0.516129        14.0446 
 156   0.0000       0.527258        14.3474 
 157   0.0000       0.535335        14.5672 
 158   0.0000       0.543904        14.8004 
[...]

----------------------
LOEWDIN ATOMIC CHARGES
----------------------
   0 Ir:   -0.204471
   1 C :   -0.040506
   2 C :   -0.055075
   3 C :   -0.045939
   4 C :   -0.050342
   5 C :   -0.027654
   6 N :   -0.016442
   7 C :   -0.068275
   8 C :   -0.364460
   9 H :    0.156935
  10 H :    0.133924
  11 H :    0.146517
  12 C :   -0.343844
  13 H :    0.155013
  14 H :    0.152868
  15 H :    0.137386
  16 H :    0.133239
  17 C :    0.037383
  18 C :   -0.202978
  19 H :    0.161308
  20 C :   -0.195913
  21 C :   -0.151586
  22 S :    0.451313
  23 C :   -0.260976
  24 H :    0.299182
  25 H :    0.159424
  26 H :    0.166384
  27 H :    0.186398
  28 H :    0.186731
  29 H :    0.193727
  30 O :   -0.276700
  31 O :   -0.201813
  32 C :    0.163290
  33 C :   -0.374972
  34 H :    0.161061
  35 H :    0.168709
  36 H :    0.154054
  37 H :    0.188919
  38 H :    0.188178

-------------------------------
LOEWDIN REDUCED ORBITAL CHARGES
-------------------------------
  0 Irs       :     2.457793  s :     2.457793
      pz      :     2.235003  p :     6.736823
      px      :     2.233277
      py      :     2.268542
      dz2     :     1.851261  d :     7.920762
      dxz     :     1.740709
      dyz     :     1.258248
      dx2y2   :     1.649804
      dxy     :     1.420740
      f0      :     0.011510  f :     0.089094
      f+1     :     0.003103
      f-1     :     0.012429
      f+2     :     0.017502
      f-2     :     0.016307
      f+3     :     0.011397
      f-3     :     0.016847
  1 C s       :     2.875259  s :     2.875259
      pz      :     1.047890  p :     3.060903
      px      :     1.088111
      py      :     0.924902
      dz2     :     0.026546  d :     0.104343
      dxz     :     0.027126
      dyz     :     0.017301
      dx2y2   :     0.018483
      dxy     :     0.014888
  2 C s       :     2.874739  s :     2.874739
      pz      :     1.045702  p :     3.076972
      px      :     1.075672
      py      :     0.955598
      dz2     :     0.025830  d :     0.103364
      dxz     :     0.027915
      dyz     :     0.017803
      dx2y2   :     0.018491
      dxy     :     0.013325
  3 C s       :     2.876059  s :     2.876059
      pz      :     1.036041  p :     3.067631
      px      :     1.077198
      py      :     0.954392
      dz2     :     0.024237  d :     0.102250
      dxz     :     0.032425
      dyz     :     0.016291
      dx2y2   :     0.014991
      dxy     :     0.014307
  4 C s       :     2.874649  s :     2.874649
      pz      :     1.093815  p :     3.073227
      px      :     1.035218
      py      :     0.944194
      dz2     :     0.022802  d :     0.102466
      dxz     :     0.031900
      dyz     :     0.012845
      dx2y2   :     0.017639
      dxy     :     0.017280
  5 C s       :     2.877302  s :     2.877302
      pz      :     1.066639  p :     3.046469
      px      :     1.032466
      py      :     0.947364
      dz2     :     0.025340  d :     0.103883
      dxz     :     0.030320
      dyz     :     0.015420
      dx2y2   :     0.015501
      dxy     :     0.017302
  6 N s       :     3.121953  s :     3.121953
      pz      :     1.272209  p :     3.796875
      px      :     1.289718
      py      :     1.234948
      dz2     :     0.029794  d :     0.097614
      dxz     :     0.027636
      dyz     :     0.018604
      dx2y2   :     0.011515
      dxy     :     0.010065
  7 C s       :     2.862324  s :     2.862324
      pz      :     1.063898  p :     3.071643
      px      :     0.933861
      py      :     1.073885
      dz2     :     0.023793  d :     0.134308
      dxz     :     0.027805
      dyz     :     0.020284
      dx2y2   :     0.029443
      dxy     :     0.032982
  8 C s       :     2.953282  s :     2.953282
      pz      :     1.128755  p :     3.343721
      px      :     1.124419
      py      :     1.090546
      dz2     :     0.011639  d :     0.067457
      dxz     :     0.017704
      dyz     :     0.011189
      dx2y2   :     0.008663
      dxy     :     0.018262
  9 H s       :     0.843065  s :     0.843065
 10 H s       :     0.866076  s :     0.866076
 11 H s       :     0.853483  s :     0.853483
 12 C s       :     2.952943  s :     2.952943
      pz      :     1.138841  p :     3.322962
      px      :     1.112147
      py      :     1.071973
      dz2     :     0.009779  d :     0.067939
      dxz     :     0.012866
      dyz     :     0.016729
      dx2y2   :     0.011173
      dxy     :     0.017391
 13 H s       :     0.844987  s :     0.844987
 14 H s       :     0.847132  s :     0.847132
 15 H s       :     0.862614  s :     0.862614
 16 H s       :     0.866761  s :     0.866761
 17 C s       :     2.878808  s :     2.878808
      pz      :     1.022799  p :     2.942615
      px      :     1.068198
      py      :     0.851619
      dz2     :     0.040611  d :     0.141194
      dxz     :     0.051942
      dyz     :     0.024443
      dx2y2   :     0.011595
      dxy     :     0.012603
 18 C s       :     2.896513  s :     2.896513
      pz      :     1.040970  p :     3.195026
      px      :     1.088324
      py      :     1.065732
      dz2     :     0.030745  d :     0.111440
      dxz     :     0.028823
      dyz     :     0.016475
      dx2y2   :     0.021875
      dxy     :     0.013522
 19 H s       :     0.838692  s :     0.838692
 20 C s       :     2.937802  s :     2.937802
      pz      :     1.104428  p :     3.170790
      px      :     1.043800
      py      :     1.022562
      dz2     :     0.010362  d :     0.087321
      dxz     :     0.032664
      dyz     :     0.008433
      dx2y2   :     0.016402
      dxy     :     0.019459
 21 C s       :     2.899670  s :     2.899670
      pz      :     1.066257  p :     3.157613
      px      :     1.091544
      py      :     0.999811
      dz2     :     0.024406  d :     0.094303
      dxz     :     0.027509
      dyz     :     0.014642
      dx2y2   :     0.017106
      dxy     :     0.010640
 22 S s       :     5.507052  s :     5.507052
      pz      :     3.285512  p :     9.889899
      px      :     3.087126
      py      :     3.517261
      dz2     :     0.040348  d :     0.151736
      dxz     :     0.029695
      dyz     :     0.023603
      dx2y2   :     0.033085
      dxy     :     0.025004
 23 C s       :     2.966193  s :     2.966193
      pz      :     1.116853  p :     3.208553
      px      :     1.022965
      py      :     1.068735
      dz2     :     0.020816  d :     0.086230
      dxz     :     0.026561
      dyz     :     0.012203
      dx2y2   :     0.014592
      dxy     :     0.012058
 24 H s       :     0.700818  s :     0.700818
 25 H s       :     0.840576  s :     0.840576
 26 H s       :     0.833616  s :     0.833616
 27 H s       :     0.813602  s :     0.813602
 28 H s       :     0.813269  s :     0.813269
 29 H s       :     0.806273  s :     0.806273
 30 O s       :     3.502362  s :     3.502362
      pz      :     1.452343  p :     4.719388
      px      :     1.539481
      py      :     1.727564
      dz2     :     0.017547  d :     0.054950
      dxz     :     0.012702
      dyz     :     0.017166
      dx2y2   :     0.004182
      dxy     :     0.003354
 31 O s       :     3.443330  s :     3.443330
      pz      :     1.698484  p :     4.699262
      px      :     1.619207
      py      :     1.381571
      dz2     :     0.009257  d :     0.059221
      dxz     :     0.003692
      dyz     :     0.016590
      dx2y2   :     0.015359
      dxy     :     0.014323
 32 C s       :     2.812613  s :     2.812613
      pz      :     0.998849  p :     2.701942
      px      :     0.751043
      py      :     0.952050
      dz2     :     0.075994  d :     0.322155
      dxz     :     0.046066
      dyz     :     0.108130
      dx2y2   :     0.044661
      dxy     :     0.047304
 33 C s       :     2.959303  s :     2.959303
      pz      :     1.097249  p :     3.352979
      px      :     1.150702
      py      :     1.105027
      dz2     :     0.005578  d :     0.062690
      dxz     :     0.016989
      dyz     :     0.019772
      dx2y2   :     0.018124
      dxy     :     0.002226
 34 H s       :     0.838939  s :     0.838939
 35 H s       :     0.831291  s :     0.831291
 36 H s       :     0.845946  s :     0.845946
 37 H s       :     0.811081  s :     0.811081
 38 H s       :     0.811822  s :     0.811822


                      *****************************
                      * MAYER POPULATION ANALYSIS *
                      *****************************

  NA   - Mulliken gross atomic population
  ZA   - Total nuclear charge
  QA   - Mulliken gross atomic charge
  VA   - Mayer's total valence
  BVA  - Mayer's bonded valence
  FA   - Mayer's free valence

  ATOM       NA         ZA         QA         VA         BVA        FA
  0 Ir    16.3769    17.0000     0.6231     3.7607     3.7607     0.0000
  1 C      6.2088     6.0000    -0.2088     3.6939     3.6939    -0.0000
  2 C      6.2970     6.0000    -0.2970     3.7424     3.7424    -0.0000
  3 C      6.2299     6.0000    -0.2299     3.7278     3.7278    -0.0000
  4 C      6.2424     6.0000    -0.2424     3.7219     3.7219     0.0000
  5 C      6.1687     6.0000    -0.1687     3.6890     3.6890     0.0000
  6 N      7.4371     7.0000    -0.4371     3.2149     3.2149     0.0000
  7 C      6.1189     6.0000    -0.1189     3.7015     3.7015     0.0000
  8 C      6.6926     6.0000    -0.6926     3.6878     3.6878    -0.0000
  9 H      0.7284     1.0000     0.2716     0.8966     0.8966     0.0000
 10 H      0.7735     1.0000     0.2265     0.9094     0.9094    -0.0000
 11 H      0.7401     1.0000     0.2599     0.8978     0.8978    -0.0000
 12 C      6.6381     6.0000    -0.6381     3.6736     3.6736     0.0000
 13 H      0.7211     1.0000     0.2789     0.8754     0.8754     0.0000
 14 H      0.7356     1.0000     0.2644     0.8966     0.8966     0.0000
 15 H      0.7688     1.0000     0.2312     0.9095     0.9095     0.0000
 16 H      0.7691     1.0000     0.2309     0.9058     0.9058     0.0000
 17 C      5.9322     6.0000     0.0678     3.6424     3.6424     0.0000
 18 C      6.2180     6.0000    -0.2180     3.7119     3.7119     0.0000
 19 H      0.7111     1.0000     0.2889     0.8868     0.8868    -0.0000
 20 C      6.3897     6.0000    -0.3897     3.4497     3.4497     0.0000
 21 C      6.1570     6.0000    -0.1570     3.7661     3.7661     0.0000
 22 S     15.7084    16.0000     0.2916     2.5526     2.5526    -0.0000
 23 C      6.4241     6.0000    -0.4241     3.7444     3.7444     0.0000
 24 H      0.4980     1.0000     0.5020     0.7254     0.7254    -0.0000
 25 H      0.7380     1.0000     0.2620     0.9042     0.9042    -0.0000
 26 H      0.7057     1.0000     0.2943     0.8986     0.8986     0.0000
 27 H      0.7064     1.0000     0.2936     0.9010     0.9010    -0.0000
 28 H      0.7054     1.0000     0.2946     0.9037     0.9037     0.0000
 29 H      0.6933     1.0000     0.3067     0.8918     0.8918    -0.0000
 30 O      8.4950     8.0000    -0.4950     2.0886     2.0886    -0.0000
 31 O      8.5378     8.0000    -0.5378     2.0812     2.0812     0.0000
 32 C      5.3776     6.0000     0.6224     3.9084     3.9084     0.0000
 33 C      6.7464     6.0000    -0.7464     3.6655     3.6655    -0.0000
 34 H      0.7290     1.0000     0.2710     0.8946     0.8946    -0.0000
 35 H      0.7314     1.0000     0.2686     0.8944     0.8944    -0.0000
 36 H      0.7446     1.0000     0.2554     0.9002     0.9002     0.0000
 37 H      0.7024     1.0000     0.2976     0.8987     0.8987    -0.0000
 38 H      0.7016     1.0000     0.2984     0.9008     0.9008     0.0000

  Mayer bond orders larger than 0.100000
B(  0-Ir,  1-C ) :   0.4250 B(  0-Ir,  2-C ) :   0.5614 B(  0-Ir,  3-C ) :   0.4613 
B(  0-Ir,  4-C ) :   0.4592 B(  0-Ir,  5-C ) :   0.4049 B(  0-Ir,  6-N ) :   0.4722 
B(  0-Ir, 20-C ) :   0.2182 B(  0-Ir, 31-O ) :   0.5744 B(  1-C ,  2-C ) :   1.1111 
B(  1-C ,  4-C ) :   1.2421 B(  1-C , 27-H ) :   0.9024 B(  2-C ,  5-C ) :   1.1263 
B(  2-C , 28-H ) :   0.9060 B(  3-C ,  4-C ) :   1.1042 B(  3-C ,  5-C ) :   1.2374 
B(  3-C , 37-H ) :   0.9023 B(  4-C , 38-H ) :   0.8982 B(  5-C , 29-H ) :   0.8978 
B(  6-N ,  7-C ) :   0.8911 B(  6-N , 17-C ) :   1.6816 B(  7-C ,  8-C ) :   0.9926 
B(  7-C , 12-C ) :   0.9693 B(  7-C , 13-H ) :   0.8744 B(  8-C ,  9-H ) :   0.9036 
B(  8-C , 10-H ) :   0.9124 B(  8-C , 11-H ) :   0.9086 B( 12-C , 14-H ) :   0.9064 
B( 12-C , 15-H ) :   0.9154 B( 12-C , 16-H ) :   0.9118 B( 17-C , 18-C ) :   1.0672 
B( 17-C , 19-H ) :   0.8742 B( 18-C , 20-C ) :   1.3123 B( 18-C , 22-S ) :   1.1995 
B( 20-C , 21-C ) :   1.2825 B( 20-C , 24-H ) :   0.4593 B( 21-C , 23-C ) :   1.5389 
B( 21-C , 25-H ) :   0.9056 B( 22-S , 23-C ) :   1.2092 B( 23-C , 26-H ) :   0.8932 
B( 24-H , 30-O ) :   0.2394 B( 30-O , 32-C ) :   1.6585 B( 31-O , 32-C ) :   1.2956 
B( 32-C , 33-C ) :   0.9490 B( 33-C , 34-H ) :   0.9038 B( 33-C , 35-H ) :   0.8969 
B( 33-C , 36-H ) :   0.9089 


------------------
HIRSHFELD ANALYSIS
------------------

Total integrated alpha density =     82.000132446
Total integrated beta density  =     82.000132446

  ATOM     CHARGE      SPIN    
   0 Ir   0.211014    0.000000
   1 C    0.007763    0.000000
   2 C    0.004276    0.000000
   3 C    0.006213    0.000000
   4 C   -0.000104    0.000000
   5 C    0.017692    0.000000
   6 N   -0.072864    0.000000
   7 C    0.053617    0.000000
   8 C   -0.071003    0.000000
   9 H    0.053634    0.000000
  10 H    0.038090    0.000000
  11 H    0.043597    0.000000
  12 C   -0.070809    0.000000
  13 H    0.046068    0.000000
  14 H    0.051387    0.000000
  15 H    0.036715    0.000000
  16 H    0.030119    0.000000
  17 C    0.100845    0.000000
  18 C   -0.017181    0.000000
  19 H    0.076407    0.000000
  20 C   -0.073648    0.000000
  21 C   -0.040620    0.000000
  22 S    0.108119    0.000000
  23 C   -0.027508    0.000000
  24 H    0.063938    0.000000
  25 H    0.066454    0.000000
  26 H    0.076336    0.000000
  27 H    0.084964    0.000000
  28 H    0.086422    0.000000
  29 H    0.095050    0.000000
  30 O   -0.243497    0.000000
  31 O   -0.255348    0.000000
  32 C    0.247655    0.000000
  33 C   -0.066769    0.000000
  34 H    0.055433    0.000000
  35 H    0.060607    0.000000
  36 H    0.049095    0.000000
  37 H    0.087694    0.000000
  38 H    0.079881    0.000000

  TOTAL   0.999735    0.000000

-------
TIMINGS
-------

Total SCF time: 0 days 0 hours 4 min 15 sec 

Total time                  ....     255.999 sec
Sum of individual times     ....     255.419 sec  ( 99.8%)

Fock matrix formation       ....     248.244 sec  ( 97.0%)
  Split-RI-J                ....      19.595 sec  (  7.9% of F)
  Chain of spheres X        ....     216.681 sec  ( 87.3% of F)
  XC integration            ....      11.951 sec  (  4.8% of F)
    Basis function eval.    ....       5.519 sec  ( 46.2% of XC)
    Density eval.           ....       3.130 sec  ( 26.2% of XC)
    XC-Functional eval.     ....       0.882 sec  (  7.4% of XC)
    XC-Potential eval.      ....       1.926 sec  ( 16.1% of XC)
Diagonalization             ....       0.204 sec  (  0.1%)
Density matrix formation    ....       0.032 sec  (  0.0%)
Population analysis         ....       1.192 sec  (  0.5%)
Initial guess               ....       0.023 sec  (  0.0%)
Orbital Transformation      ....       0.000 sec  (  0.0%)
Orbital Orthonormalization  ....       0.017 sec  (  0.0%)
DIIS solution               ....       0.081 sec  (  0.0%)
Grid generation             ....       5.643 sec  (  2.2%)

Maximum memory used throughout the entire SCF-calculation: 173.0 MB


-------------------------------------------------------------------------------
                          DFT DISPERSION CORRECTION                            
                                                                               
                              DFTD3 V3.1  Rev 1                                
                          USING Becke-Johnson damping                          
-------------------------------------------------------------------------------
The PBEh-3c composite method is recognized
Using three-body term ABC
Active option DFTDOPT                   ...         4   

molecular C6(AA) [au] = 19603.825346 


            DFT-D V3
 parameters
 s6 scaling factor         :     1.0000 
 a1 scaling factor         :     0.4860 
 s8 scaling factor         :     0.0000 
 a2 scaling factor         :     4.5000 
 Damping factor alpha9(ATM):    16.0000 
 ad hoc parameters k1-k3   :    16.0000     1.3333    -4.0000 

 Edisp/kcal,au: -19.236698011626  -0.030655626337 
 E6   /kcal   : -19.581689044 
 E8   /kcal   :  -0.000000000 
 E6(ABC)      :   0.344991032 
 % E8         :   0.000000000 
 % E6(ABC)    :  -1.793400470 

-------------------------   ----------------
Dispersion correction           -0.030655626
-------------------------   ----------------

 ** NOTE ** -> element ir will be treated as co
NOTIFICATION: Different basis set in ORCA and otool_gcp:
ORCA: 358  gCP: 357 
If you are NOT using ECPs, check your basis set inputs!
------------------   -----------------
gCP correction             0.076572718
------------------   -----------------

-------------------------   --------------------
FINAL SINGLE POINT ENERGY     -1288.391007426123
-------------------------   --------------------

                                *** OPTIMIZATION RUN DONE ***

                            ***************************************
                            *     ORCA property calculations      *
                            ***************************************

                                    ---------------------
                                    Active property flags
                                    ---------------------
   (+) Dipole Moment


------------------------------------------------------------------------------
                       ORCA ELECTRIC PROPERTIES CALCULATION
------------------------------------------------------------------------------

Dipole Moment Calculation                       ... on
Quadrupole Moment Calculation                   ... off
Polarizability Calculation                      ... off
GBWName                                         ... reaction4-IEIP_ts_guess_scan_0-12_orca.gbw
Electron density                                ... reaction4-IEIP_ts_guess_scan_0-12_orca.scfp
The origin for moment calculation is the CENTER OF MASS  = ( 0.828677, -0.645479 -0.077388)

-------------
DIPOLE MOMENT
-------------
                                X             Y             Z
Electronic contribution:     32.40479     -70.17522      80.44284
Nuclear contribution   :    -33.03213      69.02302     -80.47305
                        -----------------------------------------
Total Dipole Moment    :     -0.62734      -1.15220      -0.03020
                        -----------------------------------------
Magnitude (a.u.)       :      1.31226
Magnitude (Debye)      :      3.33549



--------------------
Rotational spectrum 
--------------------
 
Rotational constants in cm-1:     0.010585     0.008875     0.008137 
Rotational constants in MHz :   317.316757   266.067322   243.936457 

 Dipole components along the rotational axes: 
x,y,z [a.u.] :     0.083248    -0.548332     1.189295 
x,y,z [Debye]:     0.211599    -1.393749     3.022947 

 

Timings for individual modules:

Sum of individual times         ...     4090.001 sec (=  68.167 min)
GTO integral calculation        ...       15.467 sec (=   0.258 min)   0.4 %
SCF iterations                  ...     3232.915 sec (=  53.882 min)  79.0 %
SCF Gradient evaluation         ...      839.308 sec (=  13.988 min)  20.5 %
Geometry relaxation             ...        2.311 sec (=   0.039 min)   0.1 %
                             ****ORCA TERMINATED NORMALLY****
TOTAL RUN TIME: 0 days 1 hours 8 minutes 13 seconds 202 msec
