
                                 *****************
                                 * O   R   C   A *
                                 *****************

                                            #,                                       
                                            ###                                      
                                            ####                                     
                                            #####                                    
                                            ######                                   
                                           ########,                                 
                                     ,,################,,,,,                         
                               ,,#################################,,                 
                          ,,##########################################,,             
                       ,#########################################, ''#####,          
                    ,#############################################,,   '####,        
                  ,##################################################,,,,####,       
                ,###########''''           ''''###############################       
              ,#####''   ,,,,##########,,,,          '''####'''          '####       
            ,##' ,,,,###########################,,,                        '##       
           ' ,,###''''                  '''############,,,                           
         ,,##''                                '''############,,,,        ,,,,,,###''
      ,#''                                            '''#######################'''  
     '                                                          ''''####''''         
             ,#######,   #######,   ,#######,      ##                                
            ,#'     '#,  ##    ##  ,#'     '#,    #''#        ######   ,####,        
            ##       ##  ##   ,#'  ##            #'  '#       #        #'  '#        
            ##       ##  #######   ##           ,######,      #####,   #    #        
            '#,     ,#'  ##    ##  '#,     ,#' ,#      #,         ##   #,  ,#        
             '#######'   ##     ##  '#######'  #'      '#     #####' # '####'        



                  #######################################################
                  #                        -***-                        #
                  #          Department of theory and spectroscopy      #
                  #    Directorship and core code : Frank Neese         #
                  #        Max Planck Institute fuer Kohlenforschung    #
                  #                Kaiser Wilhelm Platz 1               #
                  #                 D-45470 Muelheim/Ruhr               #
                  #                      Germany                        #
                  #                                                     #
                  #                  All rights reserved                #
                  #                        -***-                        #
                  #######################################################


                         Program Version 5.0.3 -  RELEASE  -


 With contributions from (in alphabetic order):
   Daniel Aravena         : Magnetic Suceptibility
   Michael Atanasov       : Ab Initio Ligand Field Theory (pilot matlab implementation)
   Alexander A. Auer      : GIAO ZORA, VPT2 properties, NMR spectrum
   Ute Becker             : Parallelization
   Giovanni Bistoni       : ED, misc. LED, open-shell LED, HFLD
   Martin Brehm           : Molecular dynamics
   Dmytro Bykov           : SCF Hessian
   Vijay G. Chilkuri      : MRCI spin determinant printing, contributions to CSF-ICE
   Dipayan Datta          : RHF DLPNO-CCSD density
   Achintya Kumar Dutta   : EOM-CC, STEOM-CC
   Dmitry Ganyushin       : Spin-Orbit,Spin-Spin,Magnetic field MRCI
   Miquel Garcia          : C-PCM and meta-GGA Hessian, CC/C-PCM, Gaussian charge scheme
   Yang Guo               : DLPNO-NEVPT2, F12-NEVPT2, CIM, IAO-localization
   Andreas Hansen         : Spin unrestricted coupled pair/coupled cluster methods
   Benjamin Helmich-Paris : MC-RPA, TRAH-SCF, COSX integrals
   Lee Huntington         : MR-EOM, pCC
   Robert Izsak           : Overlap fitted RIJCOSX, COSX-SCS-MP3, EOM
   Marcus Kettner         : VPT2
   Christian Kollmar      : KDIIS, OOCD, Brueckner-CCSD(T), CCSD density, CASPT2, CASPT2-K
   Simone Kossmann        : Meta GGA functionals, TD-DFT gradient, OOMP2, MP2 Hessian
   Martin Krupicka        : Initial AUTO-CI
   Lucas Lang             : DCDCAS
   Marvin Lechner         : AUTO-CI (C++ implementation), FIC-MRCC
   Dagmar Lenk            : GEPOL surface, SMD
   Dimitrios Liakos       : Extrapolation schemes; Compound Job, initial MDCI parallelization
   Dimitrios Manganas     : Further ROCIS development; embedding schemes
   Dimitrios Pantazis     : SARC Basis sets
   Anastasios Papadopoulos: AUTO-CI, single reference methods and gradients
   Taras Petrenko         : DFT Hessian,TD-DFT gradient, ASA, ECA, R-Raman, ABS, FL, XAS/XES, NRVS
   Peter Pinski           : DLPNO-MP2, DLPNO-MP2 Gradient
   Christoph Reimann      : Effective Core Potentials
   Marius Retegan         : Local ZFS, SOC
   Christoph Riplinger    : Optimizer, TS searches, QM/MM, DLPNO-CCSD(T), (RO)-DLPNO pert. Triples
   Tobias Risthaus        : Range-separated hybrids, TD-DFT gradient, RPA, STAB
   Michael Roemelt        : Original ROCIS implementation
   Masaaki Saitow         : Open-shell DLPNO-CCSD energy and density
   Barbara Sandhoefer     : DKH picture change effects
   Avijit Sen             : IP-ROCIS
   Kantharuban Sivalingam : CASSCF convergence, NEVPT2, FIC-MRCI
   Bernardo de Souza      : ESD, SOC TD-DFT
   Georgi Stoychev        : AutoAux, RI-MP2 NMR, DLPNO-MP2 response
   Willem Van den Heuvel  : Paramagnetic NMR
   Boris Wezisla          : Elementary symmetry handling
   Frank Wennmohs         : Technical directorship


 We gratefully acknowledge several colleagues who have allowed us to
 interface, adapt or use parts of their codes:
   Stefan Grimme, W. Hujo, H. Kruse, P. Pracht,  : VdW corrections, initial TS optimization,
                  C. Bannwarth, S. Ehlert          DFT functionals, gCP, sTDA/sTD-DF
   Ed Valeev, F. Pavosevic, A. Kumar             : LibInt (2-el integral package), F12 methods
   Garnet Chan, S. Sharma, J. Yang, R. Olivares  : DMRG
   Ulf Ekstrom                                   : XCFun DFT Library
   Mihaly Kallay                                 : mrcc  (arbitrary order and MRCC methods)
   Jiri Pittner, Ondrej Demel                    : Mk-CCSD
   Frank Weinhold                                : gennbo (NPA and NBO analysis)
   Christopher J. Cramer and Donald G. Truhlar   : smd solvation model
   Lars Goerigk                                  : TD-DFT with DH, B97 family of functionals
   V. Asgeirsson, H. Jonsson                     : NEB implementation
   FAccTs GmbH                                   : IRC, NEB, NEB-TS, DLPNO-Multilevel, CI-OPT
                                                   MM, QMMM, 2- and 3-layer-ONIOM, Crystal-QMMM,
                                                   LR-CPCM, SF, NACMEs, symmetry and pop. for TD-DFT,
                                                   nearIR, NL-DFT gradient (VV10), updates on ESD,
                                                   ML-optimized integration grids
   S Lehtola, MJT Oliveira, MAL Marques          : LibXC Library
   Liviu Ungur et al                             : ANISO software


 Your calculation uses the libint2 library for the computation of 2-el integrals
 For citations please refer to: http://libint.valeyev.net

 Your ORCA version has been built with support for libXC version: 5.1.0
 For citations please refer to: https://tddft.org/programs/libxc/

 This ORCA versions uses:
   CBLAS   interface :  Fast vector & matrix operations
   LAPACKE interface :  Fast linear algebra routines
   SCALAPACK package :  Parallel linear algebra routines
   Shared memory     :  Shared parallel matrices
   BLAS/LAPACK       :  OpenBLAS 0.3.15  USE64BITINT DYNAMIC_ARCH NO_AFFINITY SkylakeX SINGLE_THREADED
        Core in use  :  SkylakeX
   Copyright (c) 2011-2014, The OpenBLAS Project


Your calculation utilizes the geometrical counterpoise correction gCP
Please cite in your paper:
H.Kruse, S. Grimme J.Chem.Phys., 136, (2012), 154101 
   

Your calculation utilizes the atom-pairwise dispersion correction
with the Becke-Johnson damping scheme (D3BJ)
Cite in your paper:
S.Grimme, S.Ehrlich, L.Goerigk, J Comput Chem, (2011), 32, 1456–1465 
S.Grimme, J.Antony, S.Ehrlich and H.Krieg, J.Chem.Phys., 132, (2010), 154104 
   

Your calculation employs the composite approach PBEh-3c.
Please cite in your paper:
S. Grimme, J. G. Brandenburg, C. Bannwarth, A. Hansen J.Chem.Phys., 143, (2015), 054107 
   

================================================================================

cite the ECPs for Ir [Def2-ECP] as follows:
Ce-Yb(ecp-28): M. Dolg, H. Stoll, H.Preuss, J. Chem. Phys., 1989, 90, 1730-1734.
Y-Cd(ecp-28), Hf-Hg(ecp-46): D. Andrae,U. Haeussermann, M. Dolg, H. Stoll, H. Preuss, Theor. Chim. Acta, 1990, 77, 123-141.
In-Sb(ecp-28), Tl-Bi(ecp-46): B. Metz, H. Stoll, M. Dolg, J. Chem. Phys., 2000, 113, 2563-2569.
Te-Xe(ecp-28), Po-Rn(ecp-46): K. A. Peterson, D. Figgen, E. Goll, H. Stoll, M. Dolg, J. Chem. Phys., 2003, 119, 11113-11123.
Rb(ecp-28), Cs(ecp-46): T. Leininger, A. Nicklass, W. Kuechle, H. Stoll, M. Dolg, A. Bergner, Chem. Phys. Lett., 1996, 255, 274-280.
Sr(ecp-28), Ba(ecp-46): M. Kaupp, P. V. Schleyer, H. Stoll and H. Preuss, J. Chem. Phys., 1991, 94, 1360-1366.
La(ecp-46): M. Dolg, H. Stoll, A. Savin, H. Preuss, Theor. Chim. Acta, 1989, 75, 173-194.
Lu(ecp-28): X. Cao, M. Dolg, J. Chem. Phys., 2001, 115, 7348-7355.

ECP parameters for Ir [Def2-ECP] have been obtained from:
TURBOMOLE (7.0.2)

----- Orbital basis set information -----
Your calculation utilizes the basis: def2-mSVP

----- AuxJ basis set information -----
Your calculation utilizes the auxiliary basis: def2/J
   F. Weigend, Phys. Chem. Chem. Phys. 8, 1057 (2006).

================================================================================
                                        WARNINGS
                       Please study these warnings very carefully!
================================================================================


WARNING: Geometry Optimization
  ===> : Switching off AutoStart
         For restart on a previous wavefunction, please use MOREAD

WARNING: No Hueckel Guess possible with ECP basis!
  ===> : Switching to HCORE guess!

INFO   : the flag for use of the SHARK integral package has been found!

================================================================================
                                       INPUT FILE
================================================================================
NAME = reaction4-IEIP_ts_guess_scan_0-9_orca.inp
|  1> ! Opt PBEh-3c
|  2> %geom Constraints
|  3> { B 0 20 2.6 C }
|  4> { B 24 30 1.3714285714285714 C }
|  5>     end
|  6> end
|  7> %output 
|  8> xyzfile=True 
|  9> end 
| 10> %scf 
| 11> maxiter 250 
| 12> end
| 13> %output
| 14> Print[P_Hirshfeld] = 1
| 15> end
| 16> % maxcore
| 17> 4000
| 18> *xyz 1 1
| 19> Ir   0.56655279  -0.73876613   0.49836926 
| 20> C    0.01104614  -2.81489015   0.35786699 
| 21> C    0.09433570  -2.37763294   1.73114631 
| 22> C    2.17889067  -2.15394147   0.78299528 
| 23> C    1.27531498  -2.64668112  -0.23291420 
| 24> C    1.46420458  -2.02874576   1.98596897 
| 25> N   -1.04067287   0.16433328  -0.50713097 
| 26> C   -2.31902947   0.49878051   0.14147738 
| 27> C   -3.13162975   1.53823558  -0.61356742 
| 28> H   -3.96790011   1.85091450   0.01014963 
| 29> H   -3.56210069   1.15214755  -1.53895374 
| 30> H   -2.54734059   2.43023180  -0.84178550 
| 31> C   -3.12131782  -0.77414736   0.38133091 
| 32> H   -2.03643556   0.91924641   1.10825159 
| 33> H   -4.04198583  -0.53110999   0.90959572 
| 34> H   -3.39461427  -1.25367144  -0.55958497 
| 35> H   -2.57913183  -1.49275727   0.99439806 
| 36> C   -0.82467908   0.36737165  -1.74933712 
| 37> C    0.52794048   0.15646897  -2.21890567 
| 38> H   -1.60372894   0.71977690  -2.41971596 
| 39> C    1.63798236   0.55543621  -1.48583813 
| 40> C    2.83512122   0.15231254  -2.14298035 
| 41> S    0.93878139  -0.62851791  -3.68349714 
| 42> C    2.61091113  -0.48526103  -3.32348947 
| 43> H    1.54501388   1.41965413  -0.65853949 
| 44> H    3.82604587   0.37657751  -1.77552028 
| 45> H    3.34203133  -0.86308992  -4.02225304 
| 46> H   -0.87995986  -3.16859508  -0.14068593 
| 47> H   -0.69519284  -2.41703443   2.46742680 
| 48> H    1.85321643  -1.65014956   2.92024049 
| 49> O    1.32075236   2.42756123   0.26560018 
| 50> O    0.53892615   0.90097659   1.69314830 
| 51> C    0.91838302   2.09441363   1.37915982 
| 52> C    0.86950711   3.08365983   2.50867442 
| 53> H    0.82486799   4.10017058   2.12738227 
| 54> H    1.78034724   2.99000491   3.10336605 
| 55> H    0.02923415   2.89652211   3.17390592 
| 56> H    3.22291185  -1.91890754   0.63706024 
| 57> H    1.53277069  -2.85170730  -1.26207511 
| 58> *
| 59> 
| 60>                          ****END OF INPUT****
================================================================================

                       *****************************
                       * Geometry Optimization Run *
                       *****************************

Geometry optimization settings:
Update method            Update   .... BFGS
Choice of coordinates    CoordSys .... Z-matrix Internals
Initial Hessian          InHess   .... Almoef's Model

Convergence Tolerances:
Energy Change            TolE     ....  5.0000e-06 Eh
Max. Gradient            TolMAXG  ....  3.0000e-04 Eh/bohr
RMS Gradient             TolRMSG  ....  1.0000e-04 Eh/bohr
Max. Displacement        TolMAXD  ....  4.0000e-03 bohr
RMS Displacement         TolRMSD  ....  2.0000e-03 bohr
Strict Convergence                ....  False
------------------------------------------------------------------------------
                        ORCA OPTIMIZATION COORDINATE SETUP
------------------------------------------------------------------------------

The optimization will be done in new redundant internal coordinates
Making redundant internal coordinates   ...  (new redundants) done
Evaluating the initial hessian          ...  (Almloef) done
Evaluating the coordinates              ...  done
Calculating the B-matrix                .... done
Calculating the G-matrix                .... done
Diagonalizing the G-matrix              .... done
Imposing constraints:
 Iter   0:  RMS(Cart)=    0.0046246913 RMS(Int)=    0.0005718306
 Iter   1:  RMS(Cart)=    0.0001525462 RMS(Int)=    0.0000245454
 Iter   2:  RMS(Cart)=    0.0000079643 RMS(Int)=    0.0000012589
 Iter   3:  RMS(Cart)=    0.0000004469 RMS(Int)=    0.0000000675
 Iter   4:  RMS(Cart)=    0.0000000247 RMS(Int)=    0.0000000036
CONVERGED
Small eigenvalue found = 1.240e-02
Small eigenvalue found = 1.575e-02
Small eigenvalue found = 2.184e-02
Small eigenvalue found = 2.372e-02
Small eigenvalue found = 2.924e-02
The first mode is                       ....  227
The number of degrees of freedom        ....  111
Storing new coordinates                 .... done

    -----------------------------------------------------------------
                    Redundant Internal Coordinates


    -----------------------------------------------------------------
         Definition                    Initial Value    Approx d2E/dq
    -----------------------------------------------------------------
      1. B(C   1,Ir  0)                  2.1538         0.087939   
      2. B(C   2,C   1)                  1.4436         0.513095   
      3. B(C   2,Ir  0)                  2.1044         0.105406   
      4. B(C   3,Ir  0)                  2.1641         0.084654   
      5. B(C   4,Ir  0)                  2.1627         0.085094   
      6. B(C   4,C   3)                  1.4461         0.508364   
      7. B(C   4,C   1)                  1.4055         0.590012   
      8. B(C   5,Ir  0)                  2.1640         0.084696   
      9. B(C   5,C   2)                  1.4364         0.526910   
     10. B(C   5,C   3)                  1.4048         0.591631   
     11. B(N   6,Ir  0)                  2.1000         0.095972   
     12. B(C   7,N   6)                  1.4720         0.414068   
     13. B(C   8,C   7)                  1.5202         0.387330   
     14. B(H   9,C   8)                  1.0891         0.361292   
     15. B(H  10,C   8)                  1.0912         0.358521   
     16. B(H  11,C   8)                  1.0905         0.359473   
     17. B(C  12,C   7)                  1.5237         0.382377   
     18. B(H  13,C   7)                  1.0915         0.358163   
     19. B(H  14,C  12)                  1.0889         0.361523   
     20. B(H  15,C  12)                  1.0909         0.358975   
     21. B(H  16,C  12)                  1.0891         0.361245   
     22. B(C  17,N   6)                  1.2770         0.847265   
     23. B(C  18,C  17)                  1.4472         0.506277   
     24. B(H  19,C  17)                  1.0865         0.364739   
     25. B(C  20,C  18)                  1.3889         0.627565   
     26. B(C  20,Ir  0)                  2.6000         0.017069 C 
     27. B(C  21,C  20)                  1.4239         0.551641   
     28. B(S  22,C  18)                  1.7117         0.516660   
     29. B(C  23,C  21)                  1.3603         0.696865   
     30. B(C  23,S  22)                  1.7165         0.507810   
     31. B(H  24,C  20)                  1.2004         0.240417   
     32. B(H  25,C  21)                  1.0804         0.373033   
     33. B(H  26,C  23)                  1.0796         0.374108   
     34. B(H  27,C   1)                  1.0805         0.372842   
     35. B(H  28,C   2)                  1.0803         0.373183   
     36. B(H  29,C   5)                  1.0805         0.372859   
     37. B(O  30,H  24)                  1.3714         0.108835 C 
     38. B(O  31,Ir  0)                  2.0286         0.124530   
     39. B(C  32,O  30)                  1.2302         1.007263   
     40. B(C  32,O  31)                  1.2909         0.804837   
     41. B(C  33,C  32)                  1.5023         0.413644   
     42. B(H  34,C  33)                  1.0866         0.364644   
     43. B(H  35,C  33)                  1.0918         0.357707   
     44. B(H  36,C  33)                  1.0879         0.362836   
     45. B(H  37,C   3)                  1.0801         0.373500   
     46. B(H  38,C   4)                  1.0805         0.372882   
     47. A(C   2,Ir  0,O  31)          106.3499         0.268311   
     48. A(C   1,Ir  0,O  31)          144.4872         0.261107   
     49. A(C   5,Ir  0,N   6)          154.5590         0.249879   
     50. A(C   1,Ir  0,C   3)           64.5549         0.247846   
     51. A(C   1,Ir  0,C   5)           64.9871         0.247864   
     52. A(C   3,Ir  0,O  31)          117.4667         0.259630   
     53. A(C   3,Ir  0,N   6)          156.1230         0.249861   
     54. A(C   2,Ir  0,C   5)           39.2979         0.254514   
     55. A(C   3,Ir  0,C   4)           39.0506         0.246668   
     56. A(C   2,Ir  0,C   4)           65.4522         0.254690   
     57. A(C   5,Ir  0,O  31)           94.7461         0.259650   
     58. A(C   4,Ir  0,N   6)          117.9248         0.250050   
     59. A(C   1,Ir  0,C   2)           39.6120         0.255928   
     60. A(C   4,Ir  0,C   5)           64.5693         0.246686   
     61. A(C   4,Ir  0,O  31)          156.4241         0.259831   
     62. A(C   1,Ir  0,N   6)          100.7167         0.251253   
     63. A(C   2,Ir  0,C   3)           65.2193         0.254495   
     64. A(C   2,Ir  0,N   6)          116.3407         0.258045   
     65. A(C   1,Ir  0,C   4)           38.0053         0.248033   
     66. A(N   6,Ir  0,O  31)           85.6359         0.263290   
     67. A(C   3,Ir  0,C   5)           37.8805         0.246501   
     68. A(Ir  0,C   1,H  27)          123.9400         0.270251   
     69. A(C   2,C   1,C   4)          108.1617         0.415908   
     70. A(Ir  0,C   1,C   4)           71.3421         0.321508   
     71. A(C   4,C   1,H  27)          125.9388         0.352026   
     72. A(Ir  0,C   1,C   2)           68.3517         0.314272   
     73. A(C   2,C   1,H  27)          125.8484         0.343841   
     74. A(C   5,C   2,H  28)          125.8004         0.345431   
     75. A(Ir  0,C   2,C   5)           72.5883         0.325117   
     76. A(C   1,C   2,C   5)          107.2982         0.407645   
     77. A(Ir  0,C   2,C   1)           72.0363         0.323702   
     78. A(Ir  0,C   2,H  28)          126.2744         0.277877   
     79. A(C   1,C   2,H  28)          126.5225         0.343893   
     80. A(Ir  0,C   3,H  37)          124.0626         0.268768   
     81. A(C   4,C   3,C   5)          108.3017         0.415426   
     82. A(C   4,C   3,H  37)          125.6770         0.343408   
     83. A(Ir  0,C   3,C   4)           70.4221         0.311871   
     84. A(Ir  0,C   3,C   5)           71.0543         0.319656   
     85. A(C   5,C   3,H  37)          126.0207         0.352294   
     86. A(Ir  0,C   4,C   1)           70.6526         0.319783   
     87. A(Ir  0,C   4,H  38)          124.5790         0.268911   
     88. A(C   1,C   4,H  38)          126.2931         0.352033   
     89. A(C   3,C   4,H  38)          125.7956         0.343313   
     90. A(Ir  0,C   4,C   3)           70.5273         0.312133   
     91. A(C   1,C   4,C   3)          107.9109         0.415223   
     92. A(Ir  0,C   5,H  29)          122.3341         0.268718   
     93. A(C   3,C   5,H  29)          126.0483         0.352192   
     94. A(C   2,C   5,H  29)          125.5810         0.345380   
     95. A(Ir  0,C   5,C   3)           71.0653         0.319682   
     96. A(C   2,C   5,C   3)          108.1564         0.418084   
     97. A(Ir  0,C   5,C   2)           68.1138         0.313712   
     98. A(Ir  0,N   6,C  17)          113.8768         0.342451   
     99. A(C   7,N   6,C  17)          122.6389         0.421462   
    100. A(Ir  0,N   6,C   7)          123.4587         0.304534   
    101. A(N   6,C   7,C   8)          113.6242         0.369795   
    102. A(N   6,C   7,C  12)          109.6841         0.368978   
    103. A(C   8,C   7,C  12)          111.5910         0.367068   
    104. A(N   6,C   7,H  13)          104.6532         0.327591   
    105. A(C   8,C   7,H  13)          108.3568         0.325963   
    106. A(C  12,C   7,H  13)          108.5863         0.325274   
    107. A(C   7,C   8,H  11)          112.1391         0.326159   
    108. A(H   9,C   8,H  11)          107.2437         0.290911   
    109. A(H  10,C   8,H  11)          108.8635         0.290559   
    110. A(C   7,C   8,H   9)          108.8033         0.326430   
    111. A(C   7,C   8,H  10)          112.9642         0.326017   
    112. A(H   9,C   8,H  10)          106.5191         0.290790   
    113. A(C   7,C  12,H  14)          109.5785         0.325774   
    114. A(C   7,C  12,H  15)          111.3083         0.325395   
    115. A(H  14,C  12,H  15)          107.7421         0.290877   
    116. A(C   7,C  12,H  16)          112.1917         0.325732   
    117. A(H  14,C  12,H  16)          107.1623         0.291165   
    118. A(H  15,C  12,H  16)          108.6753         0.290842   
    119. A(N   6,C  17,C  18)          116.7554         0.439827   
    120. A(N   6,C  17,H  19)          122.0465         0.370723   
    121. A(C  18,C  17,H  19)          121.1527         0.341810   
    122. A(C  17,C  18,C  20)          122.2296         0.419503   
    123. A(C  17,C  18,S  22)          124.6940         0.427475   
    124. A(C  20,C  18,S  22)          113.0594         0.444335   
    125. A(C  18,C  20,C  21)          110.2991         0.425985   
    126. A(C  18,C  20,H  24)          120.5902         0.330509   
    127. A(C  21,C  20,H  24)          125.9667         0.323562   
    128. A(C  20,C  21,H  25)          123.7375         0.348083   
    129. A(C  23,C  21,H  25)          122.9312         0.362156   
    130. A(C  20,C  21,C  23)          113.2434         0.434070   
    131. A(C  18,S  22,C  23)           90.9156         0.451486   
    132. A(C  21,C  23,H  26)          127.8846         0.362334   
    133. A(S  22,C  23,H  26)          119.6518         0.361302   
    134. A(C  21,C  23,S  22)          112.4448         0.451439   
    135. A(Ir  0,O  31,C  32)          126.6734         0.354735   
    136. A(O  30,C  32,O  31)          124.4606         0.490859   
    137. A(O  30,C  32,C  33)          120.8922         0.437524   
    138. A(O  31,C  32,C  33)          114.6300         0.420268   
    139. A(C  32,C  33,H  34)          110.7036         0.330493   
    140. A(C  32,C  33,H  35)          109.0204         0.329446   
    141. A(H  34,C  33,H  35)          107.7973         0.291108   
    142. A(C  32,C  33,H  36)          111.8144         0.330222   
    143. A(H  34,C  33,H  36)          110.1060         0.291760   
    144. A(H  35,C  33,H  36)          107.2488         0.290881   
    145. D(C   2,C   1,Ir  0,C   4)    119.2075         0.001713   
    146. D(C   2,C   1,Ir  0,C   5)     39.1409         0.001713   
    147. D(H  27,C   1,Ir  0,O  31)     98.4153         0.001713   
    148. D(C   4,C   1,Ir  0,C   2)   -119.2075         0.001713   
    149. D(C   2,C   1,Ir  0,O  31)    -21.0814         0.001713   
    150. D(H  27,C   1,Ir  0,C   3)   -159.3110         0.001713   
    151. D(C   4,C   1,Ir  0,O  31)   -140.2889         0.001713   
    152. D(H  27,C   1,Ir  0,C   2)    119.4967         0.001713   
    153. D(C   4,C   1,Ir  0,C   3)    -38.0152         0.001713   
    154. D(H  27,C   1,Ir  0,N   6)      0.8373         0.001713   
    155. D(C   2,C   1,Ir  0,C   3)     81.1923         0.001713   
    156. D(C   4,C   1,Ir  0,N   6)    122.1331         0.001713   
    157. D(H  27,C   1,Ir  0,C   4)   -121.2958         0.001713   
    158. D(H  27,C   1,Ir  0,C   5)    158.6376         0.001713   
    159. D(C   4,C   1,Ir  0,C   5)    -80.0666         0.001713   
    160. D(C   2,C   1,Ir  0,N   6)   -118.6594         0.001713   
    161. D(Ir  0,C   2,C   1,H  27)   -117.0206         0.020875   
    162. D(C   1,C   2,Ir  0,C   5)   -115.4213         0.001804   
    163. D(C   1,C   2,Ir  0,C   4)    -36.2176         0.001804   
    164. D(H  28,C   2,C   1,H  27)      5.2456         0.020875   
    165. D(H  28,C   2,C   1,Ir  0)    122.2662         0.020875   
    166. D(C   5,C   2,C   1,H  27)    178.4751         0.020875   
    167. D(C   1,C   2,Ir  0,C   3)    -79.3739         0.001804   
    168. D(H  28,C   2,Ir  0,C   4)   -158.7719         0.001804   
    169. D(H  28,C   2,Ir  0,C   5)    122.0244         0.001804   
    170. D(C   5,C   2,Ir  0,C   3)     36.0474         0.001804   
    171. D(C   5,C   2,Ir  0,C   1)    115.4213         0.001804   
    172. D(H  28,C   2,C   1,C   4)   -177.2350         0.020875   
    173. D(C   5,C   2,Ir  0,C   4)     79.2037         0.001804   
    174. D(C   5,C   2,C   1,Ir  0)    -64.5043         0.020875   
    175. D(H  28,C   2,Ir  0,N   6)    -48.3849         0.001804   
    176. D(H  28,C   2,Ir  0,O  31)     44.8690         0.001804   
    177. D(Ir  0,C   2,C   1,C   4)     60.4988         0.020875   
    178. D(C   5,C   2,C   1,C   4)     -4.0055         0.020875   
    179. D(C   1,C   2,Ir  0,N   6)     74.1694         0.001804   
    180. D(C   5,C   2,Ir  0,O  31)    -77.1554         0.001804   
    181. D(H  28,C   2,Ir  0,C   1)   -122.5543         0.001804   
    182. D(C   1,C   2,Ir  0,O  31)    167.4233         0.001804   
    183. D(H  28,C   2,Ir  0,C   3)    158.0718         0.001804   
    184. D(C   5,C   2,Ir  0,N   6)   -170.4093         0.001804   
    185. D(C   4,C   3,Ir  0,C   5)    118.3244         0.001697   
    186. D(C   4,C   3,Ir  0,C   1)     37.0074         0.001697   
    187. D(C   4,C   3,Ir  0,O  31)    177.2367         0.001697   
    188. D(C   4,C   3,Ir  0,C   2)     80.9525         0.001697   
    189. D(C   5,C   3,Ir  0,O  31)     58.9124         0.001697   
    190. D(C   5,C   3,Ir  0,C   2)    -37.3718         0.001697   
    191. D(C   4,C   3,Ir  0,N   6)    -18.5124         0.001697   
    192. D(H  37,C   3,Ir  0,C   4)    120.4474         0.001697   
    193. D(H  37,C   3,Ir  0,C   1)    157.4549         0.001697   
    194. D(C   5,C   3,Ir  0,C   1)    -81.3169         0.001697   
    195. D(C   5,C   3,Ir  0,C   4)   -118.3244         0.001697   
    196. D(C   5,C   3,Ir  0,N   6)   -136.8367         0.001697   
    197. D(H  37,C   3,Ir  0,C   5)   -121.2282         0.001697   
    198. D(H  37,C   3,Ir  0,N   6)    101.9351         0.001697   
    199. D(H  37,C   3,Ir  0,O  31)    -62.3158         0.001697   
    200. D(H  37,C   3,Ir  0,C   2)   -158.6000         0.001697   
    201. D(C   1,C   4,Ir  0,C   3)    118.0258         0.001699   
    202. D(H  38,C   4,C   3,H  37)      0.7011         0.020481   
    203. D(C   1,C   4,Ir  0,C   5)     81.2637         0.001699   
    204. D(C   1,C   4,Ir  0,N   6)    -70.3378         0.001699   
    205. D(C   1,C   4,Ir  0,O  31)    111.8864         0.001699   
    206. D(C   1,C   4,Ir  0,C   2)     37.7213         0.001699   
    207. D(C   3,C   4,Ir  0,C   1)   -118.0258         0.001699   
    208. D(H  38,C   4,C   3,C   5)   -179.5675         0.020481   
    209. D(C   3,C   4,Ir  0,C   5)    -36.7621         0.001699   
    210. D(C   3,C   4,Ir  0,N   6)    171.6363         0.001699   
    211. D(C   3,C   4,Ir  0,O  31)     -6.1394         0.001699   
    212. D(Ir  0,C   4,C   1,C   2)    -58.6305         0.027958   
    213. D(H  38,C   4,Ir  0,C   2)    159.0476         0.001699   
    214. D(H  38,C   4,Ir  0,C   3)   -120.6478         0.001699   
    215. D(H  38,C   4,C   1,C   2)   -177.8680         0.027958   
    216. D(H  38,C   4,Ir  0,N   6)     50.9885         0.001699   
    217. D(H  38,C   4,Ir  0,O  31)   -126.7872         0.001699   
    218. D(Ir  0,C   4,C   1,H  27)    118.8860         0.027958   
    219. D(C   3,C   4,C   1,Ir  0)     61.0014         0.027958   
    220. D(C   3,C   4,C   1,H  27)    179.8875         0.027958   
    221. D(H  38,C   4,C   1,Ir  0)   -119.2375         0.027958   
    222. D(H  38,C   4,Ir  0,C   5)   -157.4100         0.001699   
    223. D(H  38,C   4,C   1,H  27)     -0.3515         0.027958   
    224. D(Ir  0,C   4,C   3,C   5)     61.2763         0.020481   
    225. D(Ir  0,C   4,C   3,H  37)   -118.4551         0.020481   
    226. D(C   3,C   4,C   1,C   2)      2.3709         0.027958   
    227. D(C   1,C   4,C   3,C   5)      0.1951         0.020481   
    228. D(C   1,C   4,C   3,H  37)   -179.5363         0.020481   
    229. D(H  38,C   4,C   3,Ir  0)    119.1562         0.020481   
    230. D(H  38,C   4,Ir  0,C   1)    121.3263         0.001699   
    231. D(C   1,C   4,C   3,Ir  0)    -61.0812         0.020481   
    232. D(C   3,C   4,Ir  0,C   2)    -80.3045         0.001699   
    233. D(C   2,C   5,Ir  0,C   1)    -39.4533         0.001698   
    234. D(H  29,C   5,C   3,C   4)   -177.5998         0.028121   
    235. D(C   2,C   5,Ir  0,C   4)    -81.6421         0.001698   
    236. D(C   2,C   5,Ir  0,N   6)     20.3387         0.001698   
    237. D(C   2,C   5,Ir  0,O  31)    110.1543         0.001698   
    238. D(C   3,C   5,Ir  0,C   1)     80.0739         0.001698   
    239. D(C   3,C   5,Ir  0,C   2)    119.5273         0.001698   
    240. D(C   3,C   5,Ir  0,C   4)     37.8851         0.001698   
    241. D(H  29,C   5,C   2,C   1)    179.0562         0.022054   
    242. D(C   3,C   5,Ir  0,O  31)   -130.3184         0.001698   
    243. D(H  29,C   5,Ir  0,C   1)   -158.6512         0.001698   
    244. D(C   3,C   5,C   2,Ir  0)    -60.0160         0.022054   
    245. D(H  29,C   5,Ir  0,C   3)    121.2748         0.001698   
    246. D(H  29,C   5,Ir  0,C   4)    159.1600         0.001698   
    247. D(H  29,C   5,Ir  0,N   6)    -98.8592         0.001698   
    248. D(H  29,C   5,Ir  0,O  31)     -9.0436         0.001698   
    249. D(Ir  0,C   5,C   2,C   1)     64.1381         0.022054   
    250. D(H  29,C   5,Ir  0,C   2)   -119.1979         0.001698   
    251. D(Ir  0,C   5,C   2,H  28)   -122.5700         0.022054   
    252. D(C   3,C   5,C   2,C   1)      4.1221         0.022054   
    253. D(C   3,C   5,C   2,H  28)    177.4140         0.022054   
    254. D(C   3,C   5,Ir  0,N   6)    139.8660         0.001698   
    255. D(H  29,C   5,C   2,Ir  0)    114.9181         0.022054   
    256. D(H  29,C   5,C   2,H  28)     -7.6519         0.022054   
    257. D(Ir  0,C   5,C   3,C   4)    -60.8765         0.028121   
    258. D(Ir  0,C   5,C   3,H  37)    118.8538         0.028121   
    259. D(C   2,C   5,C   3,Ir  0)     58.1808         0.028121   
    260. D(C   2,C   5,C   3,C   4)     -2.6957         0.028121   
    261. D(C   2,C   5,C   3,H  37)    177.0346         0.028121   
    262. D(C   2,C   5,Ir  0,C   3)   -119.5273         0.001698   
    263. D(H  29,C   5,C   3,Ir  0)   -116.7233         0.028121   
    264. D(H  29,C   5,C   3,H  37)      2.1305         0.028121   
    265. D(C  17,N   6,Ir  0,C   1)    -93.7296         0.001773   
    266. D(C   7,N   6,Ir  0,C   2)     45.8399         0.001773   
    267. D(C   7,N   6,Ir  0,C   3)    133.7209         0.001773   
    268. D(C   7,N   6,Ir  0,C   4)    120.6361         0.001773   
    269. D(C   7,N   6,Ir  0,C   5)     31.6204         0.001773   
    270. D(C   7,N   6,Ir  0,C   1)     84.4702         0.001773   
    271. D(C   7,N   6,Ir  0,O  31)    -60.2559         0.001773   
    272. D(C  17,N   6,Ir  0,C   2)   -132.3599         0.001773   
    273. D(C  17,N   6,Ir  0,C   3)    -44.4789         0.001773   
    274. D(C  17,N   6,Ir  0,C   4)    -57.5637         0.001773   
    275. D(C  17,N   6,Ir  0,C   5)   -146.5794         0.001773   
    276. D(C  17,N   6,Ir  0,O  31)    121.5443         0.001773   
    277. D(C   8,C   7,N   6,Ir  0)    160.4029         0.014623   
    278. D(C   8,C   7,N   6,C  17)    -21.5520         0.014623   
    279. D(C  12,C   7,N   6,Ir  0)    -73.9327         0.014623   
    280. D(C  12,C   7,N   6,C  17)    104.1124         0.014623   
    281. D(H  13,C   7,N   6,Ir  0)     42.3904         0.014623   
    282. D(H  13,C   7,N   6,C  17)   -139.5644         0.014623   
    283. D(H   9,C   8,C   7,N   6)   -170.4437         0.011935   
    284. D(H   9,C   8,C   7,C  12)     64.9117         0.011935   
    285. D(H   9,C   8,C   7,H  13)    -54.5918         0.011935   
    286. D(H  10,C   8,C   7,N   6)     71.4896         0.011935   
    287. D(H  10,C   8,C   7,C  12)    -53.1550         0.011935   
    288. D(H  10,C   8,C   7,H  13)   -172.6585         0.011935   
    289. D(H  11,C   8,C   7,N   6)    -51.9798         0.011935   
    290. D(H  11,C   8,C   7,C  12)   -176.6244         0.011935   
    291. D(H  11,C   8,C   7,H  13)     63.8720         0.011935   
    292. D(H  14,C  12,C   7,N   6)    176.9460         0.011646   
    293. D(H  14,C  12,C   7,C   8)    -56.2345         0.011646   
    294. D(H  14,C  12,C   7,H  13)     63.1332         0.011646   
    295. D(H  15,C  12,C   7,N   6)    -63.9831         0.011646   
    296. D(H  15,C  12,C   7,C   8)     62.8364         0.011646   
    297. D(H  15,C  12,C   7,H  13)   -177.7959         0.011646   
    298. D(H  16,C  12,C   7,N   6)     58.0432         0.011646   
    299. D(H  16,C  12,C   7,C   8)   -175.1372         0.011646   
    300. D(H  16,C  12,C   7,H  13)    -55.7695         0.011646   
    301. D(C  18,C  17,N   6,Ir  0)     -9.6907         0.062100   
    302. D(C  18,C  17,N   6,C   7)    172.0928         0.062100   
    303. D(H  19,C  17,N   6,Ir  0)    172.7335         0.062100   
    304. D(H  19,C  17,N   6,C   7)     -5.4830         0.062100   
    305. D(C  20,C  18,C  17,N   6)    -40.6175         0.017464   
    306. D(C  20,C  18,C  17,H  19)    136.9815         0.017464   
    307. D(S  22,C  18,C  17,N   6)    137.7746         0.017464   
    308. D(S  22,C  18,C  17,H  19)    -44.6264         0.017464   
    309. D(C  21,C  20,C  18,C  17)    176.4571         0.029662   
    310. D(C  21,C  20,C  18,S  22)     -2.1061         0.029662   
    311. D(H  24,C  20,C  18,C  17)    -22.4379         0.029662   
    312. D(H  24,C  20,C  18,S  22)    158.9989         0.029662   
    313. D(C  23,C  21,C  20,C  18)      1.4858         0.022596   
    314. D(C  23,C  21,C  20,H  24)   -158.3673         0.022596   
    315. D(H  25,C  21,C  20,C  18)    178.1607         0.022596   
    316. D(H  25,C  21,C  20,H  24)     18.3076         0.022596   
    317. D(C  23,S  22,C  18,C  17)   -176.8147         0.005470   
    318. D(C  23,S  22,C  18,C  20)      1.7070         0.005470   
    319. D(S  22,C  23,C  21,C  20)     -0.2304         0.034177   
    320. D(S  22,C  23,C  21,H  25)   -176.9360         0.034177   
    321. D(H  26,C  23,C  21,C  20)    178.1666         0.034177   
    322. D(H  26,C  23,C  21,H  25)      1.4610         0.034177   
    323. D(C  21,C  23,S  22,C  18)     -0.8259         0.005328   
    324. D(H  26,C  23,S  22,C  18)   -179.3701         0.005328   
    325. D(C  32,O  31,Ir  0,C   1)   -174.5968         0.001934   
    326. D(C  32,O  31,Ir  0,C   2)    171.5756         0.001934   
    327. D(C  32,O  31,Ir  0,C   3)    101.4405         0.001934   
    328. D(C  32,O  31,Ir  0,C   4)    105.7956         0.001934   
    329. D(C  32,O  31,Ir  0,C   5)    133.2866         0.001934   
    330. D(C  32,O  31,Ir  0,N   6)    -72.2335         0.001934   
    331. D(O  30,C  32,O  31,Ir  0)      2.6058         0.049996   
    332. D(C  33,C  32,O  31,Ir  0)   -175.8932         0.049996   
    333. D(H  34,C  33,C  32,O  30)     23.0280         0.012664   
    334. D(H  34,C  33,C  32,O  31)   -158.4141         0.012664   
    335. D(H  35,C  33,C  32,O  30)    -95.3904         0.012664   
    336. D(H  35,C  33,C  32,O  31)     83.1674         0.012664   
    337. D(H  36,C  33,C  32,O  30)    146.1970         0.012664   
    338. D(H  36,C  33,C  32,O  31)    -35.2452         0.012664   
    -----------------------------------------------------------------

Number of atoms                         .... 39
Number of degrees of freedom            .... 338

         *************************************************************
         *                GEOMETRY OPTIMIZATION CYCLE   1            *
         *************************************************************
---------------------------------
CARTESIAN COORDINATES (ANGSTROEM)
---------------------------------
  Ir     0.565872   -0.740077    0.498832
  C      0.009867   -2.816058    0.357796
  C      0.093280   -2.379194    1.731161
  C      2.177853   -2.155768    0.783038
  C      1.274103   -2.648022   -0.232942
  C      1.463238   -2.030719    1.986043
  N     -1.041167    0.163775   -0.506495
  C     -2.319526    0.498017    0.142216
  C     -3.131971    1.537957   -0.612327
  H     -3.968244    1.850397    0.011506
  H     -3.562430    1.152404   -1.537942
  H     -2.547573    2.430011   -0.840041
  C     -3.121964   -0.774952    0.381351
  H     -2.036943    0.917942    1.109228
  H     -4.042637   -0.532095    0.909691
  H     -3.395257   -1.253950   -0.559834
  H     -2.579891   -1.493943    0.994070
  C     -0.825113    0.367443   -1.748530
  C      0.527907    0.158039   -2.217359
  H     -1.604107    0.719754   -2.419024
  C      1.636660    0.558465   -1.482885
  C      2.834997    0.157144   -2.138944
  S      0.941236   -0.625887   -3.681776
  C      2.612821   -0.480425   -3.319902
  H      1.541507    1.422631   -0.655194
  H      3.825252    0.382665   -1.770444
  H      3.345186   -0.857037   -4.018021
  H     -0.881229   -3.169417   -0.140842
  H     -0.696247   -2.418604    2.467442
  H      1.852374   -1.652477    2.920407
  O      1.321457    2.419405    0.260685
  O      0.538711    0.899196    1.693594
  C      0.919420    2.091089    1.376015
  C      0.872740    3.084174    2.502262
  H      0.829260    4.099475    2.117609
  H      1.783872    2.991223    3.096618
  H      0.032677    2.900439    3.168717
  H      3.221930   -1.920968    0.637128
  H      1.531450   -2.852862   -1.262167

----------------------------
CARTESIAN COORDINATES (A.U.)
----------------------------
  NO LB      ZA    FRAG     MASS         X           Y           Z
   0 Ir   17.0000*   0   192.220    1.069343   -1.398542    0.942656
   1 C     6.0000    0    12.011    0.018646   -5.321578    0.676136
   2 C     6.0000    0    12.011    0.176274   -4.496025    3.271420
   3 C     6.0000    0    12.011    4.115546   -4.073812    1.479728
   4 C     6.0000    0    12.011    2.407705   -5.004036   -0.440197
   5 C     6.0000    0    12.011    2.765119   -3.837503    3.753078
   6 N     7.0000    0    14.007   -1.967521    0.309490   -0.957137
   7 C     6.0000    0    12.011   -4.383268    0.941115    0.268749
   8 C     6.0000    0    12.011   -5.918567    2.906318   -1.157131
   9 H     1.0000    0     1.008   -7.498894    3.496743    0.021744
  10 H     1.0000    0     1.008   -6.732016    2.177727   -2.906290
  11 H     1.0000    0     1.008   -4.814215    4.592056   -1.587447
  12 C     6.0000    0    12.011   -5.899657   -1.464447    0.720649
  13 H     1.0000    0     1.008   -3.849264    1.734659    2.096138
  14 H     1.0000    0     1.008   -7.639476   -1.005513    1.719067
  15 H     1.0000    0     1.008   -6.416107   -2.369622   -1.057932
  16 H     1.0000    0     1.008   -4.875287   -2.823144    1.878521
  17 C     6.0000    0    12.011   -1.559238    0.694367   -3.304243
  18 C     6.0000    0    12.011    0.997600    0.298650   -4.190201
  19 H     1.0000    0     1.008   -3.031322    1.360139   -4.571293
  20 C     6.0000    0    12.011    3.092839    1.055346   -2.802246
  21 C     6.0000    0    12.011    5.357368    0.296959   -4.042018
  22 S    16.0000    0    32.060    1.778679   -1.182754   -6.957549
  23 C     6.0000    0    12.011    4.937516   -0.907872   -6.273706
  24 H     1.0000    0     1.008    2.913025    2.688383   -1.238138
  25 H     1.0000    0     1.008    7.228678    0.723131   -3.345654
  26 H     1.0000    0     1.008    6.321486   -1.619565   -7.592960
  27 H     1.0000    0     1.008   -1.665281   -5.989330   -0.266153
  28 H     1.0000    0     1.008   -1.315716   -4.570500    4.662790
  29 H     1.0000    0     1.008    3.500479   -3.122729    5.518769
  30 O     8.0000    0    15.999    2.497192    4.572013    0.492623
  31 O     8.0000    0    15.999    1.018016    1.699235    3.200428
  32 C     6.0000    0    12.011    1.737452    3.951585    2.600291
  33 C     6.0000    0    12.011    1.649239    5.828244    4.728590
  34 H     1.0000    0     1.008    1.567073    7.746885    4.001701
  35 H     1.0000    0     1.008    3.371029    5.652591    5.851760
  36 H     1.0000    0     1.008    0.061751    5.481036    5.988006
  37 H     1.0000    0     1.008    6.088566   -3.630103    1.203998
  38 H     1.0000    0     1.008    2.894021   -5.391128   -2.385151
* core charge reduced due to ECP

--------------------------------
INTERNAL COORDINATES (ANGSTROEM)
--------------------------------
 Ir     0   0   0     0.000000000000     0.00000000     0.00000000
 C      1   0   0     2.153745452111     0.00000000     0.00000000
 C      2   1   0     1.443615983994    68.35141433     0.00000000
 C      1   2   3     2.164108743453    64.55666577    81.19190120
 C      2   1   3     1.405593252697    71.34119763   240.79258794
 C      4   1   2     1.404847277064    71.05409270   278.68257297
 N      1   2   3     2.099950851576   100.71445674   241.34244058
 C      7   1   2     1.471986188151   123.46397815    84.48703742
 C      8   7   1     1.520157461453   113.62420339   160.40271435
 H      9   8   7     1.089100170089   108.80331246   189.55627381
 H      9   8   7     1.091196150258   112.96424087    71.48957892
 H      9   8   7     1.090474470598   112.13906465   308.02017069
 C      8   7   1     1.523660616614   109.68411821   286.06713369
 H      8   7   1     1.091468398147   104.65323583    42.39026862
 H     13   8   7     1.088926286458   109.57846574   176.94596778
 H     13   8   7     1.090851495905   111.30831820   296.01688334
 H     13   8   7     1.089135979073   112.19174365    58.04322138
 C      7   1   2     1.277088100371   113.87041735   266.28679910
 C     18   7   1     1.447257488381   116.77538599   350.37938043
 H     18   7   1     1.086515500908   122.03542010   172.76862821
 C     19  18   7     1.388796548148   122.26884924   319.39055253
 C     21  19  18     1.423898184823   110.30755516   176.44905270
 S     19  18   7     1.711730945300   124.66367424   137.76839611
 C     22  21  19     1.360283795398   113.24327685     1.48353081
 H     21  19  18     1.199974496091   120.58935932   337.55383983
 H     22  21  19     1.080394993413   123.73747712   178.16002517
 H     24  22  21     1.079611941267   127.88713804   178.16787821
 H      2   1   3     1.080534073310   123.94038161   119.49618761
 H      3   2   1     1.080285495989   126.52259060   122.26628565
 H      6   4   1     1.080522362183   126.04861072   243.27623362
 O     25  21  19     1.385714285577   174.97864119   358.21776446
 O      1   2   3     2.029043216261   144.47995886   338.92228264
 C     31  25  21     1.230001415038   117.36820691    87.41817028
 C     33  31  25     1.502265000060   120.86270101   169.61799917
 H     34  33  31     1.086586609319   110.70355091    23.02635521
 H     34  33  31     1.091814600219   109.02038576   264.60777519
 H     34  33  31     1.087939392681   111.81430507   146.19495023
 H      4   1   2     1.080054724743   124.06303149   157.45549287
 H      5   2   1     1.080505139168   126.29505864   240.76264410

---------------------------
INTERNAL COORDINATES (A.U.)
---------------------------
 Ir     0   0   0     0.000000000000     0.00000000     0.00000000
 C      1   0   0     4.069989066669     0.00000000     0.00000000
 C      2   1   0     2.728038852299    68.35141433     0.00000000
 C      1   2   3     4.089572849150    64.55666577    81.19190120
 C      2   1   3     2.656186303284    71.34119763   240.79258794
 C      4   1   2     2.654776613636    71.05409270   278.68257297
 N      1   2   3     3.968332004173   100.71445674   241.34244058
 C      7   1   2     2.781650768520   123.46397815    84.48703742
 C      8   7   1     2.872681282583   113.62420339   160.40271435
 H      9   8   7     2.058101053875   108.80331246   189.55627381
 H      9   8   7     2.062061882376   112.96424087    71.48957892
 H      9   8   7     2.060698105464   112.13906465   308.02017069
 C      8   7   1     2.879301286443   109.68411821   286.06713369
 H      8   7   1     2.062576356327   104.65323583    42.39026862
 H     13   8   7     2.057772461433   109.57846574   176.94596778
 H     13   8   7     2.061410580039   111.30831820   296.01688334
 H     13   8   7     2.058168723048   112.19174365    58.04322138
 C      7   1   2     2.413346758591   113.87041735   266.28679910
 C     18   7   1     2.734920298307   116.77538599   350.37938043
 H     18   7   1     2.053216736976   122.03542010   172.76862821
 C     19  18   7     2.624445131736   122.26884924   319.39055253
 C     21  19  18     2.690777611903   110.30755516   176.44905270
 S     19  18   7     3.234702701576   124.66367424   137.76839611
 C     22  21  19     2.570563837714   113.24327685     1.48353081
 H     21  19  18     2.267623165302   120.58935932   337.55383983
 H     22  21  19     2.041650654010   123.73747712   178.16002517
 H     24  22  21     2.040170899905   127.88713804   178.16787821
 H      2   1   3     2.041913476925   123.94038161   119.49618761
 H      3   2   1     2.041443733866   126.52259060   122.26628565
 H      6   4   1     2.041891346104   126.04861072   243.27623362
 O     25  21  19     2.618620499602   174.97864119   358.21776446
 O      1   2   3     3.834335992624   144.47995886   338.92228264
 C     31  25  21     2.324365818757   117.36820691    87.41817028
 C     33  31  25     2.838869430689   120.86270101   169.61799917
 H     34  33  31     2.053351112399   110.70355091    23.02635521
 H     34  33  31     2.063230583430   109.02038576   264.60777519
 H     34  33  31     2.055907502471   111.81430507   146.19495023
 H      4   1   2     2.041007639412   124.06303149   157.45549287
 H      5   2   1     2.041858799322   126.29505864   240.76264410

---------------------
BASIS SET INFORMATION
---------------------
There are 6 groups of distinct atoms

 Group   1 Type Ir  : 7s6p5d1f contracted to 6s3p2d1f pattern {211111/411/41/1}
 Group   2 Type C   : 8s4p1d contracted to 4s2p1d pattern {5111/31/1}
 Group   3 Type N   : 8s4p1d contracted to 4s2p1d pattern {5111/31/1}
 Group   4 Type H   : 4s contracted to 2s pattern {31}
 Group   5 Type S   : 10s7p1d contracted to 4s3p1d pattern {5311/511/1}
 Group   6 Type O   : 8s4p1d contracted to 4s2p1d pattern {5111/31/1}

Atom   0Ir   basis set group =>   1
Atom   1C    basis set group =>   2
Atom   2C    basis set group =>   2
Atom   3C    basis set group =>   2
Atom   4C    basis set group =>   2
Atom   5C    basis set group =>   2
Atom   6N    basis set group =>   3
Atom   7C    basis set group =>   2
Atom   8C    basis set group =>   2
Atom   9H    basis set group =>   4
Atom  10H    basis set group =>   4
Atom  11H    basis set group =>   4
Atom  12C    basis set group =>   2
Atom  13H    basis set group =>   4
Atom  14H    basis set group =>   4
Atom  15H    basis set group =>   4
Atom  16H    basis set group =>   4
Atom  17C    basis set group =>   2
Atom  18C    basis set group =>   2
Atom  19H    basis set group =>   4
Atom  20C    basis set group =>   2
Atom  21C    basis set group =>   2
Atom  22S    basis set group =>   5
Atom  23C    basis set group =>   2
Atom  24H    basis set group =>   4
Atom  25H    basis set group =>   4
Atom  26H    basis set group =>   4
Atom  27H    basis set group =>   4
Atom  28H    basis set group =>   4
Atom  29H    basis set group =>   4
Atom  30O    basis set group =>   6
Atom  31O    basis set group =>   6
Atom  32C    basis set group =>   2
Atom  33C    basis set group =>   2
Atom  34H    basis set group =>   4
Atom  35H    basis set group =>   4
Atom  36H    basis set group =>   4
Atom  37H    basis set group =>   4
Atom  38H    basis set group =>   4
---------------------------------
AUXILIARY/J BASIS SET INFORMATION
---------------------------------
There are 6 groups of distinct atoms

 Group   1 Type Ir  : 11s5p5d3f3g contracted to 8s5p5d2f3g pattern {41111111/11111/11111/21/111}
 Group   2 Type C   : 12s5p4d2f1g contracted to 6s4p3d1f1g pattern {711111/2111/211/2/1}
 Group   3 Type N   : 12s5p4d2f1g contracted to 6s4p3d1f1g pattern {711111/2111/211/2/1}
 Group   4 Type H   : 5s2p1d contracted to 3s1p1d pattern {311/2/1}
 Group   5 Type S   : 14s5p5d2f1g contracted to 8s4p3d1f1g pattern {71111111/2111/311/2/1}
 Group   6 Type O   : 12s5p4d2f1g contracted to 6s4p3d1f1g pattern {711111/2111/211/2/1}

Atom   0Ir   basis set group =>   1
Atom   1C    basis set group =>   2
Atom   2C    basis set group =>   2
Atom   3C    basis set group =>   2
Atom   4C    basis set group =>   2
Atom   5C    basis set group =>   2
Atom   6N    basis set group =>   3
Atom   7C    basis set group =>   2
Atom   8C    basis set group =>   2
Atom   9H    basis set group =>   4
Atom  10H    basis set group =>   4
Atom  11H    basis set group =>   4
Atom  12C    basis set group =>   2
Atom  13H    basis set group =>   4
Atom  14H    basis set group =>   4
Atom  15H    basis set group =>   4
Atom  16H    basis set group =>   4
Atom  17C    basis set group =>   2
Atom  18C    basis set group =>   2
Atom  19H    basis set group =>   4
Atom  20C    basis set group =>   2
Atom  21C    basis set group =>   2
Atom  22S    basis set group =>   5
Atom  23C    basis set group =>   2
Atom  24H    basis set group =>   4
Atom  25H    basis set group =>   4
Atom  26H    basis set group =>   4
Atom  27H    basis set group =>   4
Atom  28H    basis set group =>   4
Atom  29H    basis set group =>   4
Atom  30O    basis set group =>   6
Atom  31O    basis set group =>   6
Atom  32C    basis set group =>   2
Atom  33C    basis set group =>   2
Atom  34H    basis set group =>   4
Atom  35H    basis set group =>   4
Atom  36H    basis set group =>   4
Atom  37H    basis set group =>   4
Atom  38H    basis set group =>   4
-------------------------
ECP PARAMETER INFORMATION
-------------------------

 Group 1, Type Ir ECP Def2-ECP (replacing 60 core electrons, lmax=3)

Atom   0Ir   ECP group =>   1

------------------------------------------------------------------------------
                           ORCA GTO INTEGRAL CALCULATION
                           -- RI-GTO INTEGRALS CHOSEN --
------------------------------------------------------------------------------
------------------------------------------------------------------------------
                   ___                                                        
                  /   \      - P O W E R E D   B Y -                         
                 /     \                                                     
                 |  |  |   _    _      __       _____    __    __             
                 |  |  |  | |  | |    /  \     |  _  \  |  |  /  |          
                  \  \/   | |  | |   /    \    | | | |  |  | /  /          
                 / \  \   | |__| |  /  /\  \   | |_| |  |  |/  /          
                |  |  |   |  __  | /  /__\  \  |    /   |      \           
                |  |  |   | |  | | |   __   |  |    \   |  |\   \          
                \     /   | |  | | |  |  |  |  | |\  \  |  | \   \       
                 \___/    |_|  |_| |__|  |__|  |_| \__\ |__|  \__/        
                                                                              
                      - O R C A' S   B I G   F R I E N D -                    
                                      &                                       
                       - I N T E G R A L  F E E D E R -                       
                                                                              
 v1 FN, 2020, v2 2021                                                         
------------------------------------------------------------------------------


Reading SHARK input file reaction4-IEIP_ts_guess_scan_0-9_orca.SHARKINP.tmp ... ok
----------------------
SHARK INTEGRAL PACKAGE
----------------------

Number of atoms                             ...     39
Number of basis functions                   ...    358
Number of shells                            ...    184
Maximum angular momentum                    ...      3
Integral batch strategy                     ... SHARK/LIBINT Hybrid
RI-J (if used) integral strategy            ... SPLIT-RIJ (Revised 2003 algorithm where possible)
Printlevel                                  ...      1
Contraction scheme used                     ... SEGMENTED contraction
Coulomb Range Separation                    ... NOT USED
Exchange Range Separation                   ... NOT USED
Finite Nucleus Model                        ... NOT USED
Auxiliary Coulomb fitting basis             ... AVAILABLE
   # of basis functions in Aux-J            ...   1231
   # of shells in Aux-J                     ...    405
   Maximum angular momentum in Aux-J        ...      4
Auxiliary J/K fitting basis                 ... NOT available
Auxiliary Correlation fitting basis         ... NOT available
Auxiliary 'external' fitting basis          ... NOT available
Integral threshold                          ...     2.500000e-11
Primitive cut-off                           ...     2.500000e-12
Primitive pair pre-selection threshold      ...     2.500000e-12

Calculating pre-screening integrals         ... done (  0.1 sec) Dimension = 184
Organizing shell pair data                  ... done (  0.1 sec)
Shell pair information
Total number of shell pairs                 ...     17020
Shell pairs after pre-screening             ...     12957
Total number of primitive shell pairs       ...     60705
Primitive shell pairs kept                  ...     29121
          la=0 lb=0:   4969 shell pairs
          la=1 lb=0:   4250 shell pairs
          la=1 lb=1:    856 shell pairs
          la=2 lb=0:   1742 shell pairs
          la=2 lb=1:    785 shell pairs
          la=2 lb=2:    179 shell pairs
          la=3 lb=0:    112 shell pairs
          la=3 lb=1:     42 shell pairs
          la=3 lb=2:     21 shell pairs
          la=3 lb=3:      1 shell pairs

Calculating one electron integrals          ... done (  0.1 sec)
Calculating ECP integrals                   ... done (  0.8 sec)
Calculating RI/J V-Matrix + Cholesky decomp.... done (  0.1 sec)
Calculating Nuclear repulsion               ... done (  0.0 sec) ENN=   2033.796968415935 Eh

SHARK setup successfully completed in   1.5 seconds

Maximum memory used throughout the entire GTOINT-calculation: 90.8 MB
-------------------------------------------------------------------------------
                                 ORCA SCF
-------------------------------------------------------------------------------

------------
SCF SETTINGS
------------
Hamiltonian:
 Density Functional     Method          .... DFT(GTOs)
 Exchange Functional    Exchange        .... PBE
   PBE kappa parameter   XKappa         ....  1.024500
   PBE mue parameter    XMuePBE         ....  0.123457
 Correlation Functional Correlation     .... PBE
   PBE beta parameter  CBetaPBE         ....  0.030000
 LDA part of GGA corr.  LDAOpt          .... PW91-LDA
 Gradients option       PostSCFGGA      .... off
 Hybrid DFT is turned on
   Fraction HF Exchange ScalHFX         ....  0.420000
   Scaling of DF-GGA-X  ScalDFX         ....  0.580000
   Scaling of DF-GGA-C  ScalDFC         ....  1.000000
   Scaling of DF-LDA-C  ScalLDAC        ....  1.000000
   Perturbative correction              ....  0.000000
   Density functional embedding theory  .... OFF
 RI-approximation to the Coulomb term is turned on
   Number of AuxJ basis functions       .... 1231
   RIJ-ON(X) (HFX calculated with O(N)) .... on
   Number of AuxJ basis functions       .... 1231
   RIJ-COSX (HFX calculated with COS-X)).... on


General Settings:
 Integral files         IntName         .... reaction4-IEIP_ts_guess_scan_0-9_orca
 Hartree-Fock type      HFTyp           .... RHF
 Total Charge           Charge          ....    1
 Multiplicity           Mult            ....    1
 Number of Electrons    NEL             ....  164
 Basis Dimension        Dim             ....  358
 Nuclear Repulsion      ENuc            ....   2033.7969684159 Eh

Convergence Acceleration:
 DIIS                   CNVDIIS         .... on
   Start iteration      DIISMaxIt       ....    12
   Startup error        DIISStart       ....  0.200000
   # of expansion vecs  DIISMaxEq       ....     5
   Bias factor          DIISBfac        ....   1.050
   Max. coefficient     DIISMaxC        ....  10.000
 Trust-Rad. Augm. Hess. CNVTRAH         .... auto
   Auto Start mean grad. ratio tolernc. ....  1.125000
   Auto Start start iteration           ....    20
   Auto Start num. interpolation iter.  ....    10
   Max. Number of Micro iterations      ....    16
   Max. Number of Macro iterations      .... Maxiter - #DIIS iter
   Number of Davidson start vectors     ....     2
   Converg. threshold I  (grad. norm)   ....   1.000e-05
   Converg. threshold II (energy diff.) ....   1.000e-08
   Grad. Scal. Fac. for Micro threshold ....   0.100
   Minimum threshold for Micro iter.    ....   0.010
   NR start threshold (gradient norm)   ....   0.001
   Initial trust radius                 ....   0.400
   Minimum AH scaling param. (alpha)    ....   1.000
   Maximum AH scaling param. (alpha)    .... 1000.000
   Orbital update algorithm             .... Taylor
   White noise on init. David. guess    .... on
   Maximum white noise                  ....   0.010
   Quad. conv. algorithm                .... NR
   COSX micro iterations for RIJONX calc.... off
 SOSCF                  CNVSOSCF        .... off
 Level Shifting         CNVShift        .... on
   Level shift para.    LevelShift      ....    0.2500
   Turn off err/grad.   ShiftErr        ....    0.0010
 Zerner damping         CNVZerner       .... off
 Static damping         CNVDamp         .... on
   Fraction old density DampFac         ....    0.7000
   Max. Damping (<1)    DampMax         ....    0.9800
   Min. Damping (>=0)   DampMin         ....    0.0000
   Turn off err/grad.   DampErr         ....    0.1000
 Fernandez-Rico         CNVRico         .... off

SCF Procedure:
 Maximum # iterations   MaxIter         ....   250
 SCF integral mode      SCFMode         .... Direct
   Integral package                     .... SHARK and LIBINT hybrid scheme
 Reset frequency        DirectResetFreq ....    20
 Integral Threshold     Thresh          ....  2.500e-11 Eh
 Primitive CutOff       TCut            ....  2.500e-12 Eh

Convergence Tolerance:
 Convergence Check Mode ConvCheckMode   .... Total+1el-Energy
 Convergence forced     ConvForced      .... 0
 Energy Change          TolE            ....  1.000e-08 Eh
 1-El. energy change                    ....  1.000e-05 Eh
 DIIS Error             TolErr          ....  5.000e-07


Diagonalization of the overlap matrix:
Smallest eigenvalue                        ... 1.067e-03
Time for diagonalization                   ...    0.019 sec
Threshold for overlap eigenvalues          ... 1.000e-08
Number of eigenvalues below threshold      ... 0
Time for construction of square roots      ...    0.007 sec
Total time needed                          ...    0.026 sec

--------------------
INITIAL GUESS: HCORE
--------------------
                      -----------------
                      INTIAL GUESS DONE 
                      -----------------
-------------------
DFT GRID GENERATION
-------------------

General Integration Accuracy     IntAcc      ... 4.159
Radial Grid Type                 RadialGrid  ... OptM3 with GC (2021)
Angular Grid (max. ang.)         AngularGrid ... 3 (Lebedev-194)
Angular grid pruning method      GridPruning ... 4 (adaptive)
Weight generation scheme         WeightScheme... Becke
Basis function cutoff            BFCut       ... 1.0000e-11
Integration weight cutoff        WCut        ... 1.0000e-14
Angular grids for H and He will be reduced by one unit
Partially contracted basis set               ... off
Rotationally invariant grid construction     ... off

Total number of grid points                  ...    93333
Total number of batches                      ...     1479
Average number of points per batch           ...       63
Average number of grid points per atom       ...     2393
Time for grid setup =    1.734 sec

--------------------
COSX GRID GENERATION
--------------------

GRIDX 1
-------
General Integration Accuracy     IntAcc      ... 3.816
Radial Grid Type                 RadialGrid  ... OptM3 with GC (2021)
Angular Grid (max. ang.)         AngularGrid ... 1 (Lebedev-50)
Angular grid pruning method      GridPruning ... 4 (adaptive)
Weight generation scheme         WeightScheme... Becke
Basis function cutoff            BFCut       ... 1.0000e-11
Integration weight cutoff        WCut        ... 1.0000e-14
Angular grids for H and He will be reduced by one unit
Partially contracted basis set               ... on
Rotationally invariant grid construction     ... off

Total number of grid points                  ...    23183
Total number of batches                      ...      382
Average number of points per batch           ...       60
Average number of grid points per atom       ...      594
UseSFitting                                  ... on

GRIDX 2
-------
General Integration Accuracy     IntAcc      ... 4.020
Radial Grid Type                 RadialGrid  ... OptM3 with GC (2021)
Angular Grid (max. ang.)         AngularGrid ... 2 (Lebedev-110)
Angular grid pruning method      GridPruning ... 4 (adaptive)
Weight generation scheme         WeightScheme... Becke
Basis function cutoff            BFCut       ... 1.0000e-11
Integration weight cutoff        WCut        ... 1.0000e-14
Angular grids for H and He will be reduced by one unit
Partially contracted basis set               ... on
Rotationally invariant grid construction     ... off

Total number of grid points                  ...    50329
Total number of batches                      ...      807
Average number of points per batch           ...       62
Average number of grid points per atom       ...     1290
UseSFitting                                  ... on

GRIDX 3
-------
General Integration Accuracy     IntAcc      ... 4.338
Radial Grid Type                 RadialGrid  ... OptM3 with GC (2021)
Angular Grid (max. ang.)         AngularGrid ... 3 (Lebedev-194)
Angular grid pruning method      GridPruning ... 4 (adaptive)
Weight generation scheme         WeightScheme... Becke
Basis function cutoff            BFCut       ... 1.0000e-11
Integration weight cutoff        WCut        ... 1.0000e-14
Angular grids for H and He will be reduced by one unit
Partially contracted basis set               ... on
Rotationally invariant grid construction     ... off

Total number of grid points                  ...   108851
Total number of batches                      ...     1720
Average number of points per batch           ...       63
Average number of grid points per atom       ...     2791
UseSFitting                                  ... on

Time for X-Grid setup             =    4.743 sec

--------------
SCF ITERATIONS
--------------
ITER       Energy         Delta-E        Max-DP      RMS-DP      [F,P]     Damp
               ***  Starting incremental Fock matrix formation  ***
  0   -874.1348139377   0.00000000000019.46641124  0.15018884  2.6097103 0.7000
  1  -1102.4774238111-228.342609873350 9.10970228  0.11324974  1.4873827 0.7000
  2  -1167.8080532733 -65.330629462247 5.37698775  0.06424567  1.0235005 0.7000
  3  -1192.9727026154 -25.164649342106 3.73474049  0.04497500  0.7273954 0.7000
  4  -1210.2878533916 -17.315150776161 2.63511863  0.03543059  0.4478011 0.7000
  5  -1225.7304859731 -15.442632581495 2.17015742  0.03067416  0.3374948 0.7000
  6  -1235.3750639381  -9.644577964956 1.83191555  0.02931460  0.3313769 0.7000
  7  -1242.3033154709  -6.928251532867 1.61196033  0.02621820  0.3303371 0.7000
  8  -1246.5744346501  -4.271119179206 1.63233400  0.02604135  0.3893223 0.7000
  9  -1250.5757820948  -4.001347444629 1.48632035  0.02434472  0.3461370 0.7000
 10  -1253.7908804296  -3.215098334845 1.57000355  0.02581891  0.3756535 0.7000
 11  -1255.5175731687  -1.726692739145 1.50128328  0.02314270  0.3313613 0.7000
                               ***Turning on DIIS***
 12  -1259.2078778971  -3.690304728343 1.52354418  0.02421880  0.3457006 0.7000
 13  -1259.4402072301  -0.232329332991 1.40041941  0.01956534  0.2976741 0.7000
 14  -1268.6471285034  -9.206921273280 0.97312848  0.01383321  0.2062041 0.7000
 15  -1274.9558241534  -6.308695650062 0.67568824  0.00977479  0.1374089 0.7000
 16  -1279.1809001469  -4.225075993438 1.56297417  0.02296175  0.0816753 0.0000
 17  -1288.2831974883  -9.102297341408 0.05453284  0.00107045  0.0723567 0.0000
 18  -1288.3881877929  -0.104990304665 0.05743625  0.00097848  0.0374319 0.0000
 19  -1288.4208416496  -0.032653856699 0.03907645  0.00055294  0.0284971 0.0000
               *** Restarting incremental Fock matrix formation ***
                                   *** Resetting DIIS ***
 20  -1288.4344393888  -0.013597739147 0.02154052  0.00038802  0.0088470 0.0000
 21  -1288.4361589466  -0.001719557843 0.01116177  0.00014280  0.0097681 0.0000
 22  -1288.4374600941  -0.001301147520 0.00519237  0.00008613  0.0023965 0.0000
 23  -1288.4376337232  -0.000173629036 0.00389832  0.00004551  0.0022711 0.0000
 24  -1288.4377120151  -0.000078291964 0.00358608  0.00004643  0.0006171 0.0000
               *** Restarting incremental Fock matrix formation ***
                                   *** Resetting DIIS ***
 25  -1288.4386572752  -0.000945260038 0.00489988  0.00008439  0.0008125 0.0000
 26  -1288.4386767902  -0.000019515035 0.00092052  0.00001270  0.0006017 0.0000
 27  -1288.4386772018  -0.000000411605 0.00057258  0.00000696  0.0007602 0.0000
 28  -1288.4386791262  -0.000001924424 0.00030158  0.00000267  0.0001101 0.0000
 29  -1288.4386792220  -0.000000095734 0.00017980  0.00000176  0.0000846 0.0000
 30  -1288.4386792720  -0.000000049975 0.00013099  0.00000101  0.0000582 0.0000
 31  -1288.4386792938  -0.000000021829 0.00005002  0.00000058  0.0000157 0.0000
 32  -1288.4386792876   0.000000006205 0.00002583  0.00000028  0.0000104 0.0000
 33  -1288.4386792778   0.000000009770 0.00001361  0.00000013  0.0000045 0.0000
 34  -1288.4386792763   0.000000001531 0.00000539  0.00000006  0.0000045 0.0000
 35  -1288.4386792719   0.000000004376 0.00000461  0.00000004  0.0000020 0.0000
 36  -1288.4386792779  -0.000000005959 0.00000275  0.00000003  0.0000018 0.0000
                            ***DIIS convergence achieved***

               *****************************************************
               *                     SUCCESS                       *
               *           SCF CONVERGED AFTER  37 CYCLES          *
               *****************************************************

Old exchange energy                            =    -59.658489185 Eh
New exchange energy                            =    -59.658466501 Eh
Exchange energy change after final integration =      0.000022685 Eh
Total energy after final integration           =  -1288.438656591 Eh
Final COS-X integration done in                =    60.905 sec

----------------
TOTAL SCF ENERGY
----------------

Total Energy       :        -1288.43865659 Eh          -35060.19827 eV

Components:
Nuclear Repulsion  :         2033.79696842 Eh           55342.42907 eV
Electronic Energy  :        -3322.23562501 Eh          -90402.62734 eV
One Electron Energy:        -5823.10032721 Eh         -158454.61558 eV
Two Electron Energy:         2500.86470220 Eh           68051.98824 eV
Max COSX asymmetry :            0.00001584 Eh               0.00043 eV

Virial components:
Potential Energy   :        -2501.56528163 Eh          -68071.05198 eV
Kinetic Energy     :         1213.12662504 Eh           33010.85371 eV
Virial Ratio       :            2.06208093


DFT components:
N(Alpha)           :       82.000292083896 electrons
N(Beta)            :       82.000292083896 electrons
N(Total)           :      164.000584167791 electrons
E(X)               :      -79.591254610449 Eh       
E(C)               :       -7.452613105031 Eh       
E(XC)              :      -87.043867715479 Eh       
DFET-embed. en.    :        0.000000000000 Eh       

---------------
SCF CONVERGENCE
---------------

  Last Energy change         ...    1.6364e-09  Tolerance :   1.0000e-08
  Last MAX-Density change    ...    0.0000e+00  Tolerance :   1.0000e-07
  Last RMS-Density change    ...    0.0000e+00  Tolerance :   5.0000e-09
  Last DIIS Error            ...    7.7677e-07  Tolerance :   5.0000e-07

             **** THE GBW FILE WAS UPDATED (reaction4-IEIP_ts_guess_scan_0-9_orca.gbw) ****
             **** DENSITY reaction4-IEIP_ts_guess_scan_0-9_orca.scfp WAS UPDATED ****
             **** ENERGY FILE WAS UPDATED (reaction4-IEIP_ts_guess_scan_0-9_orca.en.tmp) ****
             **** THE GBW FILE WAS UPDATED (reaction4-IEIP_ts_guess_scan_0-9_orca.gbw) ****
             **** DENSITY reaction4-IEIP_ts_guess_scan_0-9_orca.scfp WAS UPDATED ****
----------------
ORBITAL ENERGIES
----------------

  NO   OCC          E(Eh)            E(eV) 
   0   2.0000     -89.756488     -2442.3982 
   1   2.0000     -19.626128      -534.0541 
   2   2.0000     -19.589233      -533.0501 
   3   2.0000     -14.840150      -403.8210 
   4   2.0000     -10.683647      -290.7168 
   5   2.0000     -10.661192      -290.1058 
   6   2.0000     -10.639333      -289.5110 
   7   2.0000     -10.637659      -289.4654 
   8   2.0000     -10.635607      -289.4096 
   9   2.0000     -10.634700      -289.3849 
  10   2.0000     -10.633314      -289.3472 
  11   2.0000     -10.626839      -289.1710 
  12   2.0000     -10.616628      -288.8931 
  13   2.0000     -10.606322      -288.6127 
  14   2.0000     -10.578546      -287.8569 
  15   2.0000     -10.575687      -287.7791 
  16   2.0000     -10.557482      -287.2837 
  17   2.0000     -10.552304      -287.1428 
  18   2.0000     -10.534033      -286.6456 
  19   2.0000      -8.395804      -228.4614 
  20   2.0000      -6.285914      -171.0484 
  21   2.0000      -6.282290      -170.9498 
  22   2.0000      -6.280473      -170.9004 
  23   2.0000      -4.032292      -109.7242 
  24   2.0000      -2.351917       -63.9989 
  25   2.0000      -2.317303       -63.0570 
  26   2.0000      -2.315499       -63.0079 
  27   2.0000      -1.308206       -35.5981 
  28   2.0000      -1.213328       -33.0163 
  29   2.0000      -1.210775       -32.9469 
  30   2.0000      -1.176330       -32.0096 
  31   2.0000      -1.121144       -30.5079 
  32   2.0000      -1.025884       -27.9157 
  33   2.0000      -0.991274       -26.9739 
  34   2.0000      -0.981189       -26.6995 
  35   2.0000      -0.961487       -26.1634 
  36   2.0000      -0.955221       -25.9929 
  37   2.0000      -0.928615       -25.2689 
  38   2.0000      -0.903784       -24.5932 
  39   2.0000      -0.871693       -23.7200 
  40   2.0000      -0.796153       -21.6644 
  41   2.0000      -0.791963       -21.5504 
  42   2.0000      -0.790143       -21.5009 
  43   2.0000      -0.779321       -21.2064 
  44   2.0000      -0.773607       -21.0509 
  45   2.0000      -0.759075       -20.6555 
  46   2.0000      -0.744028       -20.2460 
  47   2.0000      -0.722624       -19.6636 
  48   2.0000      -0.694854       -18.9079 
  49   2.0000      -0.673672       -18.3316 
  50   2.0000      -0.664912       -18.0932 
  51   2.0000      -0.652503       -17.7555 
  52   2.0000      -0.650081       -17.6896 
  53   2.0000      -0.641698       -17.4615 
  54   2.0000      -0.638992       -17.3879 
  55   2.0000      -0.631674       -17.1887 
  56   2.0000      -0.624219       -16.9859 
  57   2.0000      -0.612293       -16.6613 
  58   2.0000      -0.611361       -16.6360 
  59   2.0000      -0.608098       -16.5472 
  60   2.0000      -0.595265       -16.1980 
  61   2.0000      -0.586052       -15.9473 
  62   2.0000      -0.574305       -15.6276 
  63   2.0000      -0.568437       -15.4680 
  64   2.0000      -0.562346       -15.3022 
  65   2.0000      -0.555020       -15.1029 
  66   2.0000      -0.552748       -15.0410 
  67   2.0000      -0.548505       -14.9256 
  68   2.0000      -0.539764       -14.6877 
  69   2.0000      -0.534046       -14.5321 
  70   2.0000      -0.527540       -14.3551 
  71   2.0000      -0.521972       -14.2036 
  72   2.0000      -0.516438       -14.0530 
  73   2.0000      -0.508856       -13.8467 
  74   2.0000      -0.491446       -13.3729 
  75   2.0000      -0.480722       -13.0811 
  76   2.0000      -0.462115       -12.5748 
  77   2.0000      -0.452627       -12.3166 
  78   2.0000      -0.441257       -12.0072 
  79   2.0000      -0.421440       -11.4680 
  80   2.0000      -0.416813       -11.3421 
  81   2.0000      -0.403449       -10.9784 
  82   0.0000      -0.200719        -5.4618 
  83   0.0000      -0.166553        -4.5321 
  84   0.0000      -0.141740        -3.8569 
  85   0.0000      -0.099349        -2.7034 
  86   0.0000      -0.076440        -2.0800 
  87   0.0000      -0.069504        -1.8913 
  88   0.0000      -0.058448        -1.5904 
  89   0.0000      -0.053489        -1.4555 
  90   0.0000      -0.043547        -1.1850 
  91   0.0000      -0.036650        -0.9973 
  92   0.0000      -0.005517        -0.1501 
  93   0.0000      -0.002865        -0.0780 
  94   0.0000       0.008887         0.2418 
  95   0.0000       0.021267         0.5787 
  96   0.0000       0.030305         0.8246 
  97   0.0000       0.036898         1.0041 
  98   0.0000       0.043659         1.1880 
  99   0.0000       0.054159         1.4737 
 100   0.0000       0.068078         1.8525 
 101   0.0000       0.070240         1.9113 
 102   0.0000       0.073159         1.9908 
 103   0.0000       0.076975         2.0946 
 104   0.0000       0.081727         2.2239 
 105   0.0000       0.087492         2.3808 
 106   0.0000       0.093055         2.5322 
 107   0.0000       0.100173         2.7259 
 108   0.0000       0.107766         2.9325 
 109   0.0000       0.113135         3.0786 
 110   0.0000       0.115135         3.1330 
 111   0.0000       0.119710         3.2575 
 112   0.0000       0.122751         3.3402 
 113   0.0000       0.125615         3.4182 
 114   0.0000       0.131289         3.5726 
 115   0.0000       0.137051         3.7293 
 116   0.0000       0.141603         3.8532 
 117   0.0000       0.151204         4.1145 
 118   0.0000       0.157211         4.2779 
 119   0.0000       0.158944         4.3251 
 120   0.0000       0.165966         4.5162 
 121   0.0000       0.176853         4.8124 
 122   0.0000       0.186949         5.0871 
 123   0.0000       0.202223         5.5028 
 124   0.0000       0.223272         6.0755 
 125   0.0000       0.231188         6.2910 
 126   0.0000       0.259857         7.0711 
 127   0.0000       0.272904         7.4261 
 128   0.0000       0.279487         7.6052 
 129   0.0000       0.295428         8.0390 
 130   0.0000       0.300400         8.1743 
 131   0.0000       0.310743         8.4557 
 132   0.0000       0.322273         8.7695 
 133   0.0000       0.339024         9.2253 
 134   0.0000       0.344057         9.3623 
 135   0.0000       0.358531         9.7561 
 136   0.0000       0.363435         9.8896 
 137   0.0000       0.373108        10.1528 
 138   0.0000       0.384359        10.4589 
 139   0.0000       0.396771        10.7967 
 140   0.0000       0.400613        10.9012 
 141   0.0000       0.416611        11.3366 
 142   0.0000       0.422702        11.5023 
 143   0.0000       0.436931        11.8895 
 144   0.0000       0.443769        12.0756 
 145   0.0000       0.448062        12.1924 
 146   0.0000       0.453626        12.3438 
 147   0.0000       0.459748        12.5104 
 148   0.0000       0.467633        12.7249 
 149   0.0000       0.475736        12.9454 
 150   0.0000       0.482212        13.1217 
 151   0.0000       0.487551        13.2669 
 152   0.0000       0.496250        13.5037 
 153   0.0000       0.500856        13.6290 
 154   0.0000       0.510245        13.8845 
 155   0.0000       0.515513        14.0278 
 156   0.0000       0.527207        14.3460 
 157   0.0000       0.534130        14.5344 
 158   0.0000       0.543020        14.7763 
 159   0.0000       0.549129        14.9426 
 160   0.0000       0.556897        15.1539 
 161   0.0000       0.566699        15.4207 
 162   0.0000       0.575061        15.6482 
 163   0.0000       0.581612        15.8265 
 164   0.0000       0.586006        15.9460 
 165   0.0000       0.597336        16.2543 
 166   0.0000       0.607120        16.5206 
[...]

----------------------
LOEWDIN ATOMIC CHARGES
----------------------
   0 Ir:   -0.203267
   1 C :   -0.039342
   2 C :   -0.052827
   3 C :   -0.043904
   4 C :   -0.052602
   5 C :   -0.027875
   6 N :   -0.012254
   7 C :   -0.068035
   8 C :   -0.364935
   9 H :    0.157497
  10 H :    0.134202
  11 H :    0.146791
  12 C :   -0.343635
  13 H :    0.155773
  14 H :    0.153216
  15 H :    0.137391
  16 H :    0.134128
  17 C :    0.037622
  18 C :   -0.197919
  19 H :    0.162440
  20 C :   -0.187186
  21 C :   -0.150023
  22 S :    0.450306
  23 C :   -0.261797
  24 H :    0.286981
  25 H :    0.160633
  26 H :    0.166728
  27 H :    0.186582
  28 H :    0.187042
  29 H :    0.194181
  30 O :   -0.277943
  31 O :   -0.207089
  32 C :    0.158270
  33 C :   -0.376150
  34 H :    0.159939
  35 H :    0.167363
  36 H :    0.153328
  37 H :    0.189056
  38 H :    0.187314

-------------------------------
LOEWDIN REDUCED ORBITAL CHARGES
-------------------------------
  0 Irs       :     2.456810  s :     2.456810
      pz      :     2.234818  p :     6.736167
      px      :     2.232537
      py      :     2.268812
      dz2     :     1.856217  d :     7.920884
      dxz     :     1.751894
      dyz     :     1.246648
      dx2y2   :     1.648473
      dxy     :     1.417652
      f0      :     0.011648  f :     0.089406
      f+1     :     0.003004
      f-1     :     0.012441
      f+2     :     0.017697
      f-2     :     0.016317
      f+3     :     0.011288
      f-3     :     0.017012
  1 C s       :     2.875625  s :     2.875625
      pz      :     1.047011  p :     3.059444
      px      :     1.088900
      py      :     0.923532
      dz2     :     0.026611  d :     0.104274
      dxz     :     0.027220
      dyz     :     0.017374
      dx2y2   :     0.018374
      dxy     :     0.014694
  2 C s       :     2.874910  s :     2.874910
      pz      :     1.046978  p :     3.074459
      px      :     1.074387
      py      :     0.953094
      dz2     :     0.025974  d :     0.103458
      dxz     :     0.027788
      dyz     :     0.017823
      dx2y2   :     0.018503
      dxy     :     0.013370
  3 C s       :     2.876144  s :     2.876144
      pz      :     1.037414  p :     3.065265
      px      :     1.075679
      py      :     0.952172
      dz2     :     0.024421  d :     0.102495
      dxz     :     0.032419
      dyz     :     0.016408
      dx2y2   :     0.014890
      dxy     :     0.014357
  4 C s       :     2.874606  s :     2.874606
      pz      :     1.094939  p :     3.075729
      px      :     1.034903
      py      :     0.945887
      dz2     :     0.022785  d :     0.102267
      dxz     :     0.032027
      dyz     :     0.012836
      dx2y2   :     0.017488
      dxy     :     0.017131
  5 C s       :     2.877130  s :     2.877130
      pz      :     1.067112  p :     3.046900
      px      :     1.032151
      py      :     0.947637
      dz2     :     0.025644  d :     0.103845
      dxz     :     0.030105
      dyz     :     0.015468
      dx2y2   :     0.015471
      dxy     :     0.017157
  6 N s       :     3.122424  s :     3.122424
      pz      :     1.273199  p :     3.791743
      px      :     1.289174
      py      :     1.229370
      dz2     :     0.029684  d :     0.098087
      dxz     :     0.027714
      dyz     :     0.018952
      dx2y2   :     0.011559
      dxy     :     0.010179
  7 C s       :     2.862103  s :     2.862103
      pz      :     1.062522  p :     3.071520
      px      :     0.935323
      py      :     1.073675
      dz2     :     0.022351  d :     0.134412
      dxz     :     0.028669
      dyz     :     0.021733
      dx2y2   :     0.028939
      dxy     :     0.032720
  8 C s       :     2.953149  s :     2.953149
      pz      :     1.127470  p :     3.344343
      px      :     1.123398
      py      :     1.093475
      dz2     :     0.010710  d :     0.067443
      dxz     :     0.018022
      dyz     :     0.012313
      dx2y2   :     0.008416
      dxy     :     0.017983
  9 H s       :     0.842503  s :     0.842503
 10 H s       :     0.865798  s :     0.865798
 11 H s       :     0.853209  s :     0.853209
 12 C s       :     2.952856  s :     2.952856
      pz      :     1.137402  p :     3.322883
      px      :     1.112936
      py      :     1.072546
      dz2     :     0.008675  d :     0.067895
      dxz     :     0.013353
      dyz     :     0.017792
      dx2y2   :     0.010734
      dxy     :     0.017341
 13 H s       :     0.844227  s :     0.844227
 14 H s       :     0.846784  s :     0.846784
 15 H s       :     0.862609  s :     0.862609
 16 H s       :     0.865872  s :     0.865872
 17 C s       :     2.879129  s :     2.879129
      pz      :     1.023982  p :     2.942115
      px      :     1.064177
      py      :     0.853956
      dz2     :     0.040843  d :     0.141135
      dxz     :     0.051665
      dyz     :     0.024328
      dx2y2   :     0.011675
      dxy     :     0.012624
 18 C s       :     2.897060  s :     2.897060
      pz      :     1.039144  p :     3.189604
      px      :     1.087445
      py      :     1.063015
      dz2     :     0.029436  d :     0.111255
      dxz     :     0.027738
      dyz     :     0.016547
      dx2y2   :     0.023083
      dxy     :     0.014451
 19 H s       :     0.837560  s :     0.837560
 20 C s       :     2.933518  s :     2.933518
      pz      :     1.088459  p :     3.165779
      px      :     1.042211
      py      :     1.035109
      dz2     :     0.010138  d :     0.087889
      dxz     :     0.031606
      dyz     :     0.008794
      dx2y2   :     0.016839
      dxy     :     0.020512
 21 C s       :     2.899510  s :     2.899510
      pz      :     1.061695  p :     3.156473
      px      :     1.091011
      py      :     1.003767
      dz2     :     0.023011  d :     0.094040
      dxz     :     0.026181
      dyz     :     0.014797
      dx2y2   :     0.018046
      dxy     :     0.012005
 22 S s       :     5.507428  s :     5.507428
      pz      :     3.300901  p :     9.890825
      px      :     3.085330
      py      :     3.504594
      dz2     :     0.037091  d :     0.151441
      dxz     :     0.029729
      dyz     :     0.025144
      dx2y2   :     0.034278
      dxy     :     0.025199
 23 C s       :     2.965722  s :     2.965722
      pz      :     1.113847  p :     3.209918
      px      :     1.022056
      py      :     1.074015
      dz2     :     0.019658  d :     0.086157
      dxz     :     0.025650
      dyz     :     0.012465
      dx2y2   :     0.015376
      dxy     :     0.013008
 24 H s       :     0.713019  s :     0.713019
 25 H s       :     0.839367  s :     0.839367
 26 H s       :     0.833272  s :     0.833272
 27 H s       :     0.813418  s :     0.813418
 28 H s       :     0.812958  s :     0.812958
 29 H s       :     0.805819  s :     0.805819
 30 O s       :     3.503343  s :     3.503343
      pz      :     1.459929  p :     4.719883
      px      :     1.526233
      py      :     1.733720
      dz2     :     0.017898  d :     0.054716
      dxz     :     0.012565
      dyz     :     0.017064
      dx2y2   :     0.003800
      dxy     :     0.003390
 31 O s       :     3.444837  s :     3.444837
      pz      :     1.697709  p :     4.703368
      px      :     1.627536
      py      :     1.378123
      dz2     :     0.009353  d :     0.058884
      dxz     :     0.003480
      dyz     :     0.016531
      dx2y2   :     0.015650
      dxy     :     0.013871
 32 C s       :     2.813291  s :     2.813291
      pz      :     1.006580  p :     2.705578
      px      :     0.749853
      py      :     0.949145
      dz2     :     0.077054  d :     0.322861
      dxz     :     0.044683
      dyz     :     0.109508
      dx2y2   :     0.044532
      dxy     :     0.047083
 33 C s       :     2.959749  s :     2.959749
      pz      :     1.095949  p :     3.353702
      px      :     1.149808
      py      :     1.107945
      dz2     :     0.006013  d :     0.062700
      dxz     :     0.017147
      dyz     :     0.019186
      dx2y2   :     0.018069
      dxy     :     0.002285
 34 H s       :     0.840061  s :     0.840061
 35 H s       :     0.832637  s :     0.832637
 36 H s       :     0.846672  s :     0.846672
 37 H s       :     0.810944  s :     0.810944
 38 H s       :     0.812686  s :     0.812686


                      *****************************
                      * MAYER POPULATION ANALYSIS *
                      *****************************

  NA   - Mulliken gross atomic population
  ZA   - Total nuclear charge
  QA   - Mulliken gross atomic charge
  VA   - Mayer's total valence
  BVA  - Mayer's bonded valence
  FA   - Mayer's free valence

  ATOM       NA         ZA         QA         VA         BVA        FA
  0 Ir    16.3755    17.0000     0.6245     3.7582     3.7582    -0.0000
  1 C      6.2076     6.0000    -0.2076     3.6934     3.6934     0.0000
  2 C      6.2977     6.0000    -0.2977     3.7433     3.7433     0.0000
  3 C      6.2291     6.0000    -0.2291     3.7270     3.7270    -0.0000
  4 C      6.2439     6.0000    -0.2439     3.7201     3.7201     0.0000
  5 C      6.1673     6.0000    -0.1673     3.6880     3.6880    -0.0000
  6 N      7.4309     7.0000    -0.4309     3.2157     3.2157    -0.0000
  7 C      6.1160     6.0000    -0.1160     3.6997     3.6997    -0.0000
  8 C      6.6955     6.0000    -0.6955     3.6877     3.6877     0.0000
  9 H      0.7271     1.0000     0.2729     0.8963     0.8963     0.0000
 10 H      0.7733     1.0000     0.2267     0.9091     0.9091     0.0000
 11 H      0.7396     1.0000     0.2604     0.8975     0.8975     0.0000
 12 C      6.6399     6.0000    -0.6399     3.6730     3.6730    -0.0000
 13 H      0.7202     1.0000     0.2798     0.8754     0.8754     0.0000
 14 H      0.7348     1.0000     0.2652     0.8963     0.8963     0.0000
 15 H      0.7689     1.0000     0.2311     0.9093     0.9093    -0.0000
 16 H      0.7677     1.0000     0.2323     0.9052     0.9052    -0.0000
 17 C      5.9335     6.0000     0.0665     3.6380     3.6380    -0.0000
 18 C      6.2272     6.0000    -0.2272     3.7096     3.7096     0.0000
 19 H      0.7087     1.0000     0.2913     0.8859     0.8859    -0.0000
 20 C      6.3846     6.0000    -0.3846     3.4441     3.4441    -0.0000
 21 C      6.1529     6.0000    -0.1529     3.7579     3.7579    -0.0000
 22 S     15.7121    16.0000     0.2879     2.5507     2.5507    -0.0000
 23 C      6.4258     6.0000    -0.4258     3.7415     3.7415    -0.0000
 24 H      0.5004     1.0000     0.4996     0.7325     0.7325     0.0000
 25 H      0.7357     1.0000     0.2643     0.9031     0.9031    -0.0000
 26 H      0.7049     1.0000     0.2951     0.8984     0.8984     0.0000
 27 H      0.7063     1.0000     0.2937     0.9009     0.9009    -0.0000
 28 H      0.7048     1.0000     0.2952     0.9035     0.9035    -0.0000
 29 H      0.6925     1.0000     0.3075     0.8915     0.8915    -0.0000
 30 O      8.4895     8.0000    -0.4895     2.0962     2.0962     0.0000
 31 O      8.5423     8.0000    -0.5423     2.0741     2.0741    -0.0000
 32 C      5.3829     6.0000     0.6171     3.9169     3.9169    -0.0000
 33 C      6.7464     6.0000    -0.7464     3.6675     3.6675    -0.0000
 34 H      0.7301     1.0000     0.2699     0.8952     0.8952    -0.0000
 35 H      0.7333     1.0000     0.2667     0.8953     0.8953     0.0000
 36 H      0.7467     1.0000     0.2533     0.9010     0.9010    -0.0000
 37 H      0.7020     1.0000     0.2980     0.8987     0.8987    -0.0000
 38 H      0.7023     1.0000     0.2977     0.9020     0.9020    -0.0000

  Mayer bond orders larger than 0.100000
B(  0-Ir,  1-C ) :   0.4235 B(  0-Ir,  2-C ) :   0.5633 B(  0-Ir,  3-C ) :   0.4636 
B(  0-Ir,  4-C ) :   0.4561 B(  0-Ir,  5-C ) :   0.4043 B(  0-Ir,  6-N ) :   0.4682 
B(  0-Ir, 20-C ) :   0.2034 B(  0-Ir, 31-O ) :   0.5865 B(  1-C ,  2-C ) :   1.1104 
B(  1-C ,  4-C ) :   1.2450 B(  1-C , 27-H ) :   0.9024 B(  2-C ,  5-C ) :   1.1263 
B(  2-C , 28-H ) :   0.9057 B(  3-C ,  4-C ) :   1.1032 B(  3-C ,  5-C ) :   1.2369 
B(  3-C , 37-H ) :   0.9017 B(  4-C , 38-H ) :   0.8970 B(  5-C , 29-H ) :   0.8975 
B(  6-N ,  7-C ) :   0.8908 B(  6-N , 17-C ) :   1.6944 B(  7-C ,  8-C ) :   0.9929 
B(  7-C , 12-C ) :   0.9697 B(  7-C , 13-H ) :   0.8726 B(  8-C ,  9-H ) :   0.9032 
B(  8-C , 10-H ) :   0.9122 B(  8-C , 11-H ) :   0.9081 B( 12-C , 14-H ) :   0.9062 
B( 12-C , 15-H ) :   0.9152 B( 12-C , 16-H ) :   0.9108 B( 17-C , 18-C ) :   1.0528 
B( 17-C , 19-H ) :   0.8737 B( 18-C , 20-C ) :   1.3141 B( 18-C , 22-S ) :   1.2032 
B( 20-C , 21-C ) :   1.2722 B( 20-C , 24-H ) :   0.4900 B( 21-C , 23-C ) :   1.5436 
B( 21-C , 25-H ) :   0.9048 B( 22-S , 23-C ) :   1.2040 B( 23-C , 26-H ) :   0.8932 
B( 24-H , 30-O ) :   0.2218 B( 30-O , 32-C ) :   1.6891 B( 31-O , 32-C ) :   1.2746 
B( 32-C , 33-C ) :   0.9478 B( 33-C , 34-H ) :   0.9049 B( 33-C , 35-H ) :   0.8983 
B( 33-C , 36-H ) :   0.9093 


------------------
HIRSHFELD ANALYSIS
------------------

Total integrated alpha density =     82.000277708
Total integrated beta density  =     82.000277708

  ATOM     CHARGE      SPIN    
   0 Ir   0.213184    0.000000
   1 C    0.008312    0.000000
   2 C    0.005641    0.000000
   3 C    0.006901    0.000000
   4 C   -0.001732    0.000000
   5 C    0.017802    0.000000
   6 N   -0.069999    0.000000
   7 C    0.054235    0.000000
   8 C   -0.070747    0.000000
   9 H    0.054089    0.000000
  10 H    0.038172    0.000000
  11 H    0.044005    0.000000
  12 C   -0.070406    0.000000
  13 H    0.046939    0.000000
  14 H    0.051697    0.000000
  15 H    0.036691    0.000000
  16 H    0.030408    0.000000
  17 C    0.102282    0.000000
  18 C   -0.013050    0.000000
  19 H    0.077518    0.000000
  20 C   -0.066905    0.000000
  21 C   -0.038826    0.000000
  22 S    0.109162    0.000000
  23 C   -0.027796    0.000000
  24 H    0.059153    0.000000
  25 H    0.067654    0.000000
  26 H    0.076547    0.000000
  27 H    0.085134    0.000000
  28 H    0.086919    0.000000
  29 H    0.095407    0.000000
  30 O   -0.252308    0.000000
  31 O   -0.259154    0.000000
  32 C    0.243835    0.000000
  33 C   -0.067987    0.000000
  34 H    0.054412    0.000000
  35 H    0.059322    0.000000
  36 H    0.048281    0.000000
  37 H    0.087378    0.000000
  38 H    0.077276    0.000000

  TOTAL   0.999445    0.000000

-------
TIMINGS
-------

Total SCF time: 0 days 0 hours 3 min 56 sec 

Total time                  ....     236.440 sec
Sum of individual times     ....     235.928 sec  ( 99.8%)

Fock matrix formation       ....     228.925 sec  ( 96.8%)
  Split-RI-J                ....      18.423 sec  (  8.0% of F)
  Chain of spheres X        ....     199.493 sec  ( 87.1% of F)
  XC integration            ....      10.997 sec  (  4.8% of F)
    Basis function eval.    ....       5.017 sec  ( 45.6% of XC)
    Density eval.           ....       2.865 sec  ( 26.1% of XC)
    XC-Functional eval.     ....       0.799 sec  (  7.3% of XC)
    XC-Potential eval.      ....       1.873 sec  ( 17.0% of XC)
Diagonalization             ....       0.164 sec  (  0.1%)
Density matrix formation    ....       0.027 sec  (  0.0%)
Population analysis         ....       1.088 sec  (  0.5%)
Initial guess               ....       0.023 sec  (  0.0%)
Orbital Transformation      ....       0.000 sec  (  0.0%)
Orbital Orthonormalization  ....       0.017 sec  (  0.0%)
DIIS solution               ....       0.067 sec  (  0.0%)
Grid generation             ....       5.634 sec  (  2.4%)

Maximum memory used throughout the entire SCF-calculation: 173.3 MB


-------------------------------------------------------------------------------
                          DFT DISPERSION CORRECTION                            
                                                                               
                              DFTD3 V3.1  Rev 1                                
                          USING Becke-Johnson damping                          
-------------------------------------------------------------------------------
The PBEh-3c composite method is recognized
Using three-body term ABC
Active option DFTDOPT                   ...         4   

molecular C6(AA) [au] = 19602.207153 


            DFT-D V3
 parameters
 s6 scaling factor         :     1.0000 
 a1 scaling factor         :     0.4860 
 s8 scaling factor         :     0.0000 
 a2 scaling factor         :     4.5000 
 Damping factor alpha9(ATM):    16.0000 
 ad hoc parameters k1-k3   :    16.0000     1.3333    -4.0000 

 Edisp/kcal,au: -19.327468431114  -0.030800278192 
 E6   /kcal   : -19.676437653 
 E8   /kcal   :  -0.000000000 
 E6(ABC)      :   0.348969221 
 % E8         :   0.000000000 
 % E6(ABC)    :  -1.805560944 

-------------------------   ----------------
Dispersion correction           -0.030800278
-------------------------   ----------------

 ** NOTE ** -> element ir will be treated as co
NOTIFICATION: Different basis set in ORCA and otool_gcp:
ORCA: 358  gCP: 357 
If you are NOT using ECPs, check your basis set inputs!
------------------   -----------------
gCP correction             0.076715711
------------------   -----------------

-------------------------   --------------------
FINAL SINGLE POINT ENERGY     -1288.392818695801
-------------------------   --------------------

                                *** OPTIMIZATION RUN DONE ***

                            ***************************************
                            *     ORCA property calculations      *
                            ***************************************

                                    ---------------------
                                    Active property flags
                                    ---------------------
   (+) Dipole Moment


------------------------------------------------------------------------------
                       ORCA ELECTRIC PROPERTIES CALCULATION
------------------------------------------------------------------------------

Dipole Moment Calculation                       ... on
Quadrupole Moment Calculation                   ... off
Polarizability Calculation                      ... off
GBWName                                         ... reaction4-IEIP_ts_guess_scan_0-9_orca.gbw
Electron density                                ... reaction4-IEIP_ts_guess_scan_0-9_orca.scfp
The origin for moment calculation is the CENTER OF MASS  = ( 0.832304, -0.650986 -0.092502)

-------------
DIPOLE MOMENT
-------------
                                X             Y             Z
Electronic contribution:     32.66809     -69.11412      77.48118
Nuclear contribution   :    -33.30771      67.87416     -77.58567
                        -----------------------------------------
Total Dipole Moment    :     -0.63963      -1.23996      -0.10449
                        -----------------------------------------
Magnitude (a.u.)       :      1.39912
Magnitude (Debye)      :      3.55628



--------------------
Rotational spectrum 
--------------------
 
Rotational constants in cm-1:     0.010662     0.008988     0.008205 
Rotational constants in MHz :   319.628652   269.456368   245.988071 

 Dipole components along the rotational axes: 
x,y,z [a.u.] :    -0.067941    -0.576003     1.273242 
x,y,z [Debye]:    -0.172691    -1.464082     3.236324 

 

Timings for individual modules:

Sum of individual times         ...     4182.377 sec (=  69.706 min)
GTO integral calculation        ...       12.814 sec (=   0.214 min)   0.3 %
SCF iterations                  ...     3395.189 sec (=  56.586 min)  81.2 %
SCF Gradient evaluation         ...      772.587 sec (=  12.876 min)  18.5 %
Geometry relaxation             ...        1.788 sec (=   0.030 min)   0.0 %
                             ****ORCA TERMINATED NORMALLY****
TOTAL RUN TIME: 0 days 1 hours 9 minutes 45 seconds 291 msec
