
                                 *****************
                                 * O   R   C   A *
                                 *****************

                                            #,                                       
                                            ###                                      
                                            ####                                     
                                            #####                                    
                                            ######                                   
                                           ########,                                 
                                     ,,################,,,,,                         
                               ,,#################################,,                 
                          ,,##########################################,,             
                       ,#########################################, ''#####,          
                    ,#############################################,,   '####,        
                  ,##################################################,,,,####,       
                ,###########''''           ''''###############################       
              ,#####''   ,,,,##########,,,,          '''####'''          '####       
            ,##' ,,,,###########################,,,                        '##       
           ' ,,###''''                  '''############,,,                           
         ,,##''                                '''############,,,,        ,,,,,,###''
      ,#''                                            '''#######################'''  
     '                                                          ''''####''''         
             ,#######,   #######,   ,#######,      ##                                
            ,#'     '#,  ##    ##  ,#'     '#,    #''#        ######   ,####,        
            ##       ##  ##   ,#'  ##            #'  '#       #        #'  '#        
            ##       ##  #######   ##           ,######,      #####,   #    #        
            '#,     ,#'  ##    ##  '#,     ,#' ,#      #,         ##   #,  ,#        
             '#######'   ##     ##  '#######'  #'      '#     #####' # '####'        



                  #######################################################
                  #                        -***-                        #
                  #          Department of theory and spectroscopy      #
                  #    Directorship and core code : Frank Neese         #
                  #        Max Planck Institute fuer Kohlenforschung    #
                  #                Kaiser Wilhelm Platz 1               #
                  #                 D-45470 Muelheim/Ruhr               #
                  #                      Germany                        #
                  #                                                     #
                  #                  All rights reserved                #
                  #                        -***-                        #
                  #######################################################


                         Program Version 5.0.3 -  RELEASE  -


 With contributions from (in alphabetic order):
   Daniel Aravena         : Magnetic Suceptibility
   Michael Atanasov       : Ab Initio Ligand Field Theory (pilot matlab implementation)
   Alexander A. Auer      : GIAO ZORA, VPT2 properties, NMR spectrum
   Ute Becker             : Parallelization
   Giovanni Bistoni       : ED, misc. LED, open-shell LED, HFLD
   Martin Brehm           : Molecular dynamics
   Dmytro Bykov           : SCF Hessian
   Vijay G. Chilkuri      : MRCI spin determinant printing, contributions to CSF-ICE
   Dipayan Datta          : RHF DLPNO-CCSD density
   Achintya Kumar Dutta   : EOM-CC, STEOM-CC
   Dmitry Ganyushin       : Spin-Orbit,Spin-Spin,Magnetic field MRCI
   Miquel Garcia          : C-PCM and meta-GGA Hessian, CC/C-PCM, Gaussian charge scheme
   Yang Guo               : DLPNO-NEVPT2, F12-NEVPT2, CIM, IAO-localization
   Andreas Hansen         : Spin unrestricted coupled pair/coupled cluster methods
   Benjamin Helmich-Paris : MC-RPA, TRAH-SCF, COSX integrals
   Lee Huntington         : MR-EOM, pCC
   Robert Izsak           : Overlap fitted RIJCOSX, COSX-SCS-MP3, EOM
   Marcus Kettner         : VPT2
   Christian Kollmar      : KDIIS, OOCD, Brueckner-CCSD(T), CCSD density, CASPT2, CASPT2-K
   Simone Kossmann        : Meta GGA functionals, TD-DFT gradient, OOMP2, MP2 Hessian
   Martin Krupicka        : Initial AUTO-CI
   Lucas Lang             : DCDCAS
   Marvin Lechner         : AUTO-CI (C++ implementation), FIC-MRCC
   Dagmar Lenk            : GEPOL surface, SMD
   Dimitrios Liakos       : Extrapolation schemes; Compound Job, initial MDCI parallelization
   Dimitrios Manganas     : Further ROCIS development; embedding schemes
   Dimitrios Pantazis     : SARC Basis sets
   Anastasios Papadopoulos: AUTO-CI, single reference methods and gradients
   Taras Petrenko         : DFT Hessian,TD-DFT gradient, ASA, ECA, R-Raman, ABS, FL, XAS/XES, NRVS
   Peter Pinski           : DLPNO-MP2, DLPNO-MP2 Gradient
   Christoph Reimann      : Effective Core Potentials
   Marius Retegan         : Local ZFS, SOC
   Christoph Riplinger    : Optimizer, TS searches, QM/MM, DLPNO-CCSD(T), (RO)-DLPNO pert. Triples
   Tobias Risthaus        : Range-separated hybrids, TD-DFT gradient, RPA, STAB
   Michael Roemelt        : Original ROCIS implementation
   Masaaki Saitow         : Open-shell DLPNO-CCSD energy and density
   Barbara Sandhoefer     : DKH picture change effects
   Avijit Sen             : IP-ROCIS
   Kantharuban Sivalingam : CASSCF convergence, NEVPT2, FIC-MRCI
   Bernardo de Souza      : ESD, SOC TD-DFT
   Georgi Stoychev        : AutoAux, RI-MP2 NMR, DLPNO-MP2 response
   Willem Van den Heuvel  : Paramagnetic NMR
   Boris Wezisla          : Elementary symmetry handling
   Frank Wennmohs         : Technical directorship


 We gratefully acknowledge several colleagues who have allowed us to
 interface, adapt or use parts of their codes:
   Stefan Grimme, W. Hujo, H. Kruse, P. Pracht,  : VdW corrections, initial TS optimization,
                  C. Bannwarth, S. Ehlert          DFT functionals, gCP, sTDA/sTD-DF
   Ed Valeev, F. Pavosevic, A. Kumar             : LibInt (2-el integral package), F12 methods
   Garnet Chan, S. Sharma, J. Yang, R. Olivares  : DMRG
   Ulf Ekstrom                                   : XCFun DFT Library
   Mihaly Kallay                                 : mrcc  (arbitrary order and MRCC methods)
   Jiri Pittner, Ondrej Demel                    : Mk-CCSD
   Frank Weinhold                                : gennbo (NPA and NBO analysis)
   Christopher J. Cramer and Donald G. Truhlar   : smd solvation model
   Lars Goerigk                                  : TD-DFT with DH, B97 family of functionals
   V. Asgeirsson, H. Jonsson                     : NEB implementation
   FAccTs GmbH                                   : IRC, NEB, NEB-TS, DLPNO-Multilevel, CI-OPT
                                                   MM, QMMM, 2- and 3-layer-ONIOM, Crystal-QMMM,
                                                   LR-CPCM, SF, NACMEs, symmetry and pop. for TD-DFT,
                                                   nearIR, NL-DFT gradient (VV10), updates on ESD,
                                                   ML-optimized integration grids
   S Lehtola, MJT Oliveira, MAL Marques          : LibXC Library
   Liviu Ungur et al                             : ANISO software


 Your calculation uses the libint2 library for the computation of 2-el integrals
 For citations please refer to: http://libint.valeyev.net

 Your ORCA version has been built with support for libXC version: 5.1.0
 For citations please refer to: https://tddft.org/programs/libxc/

 This ORCA versions uses:
   CBLAS   interface :  Fast vector & matrix operations
   LAPACKE interface :  Fast linear algebra routines
   SCALAPACK package :  Parallel linear algebra routines
   Shared memory     :  Shared parallel matrices
   BLAS/LAPACK       :  OpenBLAS 0.3.15  USE64BITINT DYNAMIC_ARCH NO_AFFINITY SkylakeX SINGLE_THREADED
        Core in use  :  SkylakeX
   Copyright (c) 2011-2014, The OpenBLAS Project


Your calculation utilizes the geometrical counterpoise correction gCP
Please cite in your paper:
H.Kruse, S. Grimme J.Chem.Phys., 136, (2012), 154101 
   

Your calculation utilizes the atom-pairwise dispersion correction
with the Becke-Johnson damping scheme (D3BJ)
Cite in your paper:
S.Grimme, S.Ehrlich, L.Goerigk, J Comput Chem, (2011), 32, 1456–1465 
S.Grimme, J.Antony, S.Ehrlich and H.Krieg, J.Chem.Phys., 132, (2010), 154104 
   

Your calculation employs the composite approach PBEh-3c.
Please cite in your paper:
S. Grimme, J. G. Brandenburg, C. Bannwarth, A. Hansen J.Chem.Phys., 143, (2015), 054107 
   

================================================================================

cite the ECPs for Ir [Def2-ECP] as follows:
Ce-Yb(ecp-28): M. Dolg, H. Stoll, H.Preuss, J. Chem. Phys., 1989, 90, 1730-1734.
Y-Cd(ecp-28), Hf-Hg(ecp-46): D. Andrae,U. Haeussermann, M. Dolg, H. Stoll, H. Preuss, Theor. Chim. Acta, 1990, 77, 123-141.
In-Sb(ecp-28), Tl-Bi(ecp-46): B. Metz, H. Stoll, M. Dolg, J. Chem. Phys., 2000, 113, 2563-2569.
Te-Xe(ecp-28), Po-Rn(ecp-46): K. A. Peterson, D. Figgen, E. Goll, H. Stoll, M. Dolg, J. Chem. Phys., 2003, 119, 11113-11123.
Rb(ecp-28), Cs(ecp-46): T. Leininger, A. Nicklass, W. Kuechle, H. Stoll, M. Dolg, A. Bergner, Chem. Phys. Lett., 1996, 255, 274-280.
Sr(ecp-28), Ba(ecp-46): M. Kaupp, P. V. Schleyer, H. Stoll and H. Preuss, J. Chem. Phys., 1991, 94, 1360-1366.
La(ecp-46): M. Dolg, H. Stoll, A. Savin, H. Preuss, Theor. Chim. Acta, 1989, 75, 173-194.
Lu(ecp-28): X. Cao, M. Dolg, J. Chem. Phys., 2001, 115, 7348-7355.

ECP parameters for Ir [Def2-ECP] have been obtained from:
TURBOMOLE (7.0.2)

----- Orbital basis set information -----
Your calculation utilizes the basis: def2-mSVP

----- AuxJ basis set information -----
Your calculation utilizes the auxiliary basis: def2/J
   F. Weigend, Phys. Chem. Chem. Phys. 8, 1057 (2006).

================================================================================
                                        WARNINGS
                       Please study these warnings very carefully!
================================================================================


WARNING: Geometry Optimization
  ===> : Switching off AutoStart
         For restart on a previous wavefunction, please use MOREAD

WARNING: No Hueckel Guess possible with ECP basis!
  ===> : Switching to HCORE guess!

INFO   : the flag for use of the SHARK integral package has been found!

================================================================================
                                       INPUT FILE
================================================================================
NAME = reaction4-IEIP_ts_guess_scan_13-11_orca.inp
|  1> ! Opt PBEh-3c
|  2> %geom Constraints
|  3> { B 0 20 2.0428571428571427 C }
|  4> { B 24 30 1.342857142857143 C }
|  5>     end
|  6> end
|  7> %output 
|  8> xyzfile=True 
|  9> end 
| 10> %scf 
| 11> maxiter 250 
| 12> end
| 13> %output
| 14> Print[P_Hirshfeld] = 1
| 15> end
| 16> % maxcore
| 17> 4000
| 18> *xyz 1 1
| 19> Ir   0.61384160  -0.73881194   0.41286404 
| 20> C    0.15667361  -2.85405357   0.33645750 
| 21> C   -0.10239921  -2.41129558   1.68304686 
| 22> C    2.13741024  -2.05985225   1.22214327 
| 23> C    1.53223043  -2.66164852   0.06920937 
| 24> C    1.11769454  -1.94085304   2.21177604 
| 25> N   -1.07595281   0.10742232  -0.50827940 
| 26> C   -2.34770800   0.29120422   0.20669162 
| 27> C   -3.13870213   1.50864191  -0.25038937 
| 28> H   -3.97018420   1.66540100   0.43487840 
| 29> H   -3.57261235   1.38539660  -1.24359298 
| 30> H   -2.53226548   2.41462974  -0.24228222 
| 31> C   -3.17512760  -0.98491523   0.09871636 
| 32> H   -2.06751140   0.44251155   1.25029358 
| 33> H   -4.07883120  -0.89466585   0.70014910 
| 34> H   -3.47760691  -1.17030717  -0.93272274 
| 35> H   -2.62961252  -1.85776770   0.45373327 
| 36> C   -0.92822483   0.47946326  -1.72723375 
| 37> C    0.38733892   0.31027117  -2.26294991 
| 38> H   -1.73847746   0.92030769  -2.29872321 
| 39> C    1.41102973   0.02079262  -1.35849031 
| 40> C    2.63075605  -0.19726685  -2.07290413 
| 41> S    0.89433112   0.34373747  -3.88164175 
| 42> C    2.49551738  -0.04894835  -3.42028842 
| 43> H    1.63266127   1.16228548  -0.66768186 
| 44> H    3.58139408  -0.39769505  -1.59998199 
| 45> H    3.26439310  -0.13150935  -4.17346291 
| 46> H   -0.55861477  -3.30098571  -0.33836931 
| 47> H   -1.04234776  -2.46643905   2.21036907 
| 48> H    1.24526207  -1.49372467   3.18751175 
| 49> O    1.75026838   2.30256314   0.05879742 
| 50> O    0.59398721   1.04058111   1.48157720 
| 51> C    1.16013404   2.12266352   1.14767356 
| 52> C    1.13978999   3.24746444   2.13916992 
| 53> H    1.01887257   4.20290738   1.63375501 
| 54> H    2.09894730   3.27694935   2.65903804 
| 55> H    0.35557573   3.11282948   2.87854395 
| 56> H    3.18334477  -1.83143798   1.35618424 
| 57> H    2.03409448  -2.91665563  -0.85284535 
| 58> *
| 59> 
| 60>                          ****END OF INPUT****
================================================================================

                       *****************************
                       * Geometry Optimization Run *
                       *****************************

Geometry optimization settings:
Update method            Update   .... BFGS
Choice of coordinates    CoordSys .... Z-matrix Internals
Initial Hessian          InHess   .... Almoef's Model

Convergence Tolerances:
Energy Change            TolE     ....  5.0000e-06 Eh
Max. Gradient            TolMAXG  ....  3.0000e-04 Eh/bohr
RMS Gradient             TolRMSG  ....  1.0000e-04 Eh/bohr
Max. Displacement        TolMAXD  ....  4.0000e-03 bohr
RMS Displacement         TolRMSD  ....  2.0000e-03 bohr
Strict Convergence                ....  False
------------------------------------------------------------------------------
                        ORCA OPTIMIZATION COORDINATE SETUP
------------------------------------------------------------------------------

The optimization will be done in new redundant internal coordinates
Making redundant internal coordinates   ...  (new redundants) done
Evaluating the initial hessian          ...  (Almloef) done
Evaluating the coordinates              ...  done
Calculating the B-matrix                .... done
Calculating the G-matrix                .... done
Diagonalizing the G-matrix              .... done
Imposing constraints:
 Iter   0:  RMS(Cart)=    0.0165970780 RMS(Int)=    0.0106594836
 Iter   1:  RMS(Cart)=    0.0029709231 RMS(Int)=    0.0020475287
 Iter   2:  RMS(Cart)=    0.0005697235 RMS(Int)=    0.0003970752
 Iter   3:  RMS(Cart)=    0.0001103633 RMS(Int)=    0.0000771126
 Iter   4:  RMS(Cart)=    0.0000214239 RMS(Int)=    0.0000149798
 Iter   5:  RMS(Cart)=    0.0000041612 RMS(Int)=    0.0000029102
 Iter   6:  RMS(Cart)=    0.0000008084 RMS(Int)=    0.0000005654
 Iter   7:  RMS(Cart)=    0.0000001570 RMS(Int)=    0.0000001098
 Iter   8:  RMS(Cart)=    0.0000000305 RMS(Int)=    0.0000000213
CONVERGED
Small eigenvalue found = 1.445e-02
Small eigenvalue found = 2.369e-02
The first mode is                       ....  288
The number of degrees of freedom        ....  111
Storing new coordinates                 .... done

    -----------------------------------------------------------------
                    Redundant Internal Coordinates


    -----------------------------------------------------------------
         Definition                    Initial Value    Approx d2E/dq
    -----------------------------------------------------------------
      1. B(C   1,Ir  0)                  2.1651         0.084244   
      2. B(C   2,Ir  0)                  2.2185         0.069217   
      3. B(C   2,C   1)                  1.4412         0.518066   
      4. B(C   3,Ir  0)                  2.1725         0.081974   
      5. B(C   4,C   3)                  1.4342         0.530659   
      6. B(C   4,Ir  0)                  2.1582         0.086437   
      7. B(C   4,C   1)                  1.4151         0.571176   
      8. B(C   5,Ir  0)                  2.2208         0.068574   
      9. B(C   5,C   2)                  1.4118         0.579480   
     10. B(C   5,C   3)                  1.4274         0.547484   
     11. B(N   6,Ir  0)                  2.1027         0.095118   
     12. B(C   7,N   6)                  1.4705         0.416361   
     13. B(C   8,C   7)                  1.5221         0.384594   
     14. B(H   9,C   8)                  1.0888         0.361665   
     15. B(H  10,C   8)                  1.0908         0.358997   
     16. B(H  11,C   8)                  1.0903         0.359769   
     17. B(C  12,C   7)                  1.5247         0.380895   
     18. B(H  13,C   7)                  1.0911         0.358642   
     19. B(H  14,C  12)                  1.0893         0.361044   
     20. B(H  15,C  12)                  1.0908         0.359112   
     21. B(H  16,C  12)                  1.0888         0.361685   
     22. B(C  17,N   6)                  1.2772         0.829064   
     23. B(C  18,C  17)                  1.4251         0.538426   
     24. B(H  19,C  17)                  1.0851         0.366634   
     25. B(C  20,Ir  0)                  2.0429         0.112907 C 
     26. B(C  20,C  18)                  1.3977         0.610395   
     27. B(C  21,C  20)                  1.4308         0.538880   
     28. B(S  22,C  18)                  1.6965         0.546268   
     29. B(C  23,C  21)                  1.3621         0.691843   
     30. B(C  23,S  22)                  1.7114         0.516204   
     31. B(H  24,C  20)                  1.3527         0.137268   
     32. B(H  25,C  21)                  1.0806         0.372852   
     33. B(H  26,C  23)                  1.0795         0.374301   
     34. B(H  27,C   1)                  1.0802         0.373335   
     35. B(H  28,C   2)                  1.0792         0.374712   
     36. B(H  29,C   5)                  1.0809         0.372397   
     37. B(O  30,H  24)                  1.3429         0.120879 C 
     38. B(O  31,Ir  0)                  2.0759         0.104891   
     39. B(C  32,O  30)                  1.2483         0.930743   
     40. B(C  32,O  31)                  1.2634         0.882284   
     41. B(C  33,C  32)                  1.4996         0.417787   
     42. B(H  34,C  33)                  1.0876         0.363250   
     43. B(H  35,C  33)                  1.0914         0.358276   
     44. B(H  36,C  33)                  1.0862         0.365186   
     45. B(H  37,C   3)                  1.0789         0.375027   
     46. B(H  38,C   4)                  1.0803         0.373142   
     47. A(C   3,Ir  0,C  20)          105.4748         0.255871   
     48. A(C   2,Ir  0,N   6)          107.0256         0.242385   
     49. A(C   5,Ir  0,C  20)          142.8302         0.249264   
     50. A(C   2,Ir  0,C   5)           37.0861         0.232462   
     51. A(N   6,Ir  0,O  31)           82.7118         0.256311   
     52. A(N   6,Ir  0,C  20)           77.9874         0.260349   
     53. A(C   4,Ir  0,C   5)           63.3230         0.239861   
     54. A(C   1,Ir  0,C   4)           38.2136         0.247054   
     55. A(C   5,Ir  0,O  31)           92.7477         0.245487   
     56. A(C   3,Ir  0,C   4)           38.6779         0.246080   
     57. A(C   1,Ir  0,O  31)          148.5438         0.252949   
     58. A(C   1,Ir  0,N   6)          101.9335         0.249360   
     59. A(C   4,Ir  0,N   6)          129.0894         0.250295   
     60. A(C   2,Ir  0,C   3)           63.6407         0.238377   
     61. A(C   3,Ir  0,O  31)          109.6383         0.251939   
     62. A(C   1,Ir  0,C   2)           38.3649         0.239303   
     63. A(C   4,Ir  0,C  20)           91.3646         0.257886   
     64. A(C   2,Ir  0,C  20)          152.0374         0.249603   
     65. A(C   1,Ir  0,C  20)          113.8806         0.256906   
     66. A(C   1,Ir  0,C   3)           64.3951         0.245169   
     67. A(C   1,Ir  0,C   5)           63.1635         0.238986   
     68. A(C   2,Ir  0,O  31)          110.3205         0.245818   
     69. A(C   5,Ir  0,N   6)          138.9345         0.242061   
     70. A(C   2,Ir  0,C   4)           63.7524         0.240180   
     71. A(C   4,Ir  0,O  31)          148.1797         0.253906   
     72. A(C   3,Ir  0,C   5)           37.8998         0.238061   
     73. A(C   3,Ir  0,N   6)          166.2457         0.248371   
     74. A(C  20,Ir  0,O  31)           97.5508         0.264184   
     75. A(C   2,C   1,H  27)          126.2772         0.344474   
     76. A(C   4,C   1,H  27)          125.5966         0.350180   
     77. A(Ir  0,C   1,C   2)           72.8228         0.312581   
     78. A(Ir  0,C   1,H  27)          124.4871         0.268552   
     79. A(C   2,C   1,C   4)          108.0628         0.414225   
     80. A(Ir  0,C   1,C   4)           70.6297         0.317575   
     81. A(Ir  0,C   2,C   1)           68.8123         0.302857   
     82. A(C   1,C   2,C   5)          107.2696         0.415289   
     83. A(Ir  0,C   2,H  28)          126.8384         0.260886   
     84. A(C   5,C   2,H  28)          125.9905         0.351253   
     85. A(Ir  0,C   2,C   5)           71.5471         0.308349   
     86. A(C   1,C   2,H  28)          126.6906         0.344687   
     87. A(C   4,C   3,H  37)          126.6897         0.346129   
     88. A(C   5,C   3,H  37)          126.1273         0.347952   
     89. A(C   4,C   3,C   5)          106.9218         0.412877   
     90. A(Ir  0,C   3,C   4)           70.1226         0.312414   
     91. A(Ir  0,C   3,C   5)           72.8857         0.313998   
     92. A(Ir  0,C   3,H  37)          126.6911         0.267629   
     93. A(Ir  0,C   4,C   1)           71.1567         0.318909   
     94. A(C   3,C   4,H  38)          126.0622         0.345836   
     95. A(Ir  0,C   4,C   3)           71.1995         0.315111   
     96. A(Ir  0,C   4,H  38)          122.9628         0.269579   
     97. A(C   1,C   4,H  38)          125.5201         0.350149   
     98. A(C   1,C   4,C   3)          108.4144         0.415998   
     99. A(Ir  0,C   5,H  29)          122.2812         0.260283   
    100. A(C   2,C   5,H  29)          125.3516         0.350885   
    101. A(C   3,C   5,H  29)          125.2274         0.347540   
    102. A(Ir  0,C   5,C   3)           69.2145         0.305090   
    103. A(C   2,C   5,C   3)          109.2816         0.419394   
    104. A(Ir  0,C   5,C   2)           71.3667         0.307886   
    105. A(Ir  0,N   6,C  17)          115.9999         0.340698   
    106. A(C   7,N   6,C  17)          121.7570         0.420245   
    107. A(Ir  0,N   6,C   7)          122.2308         0.304367   
    108. A(C   8,C   7,H  13)          108.0450         0.325655   
    109. A(C  12,C   7,H  13)          108.8536         0.325138   
    110. A(N   6,C   7,C   8)          113.7910         0.369695   
    111. A(N   6,C   7,C  12)          109.2869         0.369082   
    112. A(C   8,C   7,C  12)          111.4787         0.366378   
    113. A(N   6,C   7,H  13)          105.0869         0.327962   
    114. A(C   7,C   8,H   9)          108.8451         0.326105   
    115. A(C   7,C   8,H  10)          112.9403         0.325708   
    116. A(H   9,C   8,H  10)          106.5911         0.290897   
    117. A(C   7,C   8,H  11)          111.9235         0.325823   
    118. A(H   9,C   8,H  11)          107.4850         0.290996   
    119. A(H  10,C   8,H  11)          108.7786         0.290657   
    120. A(C   7,C  12,H  14)          109.9850         0.325495   
    121. A(C   7,C  12,H  15)          111.0822         0.325208   
    122. A(H  14,C  12,H  15)          107.8260         0.290834   
    123. A(C   7,C  12,H  16)          112.0844         0.325590   
    124. A(H  14,C  12,H  16)          107.5809         0.291160   
    125. A(H  15,C  12,H  16)          108.1206         0.290915   
    126. A(N   6,C  17,C  18)          114.6088         0.443005   
    127. A(N   6,C  17,H  19)          122.4989         0.369670   
    128. A(C  18,C  17,H  19)          122.8675         0.345658   
    129. A(C  17,C  18,S  22)          128.9195         0.436581   
    130. A(C  20,C  18,S  22)          113.8623         0.446592   
    131. A(C  17,C  18,C  20)          117.1578         0.422043   
    132. A(C  18,C  20,C  21)          109.2778         0.422107   
    133. A(Ir  0,C  20,H  24)           86.7005         0.241977   
    134. A(C  18,C  20,H  24)          105.9529         0.300406   
    135. A(C  21,C  20,H  24)          103.9261         0.294527   
    136. A(Ir  0,C  20,C  18)          110.7976         0.336938   
    137. A(Ir  0,C  20,C  21)          133.5586         0.330042   
    138. A(C  20,C  21,C  23)          113.2434         0.431685   
    139. A(C  20,C  21,H  25)          123.9978         0.346686   
    140. A(C  23,C  21,H  25)          122.6515         0.361679   
    141. A(C  18,S  22,C  23)           91.0037         0.457451   
    142. A(C  21,C  23,S  22)          112.6036         0.452192   
    143. A(C  21,C  23,H  26)          127.6674         0.361919   
    144. A(S  22,C  23,H  26)          119.7153         0.362346   
    145. L(C  20,H  24,O  30,Ir  0, 1) 177.4461         0.214260   
    146. L(C  20,H  24,O  30,Ir  0, 2) 183.9964         0.214260   
    147. A(H  24,O  30,C  32)          107.2997         0.310518   
    148. A(Ir  0,O  31,C  32)          126.1901         0.349982   
    149. A(O  30,C  32,O  31)          123.8228         0.492031   
    150. A(O  30,C  32,C  33)          118.5098         0.432120   
    151. A(O  31,C  32,C  33)          117.6544         0.427992   
    152. A(C  32,C  33,H  34)          110.6822         0.330829   
    153. A(C  32,C  33,H  35)          108.8622         0.330075   
    154. A(H  34,C  33,H  35)          107.1769         0.291005   
    155. A(C  32,C  33,H  36)          111.5247         0.331120   
    156. A(H  34,C  33,H  36)          110.1783         0.291881   
    157. A(H  35,C  33,H  36)          108.2774         0.291249   
    158. D(C   4,C   1,Ir  0,C   5)    -80.1680         0.001695   
    159. D(H  27,C   1,Ir  0,C   5)    159.3648         0.001695   
    160. D(C   4,C   1,Ir  0,C  20)     58.6518         0.001695   
    161. D(C   2,C   1,Ir  0,N   6)   -102.4263         0.001695   
    162. D(C   2,C   1,Ir  0,C   3)     79.1717         0.001695   
    163. D(H  27,C   1,Ir  0,C   3)   -158.2114         0.001695   
    164. D(C   4,C   1,Ir  0,N   6)    140.6577         0.001695   
    165. D(H  27,C   1,Ir  0,O  31)    115.7574         0.001695   
    166. D(C   2,C   1,Ir  0,C   4)    116.9159         0.001695   
    167. D(H  27,C   1,Ir  0,C  20)    -61.8153         0.001695   
    168. D(C   2,C   1,Ir  0,C  20)    175.5678         0.001695   
    169. D(C   4,C   1,Ir  0,C   3)    -37.7443         0.001695   
    170. D(C   4,C   1,Ir  0,C   2)   -116.9159         0.001695   
    171. D(C   2,C   1,Ir  0,C   5)     36.7479         0.001695   
    172. D(H  27,C   1,Ir  0,C   4)   -120.4671         0.001695   
    173. D(C   4,C   1,Ir  0,O  31)   -123.7755         0.001695   
    174. D(H  27,C   1,Ir  0,C   2)    122.6169         0.001695   
    175. D(C   2,C   1,Ir  0,O  31)     -6.8596         0.001695   
    176. D(H  27,C   1,Ir  0,N   6)     20.1906         0.001695   
    177. D(C   1,C   2,Ir  0,C   5)   -117.7097         0.001633   
    178. D(H  28,C   2,C   1,C   4)   -176.9036         0.021295   
    179. D(C   5,C   2,C   1,H  27)    177.8757         0.021295   
    180. D(C   1,C   2,Ir  0,N   6)     87.7983         0.001633   
    181. D(C   1,C   2,Ir  0,C   3)    -81.3091         0.001633   
    182. D(C   1,C   2,Ir  0,C   4)    -37.9515         0.001633   
    183. D(H  28,C   2,C   1,Ir  0)    120.8691         0.021295   
    184. D(C   5,C   2,Ir  0,C  20)    109.0420         0.001633   
    185. D(H  28,C   2,Ir  0,C   1)   -120.6836         0.001633   
    186. D(H  28,C   2,C   1,H  27)      0.3199         0.021295   
    187. D(H  28,C   2,Ir  0,N   6)    -32.8853         0.001633   
    188. D(C   5,C   2,Ir  0,C   3)     36.4006         0.001633   
    189. D(H  28,C   2,Ir  0,C  20)   -129.3513         0.001633   
    190. D(C   5,C   2,C   1,Ir  0)    -61.5752         0.021295   
    191. D(Ir  0,C   2,C   1,H  27)   -120.5491         0.021295   
    192. D(H  28,C   2,Ir  0,C   3)    158.0074         0.001633   
    193. D(C   5,C   2,Ir  0,N   6)   -154.4920         0.001633   
    194. D(C   5,C   2,Ir  0,C   1)    117.7097         0.001633   
    195. D(C   5,C   2,Ir  0,C   4)     79.7582         0.001633   
    196. D(H  28,C   2,Ir  0,O  31)     55.5055         0.001633   
    197. D(C   5,C   2,Ir  0,O  31)    -66.1012         0.001633   
    198. D(H  28,C   2,Ir  0,C   5)    121.6067         0.001633   
    199. D(C   1,C   2,Ir  0,C  20)     -8.6677         0.001633   
    200. D(C   1,C   2,Ir  0,O  31)    176.1891         0.001633   
    201. D(Ir  0,C   2,C   1,C   4)     62.2274         0.021295   
    202. D(C   5,C   2,C   1,C   4)      0.6522         0.021295   
    203. D(H  28,C   2,Ir  0,C   4)   -158.6351         0.001633   
    204. D(C   4,C   3,Ir  0,C   2)     80.1666         0.001685   
    205. D(H  37,C   3,Ir  0,C   1)    158.8230         0.001685   
    206. D(H  37,C   3,Ir  0,C   5)   -122.6760         0.001685   
    207. D(C   4,C   3,Ir  0,O  31)   -176.2604         0.001685   
    208. D(H  37,C   3,Ir  0,C   2)   -158.3056         0.001685   
    209. D(C   5,C   3,Ir  0,C   1)    -78.5009         0.001685   
    210. D(C   4,C   3,Ir  0,N   6)     30.7057         0.001685   
    211. D(C   5,C   3,Ir  0,O  31)     67.9434         0.001685   
    212. D(H  37,C   3,Ir  0,C   4)    121.5278         0.001685   
    213. D(C   5,C   3,Ir  0,C   4)   -115.7962         0.001685   
    214. D(H  37,C   3,Ir  0,N   6)    152.2335         0.001685   
    215. D(C   4,C   3,Ir  0,C   1)     37.2952         0.001685   
    216. D(C   4,C   3,Ir  0,C  20)    -72.1637         0.001685   
    217. D(C   5,C   3,Ir  0,C   2)    -35.6296         0.001685   
    218. D(C   5,C   3,Ir  0,N   6)    -85.0905         0.001685   
    219. D(C   4,C   3,Ir  0,C   5)    115.7962         0.001685   
    220. D(C   5,C   3,Ir  0,C  20)    172.0401         0.001685   
    221. D(H  37,C   3,Ir  0,C  20)     49.3641         0.001685   
    222. D(H  37,C   3,Ir  0,O  31)    -54.7326         0.001685   
    223. D(C   1,C   4,Ir  0,C  20)   -128.6357         0.001706   
    224. D(C   1,C   4,Ir  0,C   2)     38.1014         0.001706   
    225. D(C   3,C   4,Ir  0,C   2)    -79.8530         0.001706   
    226. D(C   1,C   4,Ir  0,C   5)     79.7146         0.001706   
    227. D(C   1,C   4,Ir  0,N   6)    -53.0465         0.001706   
    228. D(C   3,C   4,Ir  0,C   5)    -38.2398         0.001706   
    229. D(C   3,C   4,Ir  0,C   1)   -117.9544         0.001706   
    230. D(C   1,C   4,Ir  0,O  31)    124.6448         0.001706   
    231. D(C   1,C   4,Ir  0,C   3)    117.9544         0.001706   
    232. D(H  38,C   4,C   1,Ir  0)   -117.5643         0.026105   
    233. D(C   3,C   4,Ir  0,C  20)    113.4099         0.001706   
    234. D(C   3,C   4,Ir  0,O  31)      6.6904         0.001706   
    235. D(Ir  0,C   4,C   1,C   2)    -63.6449         0.026105   
    236. D(H  38,C   4,Ir  0,C   1)    120.6879         0.001706   
    237. D(H  38,C   4,Ir  0,C   3)   -121.3577         0.001706   
    238. D(H  38,C   4,Ir  0,C   5)   -159.5975         0.001706   
    239. D(H  38,C   4,Ir  0,N   6)     67.6414         0.001706   
    240. D(H  38,C   4,Ir  0,C  20)     -7.9478         0.001706   
    241. D(H  38,C   4,Ir  0,C   2)    158.7893         0.001706   
    242. D(Ir  0,C   4,C   1,H  27)    119.1078         0.026105   
    243. D(H  38,C   4,Ir  0,O  31)   -114.6673         0.001706   
    244. D(C   3,C   4,C   1,Ir  0)     61.8019         0.026105   
    245. D(C   3,C   4,C   1,C   2)     -1.8430         0.026105   
    246. D(H  38,C   4,C   1,C   2)    178.7909         0.026105   
    247. D(C   3,C   4,Ir  0,N   6)   -171.0009         0.001706   
    248. D(C   3,C   4,C   1,H  27)   -179.0903         0.026105   
    249. D(Ir  0,C   4,C   3,H  37)   -121.5295         0.022380   
    250. D(Ir  0,C   4,C   3,C   5)     64.0822         0.022380   
    251. D(H  38,C   4,C   3,C   5)   -178.3306         0.022380   
    252. D(C   1,C   4,C   3,C   5)      2.3076         0.022380   
    253. D(C   1,C   4,C   3,H  37)    176.6958         0.022380   
    254. D(H  38,C   4,C   3,Ir  0)    117.5871         0.022380   
    255. D(H  38,C   4,C   1,H  27)      1.5436         0.026105   
    256. D(H  38,C   4,C   3,H  37)     -3.9424         0.022380   
    257. D(C   1,C   4,C   3,Ir  0)    -61.7747         0.022380   
    258. D(H  29,C   5,C   2,H  28)     -5.7420         0.026912   
    259. D(C   2,C   5,Ir  0,C   4)    -81.0203         0.001631   
    260. D(C   2,C   5,Ir  0,C   3)   -120.0478         0.001631   
    261. D(C   3,C   5,C   2,C   1)      0.7970         0.026912   
    262. D(C   2,C   5,Ir  0,C  20)   -132.8093         0.001631   
    263. D(C   2,C   5,Ir  0,O  31)    120.8682         0.001631   
    264. D(H  29,C   5,Ir  0,O  31)      0.2561         0.001631   
    265. D(C   3,C   5,Ir  0,C   2)    120.0478         0.001631   
    266. D(C   3,C   5,Ir  0,C   4)     39.0275         0.001631   
    267. D(C   3,C   5,Ir  0,N   6)    158.8629         0.001631   
    268. D(C   3,C   5,Ir  0,C  20)    -12.7615         0.001631   
    269. D(C   3,C   5,Ir  0,O  31)   -119.0840         0.001631   
    270. D(H  29,C   5,Ir  0,C   1)   -158.6229         0.001631   
    271. D(H  29,C   5,Ir  0,C   2)   -120.6122         0.001631   
    272. D(H  29,C   5,Ir  0,C   3)    119.3400         0.001631   
    273. D(H  29,C   5,Ir  0,C   4)    158.3676         0.001631   
    274. D(H  29,C   5,Ir  0,N   6)    -81.7971         0.001631   
    275. D(C   3,C   5,Ir  0,C   1)     82.0371         0.001631   
    276. D(H  29,C   5,Ir  0,C  20)    106.5785         0.001631   
    277. D(Ir  0,C   5,C   2,C   1)     59.8187         0.026912   
    278. D(Ir  0,C   5,C   2,H  28)   -122.6036         0.026912   
    279. D(C   2,C   5,Ir  0,N   6)     38.8150         0.001631   
    280. D(C   3,C   5,C   2,Ir  0)    -59.0217         0.026912   
    281. D(H  29,C   5,C   2,Ir  0)    116.8616         0.026912   
    282. D(C   3,C   5,C   2,H  28)    178.3747         0.026912   
    283. D(C   2,C   5,Ir  0,C   1)    -38.0108         0.001631   
    284. D(H  29,C   5,C   2,C   1)    176.6803         0.026912   
    285. D(H  29,C   5,C   3,H  37)      7.7670         0.023884   
    286. D(Ir  0,C   5,C   3,H  37)    123.3164         0.023884   
    287. D(C   2,C   5,C   3,Ir  0)     60.3402         0.023884   
    288. D(C   2,C   5,C   3,C   4)     -1.9146         0.023884   
    289. D(C   2,C   5,C   3,H  37)   -176.3434         0.023884   
    290. D(H  29,C   5,C   3,Ir  0)   -115.5494         0.023884   
    291. D(Ir  0,C   5,C   3,C   4)    -62.2548         0.023884   
    292. D(H  29,C   5,C   3,C   4)   -177.8042         0.023884   
    293. D(C   7,N   6,Ir  0,C   1)     79.3357         0.001768   
    294. D(C   7,N   6,Ir  0,C   2)     39.9966         0.001768   
    295. D(C   7,N   6,Ir  0,C   3)     85.4074         0.001768   
    296. D(C   7,N   6,Ir  0,C   4)    109.6839         0.001768   
    297. D(C   7,N   6,Ir  0,C   5)     16.7120         0.001768   
    298. D(C   7,N   6,Ir  0,C  20)   -168.4502         0.001768   
    299. D(C   7,N   6,Ir  0,O  31)    -69.0891         0.001768   
    300. D(C  17,N   6,Ir  0,C   1)   -101.9177         0.001768   
    301. D(C  17,N   6,Ir  0,C   2)   -141.2568         0.001768   
    302. D(C  17,N   6,Ir  0,C   3)    -95.8461         0.001768   
    303. D(C  17,N   6,Ir  0,C   4)    -71.5695         0.001768   
    304. D(C  17,N   6,Ir  0,C   5)   -164.5415         0.001768   
    305. D(C  17,N   6,Ir  0,C  20)     10.2963         0.001768   
    306. D(C  17,N   6,Ir  0,O  31)    109.6574         0.001768   
    307. D(C   8,C   7,N   6,Ir  0)    147.9448         0.014784   
    308. D(C   8,C   7,N   6,C  17)    -30.7302         0.014784   
    309. D(C  12,C   7,N   6,Ir  0)    -86.7292         0.014784   
    310. D(C  12,C   7,N   6,C  17)     94.5958         0.014784   
    311. D(H  13,C   7,N   6,Ir  0)     29.9454         0.014784   
    312. D(H  13,C   7,N   6,C  17)   -148.7296         0.014784   
    313. D(H   9,C   8,C   7,N   6)   -170.5210         0.011774   
    314. D(H   9,C   8,C   7,C  12)     65.3274         0.011774   
    315. D(H   9,C   8,C   7,H  13)    -54.2384         0.011774   
    316. D(H  10,C   8,C   7,N   6)     71.3096         0.011774   
    317. D(H  10,C   8,C   7,C  12)    -52.8420         0.011774   
    318. D(H  10,C   8,C   7,H  13)   -172.4078         0.011774   
    319. D(H  11,C   8,C   7,N   6)    -51.8624         0.011774   
    320. D(H  11,C   8,C   7,C  12)   -176.0140         0.011774   
    321. D(H  11,C   8,C   7,H  13)     64.4202         0.011774   
    322. D(H  14,C  12,C   7,N   6)    174.8317         0.011560   
    323. D(H  14,C  12,C   7,C   8)    -58.5146         0.011560   
    324. D(H  14,C  12,C   7,H  13)     60.5711         0.011560   
    325. D(H  15,C  12,C   7,N   6)    -65.8730         0.011560   
    326. D(H  15,C  12,C   7,C   8)     60.7807         0.011560   
    327. D(H  15,C  12,C   7,H  13)    179.8664         0.011560   
    328. D(H  16,C  12,C   7,N   6)     55.2007         0.011560   
    329. D(H  16,C  12,C   7,C   8)   -178.1455         0.011560   
    330. D(H  16,C  12,C   7,H  13)    -59.0599         0.011560   
    331. D(C  18,C  17,N   6,Ir  0)     -2.2270         0.059126   
    332. D(C  18,C  17,N   6,C   7)    176.5260         0.059126   
    333. D(H  19,C  17,N   6,Ir  0)    179.5383         0.059126   
    334. D(H  19,C  17,N   6,C   7)     -1.7087         0.059126   
    335. D(C  20,C  18,C  17,N   6)    -12.2942         0.019805   
    336. D(C  20,C  18,C  17,H  19)    165.9332         0.019805   
    337. D(S  22,C  18,C  17,N   6)    164.6812         0.019805   
    338. D(S  22,C  18,C  17,H  19)    -17.0913         0.019805   
    339. D(C  18,C  20,Ir  0,C   1)     82.2256         0.001849   
    340. D(H  24,C  20,C  18,C  17)    -72.1778         0.027960   
    341. D(C  18,C  20,Ir  0,C   3)    150.6437         0.001849   
    342. D(C  18,C  20,Ir  0,C   4)    114.1260         0.001849   
    343. D(Ir  0,C  20,C  18,C  17)     20.3749         0.027960   
    344. D(C  18,C  20,Ir  0,N   6)    -15.6481         0.001849   
    345. D(C  18,C  20,Ir  0,O  31)    -96.4969         0.001849   
    346. D(H  24,C  20,Ir  0,C   4)   -140.0553         0.001849   
    347. D(C  21,C  20,Ir  0,C   2)    -59.9531         0.001849   
    348. D(C  21,C  20,Ir  0,C   3)      2.5938         0.001849   
    349. D(C  21,C  20,Ir  0,C   4)    -33.9240         0.001849   
    350. D(C  21,C  20,Ir  0,C   5)     10.6876         0.001849   
    351. D(C  21,C  20,Ir  0,N   6)   -163.6981         0.001849   
    352. D(C  21,C  20,Ir  0,O  31)    115.4531         0.001849   
    353. D(H  24,C  20,Ir  0,C   1)   -171.9556         0.001849   
    354. D(H  24,C  20,Ir  0,C   2)   -166.0844         0.001849   
    355. D(C  21,C  20,Ir  0,C   1)    -65.8244         0.001849   
    356. D(H  24,C  20,Ir  0,C   3)   -103.5375         0.001849   
    357. D(H  24,C  20,Ir  0,C   5)    -95.4437         0.001849   
    358. D(H  24,C  20,Ir  0,N   6)     90.1706         0.001849   
    359. D(C  18,C  20,Ir  0,C   5)    158.7376         0.001849   
    360. D(H  24,C  20,Ir  0,O  31)      9.3219         0.001849   
    361. D(Ir  0,C  20,C  18,S  22)   -157.0522         0.027960   
    362. D(C  21,C  20,C  18,C  17)    176.4048         0.027960   
    363. D(C  18,C  20,Ir  0,C   2)     88.0969         0.001849   
    364. D(C  21,C  20,C  18,S  22)     -1.0224         0.027960   
    365. D(H  24,C  20,C  18,S  22)    110.3950         0.027960   
    366. D(C  23,C  21,C  20,Ir  0)    149.3398         0.021524   
    367. D(C  23,C  21,C  20,C  18)      0.9464         0.021524   
    368. D(C  23,C  21,C  20,H  24)   -111.8040         0.021524   
    369. D(H  25,C  21,C  20,Ir  0)    -34.3466         0.021524   
    370. D(H  25,C  21,C  20,C  18)    177.2600         0.021524   
    371. D(H  25,C  21,C  20,H  24)     64.5096         0.021524   
    372. D(C  23,S  22,C  18,C  17)   -176.3926         0.005964   
    373. D(C  23,S  22,C  18,C  20)      0.6648         0.005964   
    374. D(S  22,C  23,C  21,C  20)     -0.4813         0.033645   
    375. D(S  22,C  23,C  21,H  25)   -176.8515         0.033645   
    376. D(H  26,C  23,C  21,C  20)    178.1508         0.033645   
    377. D(H  26,C  23,C  21,H  25)      1.7806         0.033645   
    378. D(C  21,C  23,S  22,C  18)     -0.0950         0.005462   
    379. D(H  26,C  23,S  22,C  18)   -178.8483         0.005462   
    380. D(C  32,O  30,C  20,Ir  0)     -8.7450         0.001501   
    381. D(C  32,O  30,C  20,C  18)    101.5846         0.001501   
    382. D(C  32,O  30,C  20,C  21)   -142.8878         0.001501   
    383. D(C  32,O  31,Ir  0,C   1)    170.6433         0.001808   
    384. D(C  32,O  31,Ir  0,C   2)    166.1093         0.001808   
    385. D(C  32,O  31,Ir  0,C   3)     97.8597         0.001808   
    386. D(C  32,O  31,Ir  0,C   4)     93.4260         0.001808   
    387. D(C  32,O  31,Ir  0,C   5)    132.6085         0.001808   
    388. D(C  32,O  31,Ir  0,N   6)    -88.3803         0.001808   
    389. D(C  32,O  31,Ir  0,C  20)    -11.5956         0.001808   
    390. D(O  31,C  32,O  30,H  24)      1.5683         0.069470   
    391. D(C  33,C  32,O  30,H  24)   -179.7757         0.069470   
    392. D(O  30,C  32,O  31,Ir  0)      4.8901         0.061505   
    393. D(C  33,C  32,O  31,Ir  0)   -173.7765         0.061505   
    394. D(H  34,C  33,C  32,O  30)     38.4646         0.012911   
    395. D(H  34,C  33,C  32,O  31)   -142.7960         0.012911   
    396. D(H  35,C  33,C  32,O  30)    -79.0875         0.012911   
    397. D(H  35,C  33,C  32,O  31)     99.6520         0.012911   
    398. D(H  36,C  33,C  32,O  30)    161.5057         0.012911   
    399. D(H  36,C  33,C  32,O  31)    -19.7548         0.012911   
    -----------------------------------------------------------------

Number of atoms                         .... 39
Number of degrees of freedom            .... 399

         *************************************************************
         *                GEOMETRY OPTIMIZATION CYCLE   1            *
         *************************************************************
---------------------------------
CARTESIAN COORDINATES (ANGSTROEM)
---------------------------------
  Ir     0.616687   -0.732579    0.401558
  C      0.162040   -2.847806    0.320154
  C     -0.095673   -2.408643    1.668415
  C      2.144483   -2.052790    1.203107
  C      1.537470   -2.652640    0.050462
  C      1.125871   -1.937293    2.196377
  N     -1.078293    0.111950   -0.512359
  C     -2.348504    0.292786    0.206117
  C     -3.142685    1.509464   -0.247473
  H     -3.972655    1.664039    0.440130
  H     -3.578958    1.386685   -1.239702
  H     -2.537720    2.416442   -0.239855
  C     -3.174100   -0.984568    0.098761
  H     -2.065860    0.443314    1.249174
  H     -4.076399   -0.896523    0.702636
  H     -3.478939   -1.169232   -0.932117
  H     -2.626230   -1.856944    0.451331
  C     -0.933534    0.483422   -1.725713
  C      0.380768    0.306799   -2.247654
  H     -1.740902    0.925432   -2.300393
  C      1.396183    0.013141   -1.333248
  C      2.619075   -0.211333   -2.041294
  S      0.898644    0.334110   -3.862995
  C      2.493966   -0.065672   -3.389781
  H      1.621976    1.157511   -0.648194
  H      3.566077   -0.414520   -1.562232
  H      3.267758   -0.153426   -4.137368
  H     -0.553837   -3.293999   -0.354539
  H     -1.034769   -2.466411    2.196982
  H      1.254836   -1.492158    3.172843
  O      1.748315    2.293709    0.056333
  O      0.595201    1.043259    1.476492
  C      1.159842    2.123455    1.143956
  C      1.141374    3.251333    2.132000
  H      1.021984    4.205421    1.623658
  H      2.100604    3.280856    2.651731
  H      0.356977    3.120242    2.871826
  H      3.190446   -1.823186    1.334894
  H      2.037854   -2.904458   -0.873280

----------------------------
CARTESIAN COORDINATES (A.U.)
----------------------------
  NO LB      ZA    FRAG     MASS         X           Y           Z
   0 Ir   17.0000*   0   192.220    1.165369   -1.384373    0.758834
   1 C     6.0000    0    12.011    0.306211   -5.381574    0.605003
   2 C     6.0000    0    12.011   -0.180795   -4.551676    3.152847
   3 C     6.0000    0    12.011    4.052485   -3.879212    2.273543
   4 C     6.0000    0    12.011    2.905398   -5.012762    0.095360
   5 C     6.0000    0    12.011    2.127587   -3.660954    4.150552
   6 N     7.0000    0    14.007   -2.037679    0.211555   -0.968218
   7 C     6.0000    0    12.011   -4.438030    0.553286    0.389504
   8 C     6.0000    0    12.011   -5.938814    2.852474   -0.467656
   9 H     1.0000    0     1.008   -7.507229    3.144577    0.831725
  10 H     1.0000    0     1.008   -6.763251    2.620456   -2.342697
  11 H     1.0000    0     1.008   -4.795596    4.566413   -0.453260
  12 C     6.0000    0    12.011   -5.998180   -1.860564    0.186632
  13 H     1.0000    0     1.008   -3.903910    0.837742    2.360598
  14 H     1.0000    0     1.008   -7.703277   -1.694183    1.327790
  15 H     1.0000    0     1.008   -6.574242   -2.209527   -1.761445
  16 H     1.0000    0     1.008   -4.962855   -3.509116    0.852891
  17 C     6.0000    0    12.011   -1.764124    0.913535   -3.261126
  18 C     6.0000    0    12.011    0.719548    0.579766   -4.247451
  19 H     1.0000    0     1.008   -3.289829    1.748813   -4.347114
  20 C     6.0000    0    12.011    2.638404    0.024832   -2.519474
  21 C     6.0000    0    12.011    4.949334   -0.399361   -3.857487
  22 S    16.0000    0    32.060    1.698190    0.631376   -7.300003
  23 C     6.0000    0    12.011    4.712912   -0.124102   -6.405758
  24 H     1.0000    0     1.008    3.065091    2.187379   -1.224910
  25 H     1.0000    0     1.008    6.738908   -0.783329   -2.952190
  26 H     1.0000    0     1.008    6.175168   -0.289932   -7.818492
  27 H     1.0000    0     1.008   -1.046600   -6.224757   -0.669981
  28 H     1.0000    0     1.008   -1.955430   -4.660842    4.151694
  29 H     1.0000    0     1.008    2.371297   -2.819769    5.995805
  30 O     8.0000    0    15.999    3.303836    4.334481    0.106454
  31 O     8.0000    0    15.999    1.124767    1.971474    2.790166
  32 C     6.0000    0    12.011    2.191784    4.012749    2.161764
  33 C     6.0000    0    12.011    2.156884    6.144129    4.028897
  34 H     1.0000    0     1.008    1.931269    7.947094    3.068269
  35 H     1.0000    0     1.008    3.969567    6.199920    5.011046
  36 H     1.0000    0     1.008    0.674588    5.896403    5.426964
  37 H     1.0000    0     1.008    6.029070   -3.445322    2.522584
  38 H     1.0000    0     1.008    3.850986   -5.488631   -1.650260
* core charge reduced due to ECP

--------------------------------
INTERNAL COORDINATES (ANGSTROEM)
--------------------------------
 Ir     0   0   0     0.000000000000     0.00000000     0.00000000
 C      1   0   0     2.165430138268     0.00000000     0.00000000
 C      2   1   0     1.440991418516    72.83322814     0.00000000
 C      1   2   3     2.172864876964    64.36064493    79.09913013
 C      2   1   3     1.414424911864    70.63830523   243.12572903
 C      3   2   1     1.410496185041   107.29296973   298.40128165
 N      1   2   3     2.102385028466   102.00716095   257.47564987
 C      7   1   2     1.470483121120   122.16798329    79.27318575
 C      8   7   1     1.522087144071   113.79098470   147.94106397
 H      9   8   7     1.088819434815   108.84511350   189.47902733
 H      9   8   7     1.090834953774   112.94013025    71.30969107
 H      9   8   7     1.090250010068   111.92358111   308.13748230
 C      8   7   1     1.524717253101   109.28677640   273.26711859
 H      8   7   1     1.091104529218   105.08685355    29.94190846
 H     13   8   7     1.089287146710   109.98485319   174.83171468
 H     13   8   7     1.090747689158   111.08247263   294.12706455
 H     13   8   7     1.088804455942   112.08450777    55.20077923
 C      7   1   2     1.282999502921   116.13221621   258.01068381
 C     18   7   1     1.430498426325   115.30243624   357.60451214
 H     18   7   1     1.085105220140   122.15478110   179.46412472
 C     19  18   7     1.396348048812   117.13981412   347.70243898
 C     21  19  18     1.430268972734   109.46726378   176.37448226
 S     19  18   7     1.696562511957   129.03528295   164.72430548
 C     22  21  19     1.362252656538   113.12777603     1.03193847
 H     21  19  18     1.352531997235   106.02154429   288.13988882
 H     22  21  19     1.080527407306   124.05187241   177.35438292
 H     24  22  21     1.079471168635   127.66702780   178.14094378
 H      2   1   3     1.080174535815   124.47293707   122.63914679
 H      3   2   1     1.079172271739   126.69231141   120.85429944
 H      6   3   2     1.080859579103   125.34240489   176.68651464
 O     25  21  19     1.357142851172   175.35189973    59.94153197
 O      1   2   3     2.075760497155   148.59482395   353.15129011
 C     31  25  21     1.251508554020   107.70402329    42.07121145
 C     33  31  25     1.499551940380   118.28435832   180.21366425
 H     34  33  31     1.087628826993   110.68212945    38.41509660
 H     34  33  31     1.091382136301   108.86228670   280.86289163
 H     34  33  31     1.086182551084   111.52460497   161.45597992
 H      4   1   2     1.078943511693   126.67603570   158.83732063
 H      5   2   1     1.080315258389   125.51689288   242.44658598

---------------------------
INTERNAL COORDINATES (A.U.)
---------------------------
 Ir     0   0   0     0.000000000000     0.00000000     0.00000000
 C      1   0   0     4.092069923466     0.00000000     0.00000000
 C      2   1   0     2.723079142326    72.83322814     0.00000000
 C      1   2   3     4.106119543479    64.36064493    79.09913013
 C      2   1   3     2.672875720419    70.63830523   243.12572903
 C      3   2   1     2.665451502668   107.29296973   298.40128165
 N      1   2   3     3.972931931858   102.00716095   257.47564987
 C      7   1   2     2.778810383471   122.16798329    79.27318575
 C      8   7   1     2.876327854257   113.79098470   147.94106397
 H      9   8   7     2.057570541090   108.84511350   189.47902733
 H      9   8   7     2.061379319941   112.94013025    71.30969107
 H      9   8   7     2.060273936533   111.92358111   308.13748230
 C      8   7   1     2.881298040026   109.28677640   273.26711859
 H      8   7   1     2.061888743702   105.08685355    29.94190846
 H     13   8   7     2.058454388482   109.98485319   174.83171468
 H     13   8   7     2.061214413716   111.08247263   294.12706455
 H     13   8   7     2.057542235123   112.08450777    55.20077923
 C      7   1   2     2.424517690477   116.13221621   258.01068381
 C     18   7   1     2.703250260759   115.30243624   357.60451214
 H     18   7   1     2.050551692553   122.15478110   179.46412472
 C     19  18   7     2.638715399890   117.13981412   347.70243898
 C     21  19  18     2.702816656311   109.46726378   176.37448226
 S     19  18   7     3.206038516677   129.03528295   164.72430548
 C     22  21  19     2.574284446063   113.12777603     1.03193847
 H     21  19  18     2.555915062140   106.02154429   288.13988882
 H     22  21  19     2.041900880005   124.05187241   177.35438292
 H     24  22  21     2.039904878183   127.66702780   178.14094378
 H      2   1   3     2.041234049526   124.47293707   122.63914679
 H      3   2   1     2.039340044908   126.69231141   120.85429944
 H      6   3   2     2.042528593730   125.34240489   176.68651464
 O     25  21  19     2.564628313324   175.35189973    59.94153197
 O      1   2   3     3.922618859235   148.59482395   353.15129011
 C     31  25  21     2.365008421357   107.70402329    42.07121145
 C     33  31  25     2.833742490908   118.28435832   180.21366425
 H     34  33  31     2.055320618374   110.68212945    38.41509660
 H     34  33  31     2.062413345062   108.86228670   280.86289163
 H     34  33  31     2.052587552993   111.52460497   161.45597992
 H      4   1   2     2.038907751071   126.67603570   158.83732063
 H      5   2   1     2.041499976651   125.51689288   242.44658598

---------------------
BASIS SET INFORMATION
---------------------
There are 6 groups of distinct atoms

 Group   1 Type Ir  : 7s6p5d1f contracted to 6s3p2d1f pattern {211111/411/41/1}
 Group   2 Type C   : 8s4p1d contracted to 4s2p1d pattern {5111/31/1}
 Group   3 Type N   : 8s4p1d contracted to 4s2p1d pattern {5111/31/1}
 Group   4 Type H   : 4s contracted to 2s pattern {31}
 Group   5 Type S   : 10s7p1d contracted to 4s3p1d pattern {5311/511/1}
 Group   6 Type O   : 8s4p1d contracted to 4s2p1d pattern {5111/31/1}

Atom   0Ir   basis set group =>   1
Atom   1C    basis set group =>   2
Atom   2C    basis set group =>   2
Atom   3C    basis set group =>   2
Atom   4C    basis set group =>   2
Atom   5C    basis set group =>   2
Atom   6N    basis set group =>   3
Atom   7C    basis set group =>   2
Atom   8C    basis set group =>   2
Atom   9H    basis set group =>   4
Atom  10H    basis set group =>   4
Atom  11H    basis set group =>   4
Atom  12C    basis set group =>   2
Atom  13H    basis set group =>   4
Atom  14H    basis set group =>   4
Atom  15H    basis set group =>   4
Atom  16H    basis set group =>   4
Atom  17C    basis set group =>   2
Atom  18C    basis set group =>   2
Atom  19H    basis set group =>   4
Atom  20C    basis set group =>   2
Atom  21C    basis set group =>   2
Atom  22S    basis set group =>   5
Atom  23C    basis set group =>   2
Atom  24H    basis set group =>   4
Atom  25H    basis set group =>   4
Atom  26H    basis set group =>   4
Atom  27H    basis set group =>   4
Atom  28H    basis set group =>   4
Atom  29H    basis set group =>   4
Atom  30O    basis set group =>   6
Atom  31O    basis set group =>   6
Atom  32C    basis set group =>   2
Atom  33C    basis set group =>   2
Atom  34H    basis set group =>   4
Atom  35H    basis set group =>   4
Atom  36H    basis set group =>   4
Atom  37H    basis set group =>   4
Atom  38H    basis set group =>   4
---------------------------------
AUXILIARY/J BASIS SET INFORMATION
---------------------------------
There are 6 groups of distinct atoms

 Group   1 Type Ir  : 11s5p5d3f3g contracted to 8s5p5d2f3g pattern {41111111/11111/11111/21/111}
 Group   2 Type C   : 12s5p4d2f1g contracted to 6s4p3d1f1g pattern {711111/2111/211/2/1}
 Group   3 Type N   : 12s5p4d2f1g contracted to 6s4p3d1f1g pattern {711111/2111/211/2/1}
 Group   4 Type H   : 5s2p1d contracted to 3s1p1d pattern {311/2/1}
 Group   5 Type S   : 14s5p5d2f1g contracted to 8s4p3d1f1g pattern {71111111/2111/311/2/1}
 Group   6 Type O   : 12s5p4d2f1g contracted to 6s4p3d1f1g pattern {711111/2111/211/2/1}

Atom   0Ir   basis set group =>   1
Atom   1C    basis set group =>   2
Atom   2C    basis set group =>   2
Atom   3C    basis set group =>   2
Atom   4C    basis set group =>   2
Atom   5C    basis set group =>   2
Atom   6N    basis set group =>   3
Atom   7C    basis set group =>   2
Atom   8C    basis set group =>   2
Atom   9H    basis set group =>   4
Atom  10H    basis set group =>   4
Atom  11H    basis set group =>   4
Atom  12C    basis set group =>   2
Atom  13H    basis set group =>   4
Atom  14H    basis set group =>   4
Atom  15H    basis set group =>   4
Atom  16H    basis set group =>   4
Atom  17C    basis set group =>   2
Atom  18C    basis set group =>   2
Atom  19H    basis set group =>   4
Atom  20C    basis set group =>   2
Atom  21C    basis set group =>   2
Atom  22S    basis set group =>   5
Atom  23C    basis set group =>   2
Atom  24H    basis set group =>   4
Atom  25H    basis set group =>   4
Atom  26H    basis set group =>   4
Atom  27H    basis set group =>   4
Atom  28H    basis set group =>   4
Atom  29H    basis set group =>   4
Atom  30O    basis set group =>   6
Atom  31O    basis set group =>   6
Atom  32C    basis set group =>   2
Atom  33C    basis set group =>   2
Atom  34H    basis set group =>   4
Atom  35H    basis set group =>   4
Atom  36H    basis set group =>   4
Atom  37H    basis set group =>   4
Atom  38H    basis set group =>   4
-------------------------
ECP PARAMETER INFORMATION
-------------------------

 Group 1, Type Ir ECP Def2-ECP (replacing 60 core electrons, lmax=3)

Atom   0Ir   ECP group =>   1

------------------------------------------------------------------------------
                           ORCA GTO INTEGRAL CALCULATION
                           -- RI-GTO INTEGRALS CHOSEN --
------------------------------------------------------------------------------
------------------------------------------------------------------------------
                   ___                                                        
                  /   \      - P O W E R E D   B Y -                         
                 /     \                                                     
                 |  |  |   _    _      __       _____    __    __             
                 |  |  |  | |  | |    /  \     |  _  \  |  |  /  |          
                  \  \/   | |  | |   /    \    | | | |  |  | /  /          
                 / \  \   | |__| |  /  /\  \   | |_| |  |  |/  /          
                |  |  |   |  __  | /  /__\  \  |    /   |      \           
                |  |  |   | |  | | |   __   |  |    \   |  |\   \          
                \     /   | |  | | |  |  |  |  | |\  \  |  | \   \       
                 \___/    |_|  |_| |__|  |__|  |_| \__\ |__|  \__/        
                                                                              
                      - O R C A' S   B I G   F R I E N D -                    
                                      &                                       
                       - I N T E G R A L  F E E D E R -                       
                                                                              
 v1 FN, 2020, v2 2021                                                         
------------------------------------------------------------------------------


Reading SHARK input file reaction4-IEIP_ts_guess_scan_13-11_orca.SHARKINP.tmp ... ok
----------------------
SHARK INTEGRAL PACKAGE
----------------------

Number of atoms                             ...     39
Number of basis functions                   ...    358
Number of shells                            ...    184
Maximum angular momentum                    ...      3
Integral batch strategy                     ... SHARK/LIBINT Hybrid
RI-J (if used) integral strategy            ... SPLIT-RIJ (Revised 2003 algorithm where possible)
Printlevel                                  ...      1
Contraction scheme used                     ... SEGMENTED contraction
Coulomb Range Separation                    ... NOT USED
Exchange Range Separation                   ... NOT USED
Finite Nucleus Model                        ... NOT USED
Auxiliary Coulomb fitting basis             ... AVAILABLE
   # of basis functions in Aux-J            ...   1231
   # of shells in Aux-J                     ...    405
   Maximum angular momentum in Aux-J        ...      4
Auxiliary J/K fitting basis                 ... NOT available
Auxiliary Correlation fitting basis         ... NOT available
Auxiliary 'external' fitting basis          ... NOT available
Integral threshold                          ...     2.500000e-11
Primitive cut-off                           ...     2.500000e-12
Primitive pair pre-selection threshold      ...     2.500000e-12

Calculating pre-screening integrals         ... done (  0.1 sec) Dimension = 184
Organizing shell pair data                  ... done (  0.1 sec)
Shell pair information
Total number of shell pairs                 ...     17020
Shell pairs after pre-screening             ...     12999
Total number of primitive shell pairs       ...     60705
Primitive shell pairs kept                  ...     29270
          la=0 lb=0:   4977 shell pairs
          la=1 lb=0:   4274 shell pairs
          la=1 lb=1:    860 shell pairs
          la=2 lb=0:   1752 shell pairs
          la=2 lb=1:    787 shell pairs
          la=2 lb=2:    175 shell pairs
          la=3 lb=0:    111 shell pairs
          la=3 lb=1:     41 shell pairs
          la=3 lb=2:     21 shell pairs
          la=3 lb=3:      1 shell pairs

Calculating one electron integrals          ... done (  0.1 sec)
Calculating ECP integrals                   ... done (  0.8 sec)
Calculating RI/J V-Matrix + Cholesky decomp.... done (  0.1 sec)
Calculating Nuclear repulsion               ... done (  0.0 sec) ENN=   2038.460189195722 Eh

SHARK setup successfully completed in   1.5 seconds

Maximum memory used throughout the entire GTOINT-calculation: 90.9 MB
-------------------------------------------------------------------------------
                                 ORCA SCF
-------------------------------------------------------------------------------

------------
SCF SETTINGS
------------
Hamiltonian:
 Density Functional     Method          .... DFT(GTOs)
 Exchange Functional    Exchange        .... PBE
   PBE kappa parameter   XKappa         ....  1.024500
   PBE mue parameter    XMuePBE         ....  0.123457
 Correlation Functional Correlation     .... PBE
   PBE beta parameter  CBetaPBE         ....  0.030000
 LDA part of GGA corr.  LDAOpt          .... PW91-LDA
 Gradients option       PostSCFGGA      .... off
 Hybrid DFT is turned on
   Fraction HF Exchange ScalHFX         ....  0.420000
   Scaling of DF-GGA-X  ScalDFX         ....  0.580000
   Scaling of DF-GGA-C  ScalDFC         ....  1.000000
   Scaling of DF-LDA-C  ScalLDAC        ....  1.000000
   Perturbative correction              ....  0.000000
   Density functional embedding theory  .... OFF
 RI-approximation to the Coulomb term is turned on
   Number of AuxJ basis functions       .... 1231
   RIJ-ON(X) (HFX calculated with O(N)) .... on
   Number of AuxJ basis functions       .... 1231
   RIJ-COSX (HFX calculated with COS-X)).... on


General Settings:
 Integral files         IntName         .... reaction4-IEIP_ts_guess_scan_13-11_orca
 Hartree-Fock type      HFTyp           .... RHF
 Total Charge           Charge          ....    1
 Multiplicity           Mult            ....    1
 Number of Electrons    NEL             ....  164
 Basis Dimension        Dim             ....  358
 Nuclear Repulsion      ENuc            ....   2038.4601891957 Eh

Convergence Acceleration:
 DIIS                   CNVDIIS         .... on
   Start iteration      DIISMaxIt       ....    12
   Startup error        DIISStart       ....  0.200000
   # of expansion vecs  DIISMaxEq       ....     5
   Bias factor          DIISBfac        ....   1.050
   Max. coefficient     DIISMaxC        ....  10.000
 Trust-Rad. Augm. Hess. CNVTRAH         .... auto
   Auto Start mean grad. ratio tolernc. ....  1.125000
   Auto Start start iteration           ....    20
   Auto Start num. interpolation iter.  ....    10
   Max. Number of Micro iterations      ....    16
   Max. Number of Macro iterations      .... Maxiter - #DIIS iter
   Number of Davidson start vectors     ....     2
   Converg. threshold I  (grad. norm)   ....   1.000e-05
   Converg. threshold II (energy diff.) ....   1.000e-08
   Grad. Scal. Fac. for Micro threshold ....   0.100
   Minimum threshold for Micro iter.    ....   0.010
   NR start threshold (gradient norm)   ....   0.001
   Initial trust radius                 ....   0.400
   Minimum AH scaling param. (alpha)    ....   1.000
   Maximum AH scaling param. (alpha)    .... 1000.000
   Orbital update algorithm             .... Taylor
   White noise on init. David. guess    .... on
   Maximum white noise                  ....   0.010
   Quad. conv. algorithm                .... NR
   COSX micro iterations for RIJONX calc.... off
 SOSCF                  CNVSOSCF        .... off
 Level Shifting         CNVShift        .... on
   Level shift para.    LevelShift      ....    0.2500
   Turn off err/grad.   ShiftErr        ....    0.0010
 Zerner damping         CNVZerner       .... off
 Static damping         CNVDamp         .... on
   Fraction old density DampFac         ....    0.7000
   Max. Damping (<1)    DampMax         ....    0.9800
   Min. Damping (>=0)   DampMin         ....    0.0000
   Turn off err/grad.   DampErr         ....    0.1000
 Fernandez-Rico         CNVRico         .... off

SCF Procedure:
 Maximum # iterations   MaxIter         ....   250
 SCF integral mode      SCFMode         .... Direct
   Integral package                     .... SHARK and LIBINT hybrid scheme
 Reset frequency        DirectResetFreq ....    20
 Integral Threshold     Thresh          ....  2.500e-11 Eh
 Primitive CutOff       TCut            ....  2.500e-12 Eh

Convergence Tolerance:
 Convergence Check Mode ConvCheckMode   .... Total+1el-Energy
 Convergence forced     ConvForced      .... 0
 Energy Change          TolE            ....  1.000e-08 Eh
 1-El. energy change                    ....  1.000e-05 Eh
 DIIS Error             TolErr          ....  5.000e-07


Diagonalization of the overlap matrix:
Smallest eigenvalue                        ... 1.096e-03
Time for diagonalization                   ...    0.020 sec
Threshold for overlap eigenvalues          ... 1.000e-08
Number of eigenvalues below threshold      ... 0
Time for construction of square roots      ...    0.008 sec
Total time needed                          ...    0.029 sec

--------------------
INITIAL GUESS: HCORE
--------------------
                      -----------------
                      INTIAL GUESS DONE 
                      -----------------
-------------------
DFT GRID GENERATION
-------------------

General Integration Accuracy     IntAcc      ... 4.159
Radial Grid Type                 RadialGrid  ... OptM3 with GC (2021)
Angular Grid (max. ang.)         AngularGrid ... 3 (Lebedev-194)
Angular grid pruning method      GridPruning ... 4 (adaptive)
Weight generation scheme         WeightScheme... Becke
Basis function cutoff            BFCut       ... 1.0000e-11
Integration weight cutoff        WCut        ... 1.0000e-14
Angular grids for H and He will be reduced by one unit
Partially contracted basis set               ... off
Rotationally invariant grid construction     ... off

Total number of grid points                  ...    93290
Total number of batches                      ...     1478
Average number of points per batch           ...       63
Average number of grid points per atom       ...     2392
Time for grid setup =    1.783 sec

--------------------
COSX GRID GENERATION
--------------------

GRIDX 1
-------
General Integration Accuracy     IntAcc      ... 3.816
Radial Grid Type                 RadialGrid  ... OptM3 with GC (2021)
Angular Grid (max. ang.)         AngularGrid ... 1 (Lebedev-50)
Angular grid pruning method      GridPruning ... 4 (adaptive)
Weight generation scheme         WeightScheme... Becke
Basis function cutoff            BFCut       ... 1.0000e-11
Integration weight cutoff        WCut        ... 1.0000e-14
Angular grids for H and He will be reduced by one unit
Partially contracted basis set               ... on
Rotationally invariant grid construction     ... off

Total number of grid points                  ...    23197
Total number of batches                      ...      378
Average number of points per batch           ...       61
Average number of grid points per atom       ...      595
UseSFitting                                  ... on

GRIDX 2
-------
General Integration Accuracy     IntAcc      ... 4.020
Radial Grid Type                 RadialGrid  ... OptM3 with GC (2021)
Angular Grid (max. ang.)         AngularGrid ... 2 (Lebedev-110)
Angular grid pruning method      GridPruning ... 4 (adaptive)
Weight generation scheme         WeightScheme... Becke
Basis function cutoff            BFCut       ... 1.0000e-11
Integration weight cutoff        WCut        ... 1.0000e-14
Angular grids for H and He will be reduced by one unit
Partially contracted basis set               ... on
Rotationally invariant grid construction     ... off

Total number of grid points                  ...    50309
Total number of batches                      ...      806
Average number of points per batch           ...       62
Average number of grid points per atom       ...     1290
UseSFitting                                  ... on

GRIDX 3
-------
General Integration Accuracy     IntAcc      ... 4.338
Radial Grid Type                 RadialGrid  ... OptM3 with GC (2021)
Angular Grid (max. ang.)         AngularGrid ... 3 (Lebedev-194)
Angular grid pruning method      GridPruning ... 4 (adaptive)
Weight generation scheme         WeightScheme... Becke
Basis function cutoff            BFCut       ... 1.0000e-11
Integration weight cutoff        WCut        ... 1.0000e-14
Angular grids for H and He will be reduced by one unit
Partially contracted basis set               ... on
Rotationally invariant grid construction     ... off

Total number of grid points                  ...   108716
Total number of batches                      ...     1716
Average number of points per batch           ...       63
Average number of grid points per atom       ...     2788
UseSFitting                                  ... on

Time for X-Grid setup             =    4.868 sec

--------------
SCF ITERATIONS
--------------
ITER       Energy         Delta-E        Max-DP      RMS-DP      [F,P]     Damp
               ***  Starting incremental Fock matrix formation  ***
  0   -829.0272809466   0.00000000000020.16803389  0.14946040  3.2849435 0.7000
  1  -1080.8168435080-251.789562561388 9.95203123  0.12939216  1.5308753 0.7000
  2  -1156.9437334529 -76.126889944907 5.37247508  0.07092627  1.0637687 0.7000
  3  -1184.8797233209 -27.935989868012 3.67051860  0.04782175  0.7754069 0.7000
  4  -1206.6735594100 -21.793836089068 2.61429414  0.03783414  0.4871674 0.7000
  5  -1221.7120552890 -15.038495878968 2.20560013  0.03257371  0.3579141 0.7000
  6  -1232.3454753243 -10.633420035292 1.88879310  0.03001903  0.3038095 0.7000
  7  -1240.6520808507  -8.306605526440 1.65171566  0.02607867  0.2774152 0.7000
  8  -1248.8848608421  -8.232779991400 1.58973359  0.02533466  0.2883553 0.7000
  9  -1252.1892928000  -3.304431957917 1.55468202  0.02436435  0.3203029 0.7000
 10  -1256.2872553272  -4.097962527226 1.41511599  0.02311913  0.3028879 0.7000
 11  -1257.5558313307  -1.268576003455 1.44731854  0.02337174  0.3350082 0.7000
                               ***Turning on DIIS***
 12  -1260.0257837456  -2.469952414940 1.38175894  0.02288189  0.3119791 0.7000
 13  -1260.2681081584  -0.242324412736 1.26179245  0.01937580  0.3426958 0.7000
 14  -1268.5644313861  -8.296323227764 0.88348732  0.01379976  0.2614168 0.7000
 15  -1274.7620700519  -6.197638665730 0.62125408  0.00977967  0.1917670 0.7000
 16  -1279.0991953090  -4.337125257152 0.43744717  0.00691625  0.1313279 0.7000
 17  -1282.0309403699  -2.931745060912 1.02048848  0.01624467  0.0841830 0.0000
 18  -1288.4289469716  -6.398006601692 0.03800200  0.00060679  0.0271094 0.0000
 19  -1288.4470930208  -0.018146049135 0.03330523  0.00047025  0.0176302 0.0000
               *** Restarting incremental Fock matrix formation ***
                                   *** Resetting DIIS ***
 20  -1288.4482904921  -0.001197471357 0.04502583  0.00052568  0.0188104 0.0000
 21  -1288.4481894409   0.000101051242 0.02011451  0.00021950  0.0247092 0.0000
 22  -1288.4510702410  -0.002880800128 0.00585670  0.00007958  0.0061108 0.0000
 23  -1288.4513399459  -0.000269704934 0.00371936  0.00003623  0.0022277 0.0000
 24  -1288.4513806108  -0.000040664870 0.00270856  0.00003232  0.0006132 0.0000
               *** Restarting incremental Fock matrix formation ***
                                   *** Resetting DIIS ***
 25  -1288.4517769573  -0.000396346451 0.00473865  0.00009883  0.0007073 0.0000
 26  -1288.4517943281  -0.000017370806 0.00179507  0.00001752  0.0007276 0.0000
 27  -1288.4517941090   0.000000219028 0.00113678  0.00000988  0.0008569 0.0000
 28  -1288.4517979166  -0.000003807611 0.00025235  0.00000313  0.0001326 0.0000
 29  -1288.4517980674  -0.000000150794 0.00020557  0.00000172  0.0000843 0.0000
 30  -1288.4517981499  -0.000000082494 0.00007726  0.00000072  0.0000295 0.0000
 31  -1288.4517981731  -0.000000023128 0.00003989  0.00000046  0.0000144 0.0000
 32  -1288.4517981793  -0.000000006217 0.00002268  0.00000023  0.0000058 0.0000
 33  -1288.4517981829  -0.000000003635 0.00001384  0.00000011  0.0000031 0.0000
 34  -1288.4517981892  -0.000000006243 0.00000560  0.00000004  0.0000036 0.0000
                            ***DIIS convergence achieved***

               *****************************************************
               *                     SUCCESS                       *
               *           SCF CONVERGED AFTER  35 CYCLES          *
               *****************************************************

Old exchange energy                            =    -59.650123835 Eh
New exchange energy                            =    -59.650282330 Eh
Exchange energy change after final integration =     -0.000158495 Eh
Total energy after final integration           =  -1288.451956695 Eh
Final COS-X integration done in                =    60.953 sec

----------------
TOTAL SCF ENERGY
----------------

Total Energy       :        -1288.45195670 Eh          -35060.56019 eV

Components:
Nuclear Repulsion  :         2038.46018920 Eh           55469.32175 eV
Electronic Energy  :        -3326.91214589 Eh          -90529.88194 eV
One Electron Energy:        -5832.53852187 Eh         -158711.44191 eV
Two Electron Energy:         2505.62637598 Eh           68181.55997 eV
Max COSX asymmetry :            0.00002385 Eh               0.00065 eV

Virial components:
Potential Energy   :        -2501.52827242 Eh          -68070.04491 eV
Kinetic Energy     :         1213.07631573 Eh           33009.48472 eV
Virial Ratio       :            2.06213594


DFT components:
N(Alpha)           :       82.000292576135 electrons
N(Beta)            :       82.000292576135 electrons
N(Total)           :      164.000585152270 electrons
E(X)               :      -79.592270502562 Eh       
E(C)               :       -7.461564071988 Eh       
E(XC)              :      -87.053834574550 Eh       
DFET-embed. en.    :        0.000000000000 Eh       

---------------
SCF CONVERGENCE
---------------

  Last Energy change         ...   -1.0895e-08  Tolerance :   1.0000e-08
  Last MAX-Density change    ...    0.0000e+00  Tolerance :   1.0000e-07
  Last RMS-Density change    ...    0.0000e+00  Tolerance :   5.0000e-09
  Last DIIS Error            ...    7.5962e-07  Tolerance :   5.0000e-07

             **** THE GBW FILE WAS UPDATED (reaction4-IEIP_ts_guess_scan_13-11_orca.gbw) ****
             **** DENSITY reaction4-IEIP_ts_guess_scan_13-11_orca.scfp WAS UPDATED ****
             **** ENERGY FILE WAS UPDATED (reaction4-IEIP_ts_guess_scan_13-11_orca.en.tmp) ****
             **** THE GBW FILE WAS UPDATED (reaction4-IEIP_ts_guess_scan_13-11_orca.gbw) ****
             **** DENSITY reaction4-IEIP_ts_guess_scan_13-11_orca.scfp WAS UPDATED ****
----------------
ORBITAL ENERGIES
----------------

  NO   OCC          E(Eh)            E(eV) 
   0   2.0000     -89.762415     -2442.5595 
   1   2.0000     -19.638977      -534.4037 
   2   2.0000     -19.632316      -534.2225 
   3   2.0000     -14.831440      -403.5840 
   4   2.0000     -10.702191      -291.2214 
   5   2.0000     -10.651847      -289.8515 
   6   2.0000     -10.623025      -289.0672 
   7   2.0000     -10.622191      -289.0445 
   8   2.0000     -10.621980      -289.0388 
   9   2.0000     -10.620297      -288.9930 
  10   2.0000     -10.611985      -288.7668 
  11   2.0000     -10.611889      -288.7642 
  12   2.0000     -10.609686      -288.7042 
  13   2.0000     -10.609565      -288.7010 
  14   2.0000     -10.589305      -288.1497 
  15   2.0000     -10.588390      -288.1248 
  16   2.0000     -10.552379      -287.1448 
  17   2.0000     -10.550205      -287.0857 
  18   2.0000     -10.548484      -287.0388 
  19   2.0000      -8.401793      -228.6244 
  20   2.0000      -6.291673      -171.2051 
  21   2.0000      -6.288154      -171.1094 
  22   2.0000      -6.286749      -171.0711 
  23   2.0000      -4.018960      -109.3615 
  24   2.0000      -2.335815       -63.5608 
  25   2.0000      -2.306099       -62.7521 
  26   2.0000      -2.302173       -62.6453 
  27   2.0000      -1.334391       -36.3106 
  28   2.0000      -1.234093       -33.5814 
  29   2.0000      -1.208050       -32.8727 
  30   2.0000      -1.157359       -31.4933 
  31   2.0000      -1.126676       -30.6584 
  32   2.0000      -1.024387       -27.8750 
  33   2.0000      -0.970595       -26.4112 
  34   2.0000      -0.969170       -26.3725 
  35   2.0000      -0.963968       -26.2309 
  36   2.0000      -0.957871       -26.0650 
  37   2.0000      -0.944064       -25.6893 
  38   2.0000      -0.899519       -24.4772 
  39   2.0000      -0.871192       -23.7063 
  40   2.0000      -0.798126       -21.7181 
  41   2.0000      -0.781994       -21.2791 
  42   2.0000      -0.774752       -21.0821 
  43   2.0000      -0.773772       -21.0554 
  44   2.0000      -0.765827       -20.8392 
  45   2.0000      -0.758744       -20.6465 
  46   2.0000      -0.742933       -20.2162 
  47   2.0000      -0.722194       -19.6519 
  48   2.0000      -0.698872       -19.0173 
  49   2.0000      -0.684980       -18.6392 
  50   2.0000      -0.666104       -18.1256 
  51   2.0000      -0.663844       -18.0641 
  52   2.0000      -0.651150       -17.7187 
  53   2.0000      -0.639010       -17.3883 
  54   2.0000      -0.629703       -17.1351 
  55   2.0000      -0.625480       -17.0202 
  56   2.0000      -0.620927       -16.8963 
  57   2.0000      -0.610473       -16.6118 
  58   2.0000      -0.599581       -16.3154 
  59   2.0000      -0.595170       -16.1954 
  60   2.0000      -0.593903       -16.1609 
  61   2.0000      -0.590673       -16.0730 
  62   2.0000      -0.578965       -15.7544 
  63   2.0000      -0.571990       -15.5646 
  64   2.0000      -0.566049       -15.4030 
  65   2.0000      -0.561778       -15.2868 
  66   2.0000      -0.557896       -15.1811 
  67   2.0000      -0.545723       -14.8499 
  68   2.0000      -0.542848       -14.7716 
  69   2.0000      -0.535614       -14.5748 
  70   2.0000      -0.531117       -14.4524 
  71   2.0000      -0.518390       -14.1061 
  72   2.0000      -0.512659       -13.9501 
  73   2.0000      -0.504038       -13.7156 
[...]

----------------------
LOEWDIN ATOMIC CHARGES
----------------------
   0 Ir:   -0.264601
   1 C :   -0.067022
   2 C :   -0.098825
   3 C :   -0.104994
   4 C :   -0.037901
   5 C :   -0.022662
   6 N :   -0.004790
   7 C :   -0.069302
   8 C :   -0.361566
   9 H :    0.155724
  10 H :    0.132699
  11 H :    0.142469
  12 C :   -0.344029
  13 H :    0.152785
  14 H :    0.149988
  15 H :    0.138189
  16 H :    0.133632
  17 C :    0.028281
  18 C :   -0.197885
  19 H :    0.159698
  20 C :   -0.214062
  21 C :   -0.132572
  22 S :    0.497126
  23 C :   -0.255504
  24 H :    0.376023
  25 H :    0.162184
  26 H :    0.169504
  27 H :    0.181027
  28 H :    0.177320
  29 H :    0.185288
  30 O :   -0.255049
  31 O :   -0.170030
  32 C :    0.169314
  33 C :   -0.370791
  34 H :    0.165539
  35 H :    0.173633
  36 H :    0.157765
  37 H :    0.179974
  38 H :    0.183421

-------------------------------
LOEWDIN REDUCED ORBITAL CHARGES
-------------------------------
  0 Irs       :     2.451068  s :     2.451068
      pz      :     2.257299  p :     6.780613
      px      :     2.257338
      py      :     2.265975
      dz2     :     1.691023  d :     7.943482
      dxz     :     1.635508
      dyz     :     1.480630
      dx2y2   :     1.591426
      dxy     :     1.544894
      f0      :     0.010687  f :     0.089438
      f+1     :     0.006209
      f-1     :     0.016746
      f+2     :     0.013159
      f-2     :     0.015768
      f+3     :     0.010570
      f-3     :     0.016298
  1 C s       :     2.872866  s :     2.872866
      pz      :     1.054396  p :     3.091748
      px      :     1.070815
      py      :     0.966537
      dz2     :     0.025662  d :     0.102407
      dxz     :     0.025024
      dyz     :     0.015999
      dx2y2   :     0.019019
      dxy     :     0.016705
  2 C s       :     2.876904  s :     2.876904
      pz      :     1.034978  p :     3.124210
      px      :     1.092274
      py      :     0.996958
      dz2     :     0.024200  d :     0.097712
      dxz     :     0.028147
      dyz     :     0.015737
      dx2y2   :     0.017118
      dxy     :     0.012509
  3 C s       :     2.870532  s :     2.870532
      pz      :     1.028550  p :     3.136077
      px      :     1.082575
      py      :     1.024951
      dz2     :     0.021894  d :     0.098386
      dxz     :     0.030876
      dyz     :     0.015610
      dx2y2   :     0.016450
      dxy     :     0.013556
  4 C s       :     2.874050  s :     2.874050
      pz      :     1.076618  p :     3.058600
      px      :     1.045520
      py      :     0.936462
      dz2     :     0.023138  d :     0.105251
      dxz     :     0.028405
      dyz     :     0.013748
      dx2y2   :     0.020433
      dxy     :     0.019528
  5 C s       :     2.882817  s :     2.882817
      pz      :     1.047379  p :     3.037200
      px      :     1.045964
      py      :     0.943857
      dz2     :     0.020828  d :     0.102644
      dxz     :     0.031230
      dyz     :     0.015540
      dx2y2   :     0.015750
      dxy     :     0.019296
  6 N s       :     3.122352  s :     3.122352
      pz      :     1.246440  p :     3.784005
      px      :     1.286516
      py      :     1.251048
      dz2     :     0.029932  d :     0.098434
      dxz     :     0.027089
      dyz     :     0.018235
      dx2y2   :     0.012938
      dxy     :     0.010240
  7 C s       :     2.862147  s :     2.862147
      pz      :     1.054500  p :     3.072332
      px      :     0.939941
      py      :     1.077891
      dz2     :     0.029104  d :     0.134823
      dxz     :     0.029037
      dyz     :     0.012510
      dx2y2   :     0.031018
      dxy     :     0.033153
  8 C s       :     2.953439  s :     2.953439
      pz      :     1.139622  p :     3.340586
      px      :     1.123586
      py      :     1.077377
      dz2     :     0.015376  d :     0.067542
      dxz     :     0.017121
      dyz     :     0.004915
      dx2y2   :     0.011060
      dxy     :     0.019070
  9 H s       :     0.844276  s :     0.844276
 10 H s       :     0.867301  s :     0.867301
 11 H s       :     0.857531  s :     0.857531
 12 C s       :     2.953579  s :     2.953579
      pz      :     1.145283  p :     3.322512
      px      :     1.108232
      py      :     1.068996
      dz2     :     0.015601  d :     0.067939
      dxz     :     0.014264
      dyz     :     0.007170
      dx2y2   :     0.012680
      dxy     :     0.018224
 13 H s       :     0.847215  s :     0.847215
 14 H s       :     0.850012  s :     0.850012
 15 H s       :     0.861811  s :     0.861811
 16 H s       :     0.866368  s :     0.866368
 17 C s       :     2.875392  s :     2.875392
      pz      :     1.002804  p :     2.955930
      px      :     1.061914
      py      :     0.891212
      dz2     :     0.038051  d :     0.140397
      dxz     :     0.046466
      dyz     :     0.027109
      dx2y2   :     0.013154
      dxy     :     0.015618
 18 C s       :     2.889634  s :     2.889634
      pz      :     1.047951  p :     3.195582
      px      :     1.083417
      py      :     1.064214
      dz2     :     0.033030  d :     0.112669
      dxz     :     0.034151
      dyz     :     0.017434
      dx2y2   :     0.015837
      dxy     :     0.012218
 19 H s       :     0.840302  s :     0.840302
 20 C s       :     2.896852  s :     2.896852
      pz      :     1.146278  p :     3.210520
      px      :     1.059147
      py      :     1.005094
      dz2     :     0.016375  d :     0.106690
      dxz     :     0.040028
      dyz     :     0.014749
      dx2y2   :     0.018465
      dxy     :     0.017074
 21 C s       :     2.896154  s :     2.896154
      pz      :     1.073811  p :     3.141845
      px      :     1.083494
      py      :     0.984540
      dz2     :     0.028253  d :     0.094573
      dxz     :     0.031306
      dyz     :     0.015024
      dx2y2   :     0.012083
      dxy     :     0.007907
 22 S s       :     5.498213  s :     5.498213
      pz      :     3.261769  p :     9.848438
      px      :     3.076992
      py      :     3.509677
      dz2     :     0.047862  d :     0.156222
      dxz     :     0.036867
      dyz     :     0.017615
      dx2y2   :     0.025524
      dxy     :     0.028354
 23 C s       :     2.963941  s :     2.963941
      pz      :     1.118943  p :     3.205643
      px      :     1.032374
      py      :     1.054326
      dz2     :     0.023389  d :     0.085919
      dxz     :     0.030797
      dyz     :     0.011526
      dx2y2   :     0.011221
      dxy     :     0.008987
 24 H s       :     0.623977  s :     0.623977
 25 H s       :     0.837816  s :     0.837816
 26 H s       :     0.830496  s :     0.830496
 27 H s       :     0.818973  s :     0.818973
 28 H s       :     0.822680  s :     0.822680
 29 H s       :     0.814712  s :     0.814712
 30 O s       :     3.516241  s :     3.516241
      pz      :     1.442235  p :     4.684524
      px      :     1.593599
      py      :     1.648690
      dz2     :     0.015541  d :     0.054285
      dxz     :     0.014923
      dyz     :     0.014141
      dx2y2   :     0.006089
      dxy     :     0.003591
 31 O s       :     3.439985  s :     3.439985
      pz      :     1.689244  p :     4.669475
      px      :     1.580914
      py      :     1.399317
      dz2     :     0.008912  d :     0.060569
      dxz     :     0.004803
      dyz     :     0.015280
      dx2y2   :     0.014510
      dxy     :     0.017065
 32 C s       :     2.813174  s :     2.813174
      pz      :     0.958841  p :     2.700266
      px      :     0.773581
      py      :     0.967844
      dz2     :     0.070849  d :     0.317246
      dxz     :     0.052869
      dyz     :     0.092968
      dx2y2   :     0.051345
      dxy     :     0.049215
 33 C s       :     2.958007  s :     2.958007
      pz      :     1.104663  p :     3.350247
      px      :     1.155501
      py      :     1.090083
      dz2     :     0.004248  d :     0.062537
      dxz     :     0.016172
      dyz     :     0.021438
      dx2y2   :     0.018480
      dxy     :     0.002198
 34 H s       :     0.834461  s :     0.834461
 35 H s       :     0.826367  s :     0.826367
 36 H s       :     0.842235  s :     0.842235
 37 H s       :     0.820026  s :     0.820026
 38 H s       :     0.816579  s :     0.816579


                      *****************************
                      * MAYER POPULATION ANALYSIS *
                      *****************************

  NA   - Mulliken gross atomic population
  ZA   - Total nuclear charge
  QA   - Mulliken gross atomic charge
  VA   - Mayer's total valence
  BVA  - Mayer's bonded valence
  FA   - Mayer's free valence

  ATOM       NA         ZA         QA         VA         BVA        FA
  0 Ir    16.3873    17.0000     0.6127     3.7621     3.7621     0.0000
  1 C      6.2641     6.0000    -0.2641     3.7365     3.7365     0.0000
  2 C      6.2472     6.0000    -0.2472     3.7272     3.7272     0.0000
  3 C      6.2832     6.0000    -0.2832     3.7472     3.7472    -0.0000
  4 C      6.2141     6.0000    -0.2141     3.7116     3.7116     0.0000
  5 C      6.1505     6.0000    -0.1505     3.7004     3.7004     0.0000
  6 N      7.4359     7.0000    -0.4359     3.2121     3.2121    -0.0000
  7 C      6.1266     6.0000    -0.1266     3.7125     3.7125    -0.0000
  8 C      6.6781     6.0000    -0.6781     3.6891     3.6891    -0.0000
  9 H      0.7317     1.0000     0.2683     0.8978     0.8978    -0.0000
 10 H      0.7757     1.0000     0.2243     0.9110     0.9110    -0.0000
 11 H      0.7482     1.0000     0.2518     0.9013     0.9013    -0.0000
 12 C      6.6323     6.0000    -0.6323     3.6719     3.6719    -0.0000
 13 H      0.7244     1.0000     0.2756     0.8739     0.8739    -0.0000
 14 H      0.7429     1.0000     0.2571     0.8992     0.8992    -0.0000
 15 H      0.7670     1.0000     0.2330     0.9095     0.9095    -0.0000
 16 H      0.7654     1.0000     0.2346     0.9058     0.9058    -0.0000
 17 C      5.9297     6.0000     0.0703     3.6678     3.6678     0.0000
 18 C      6.1212     6.0000    -0.1212     3.6824     3.6824    -0.0000
 19 H      0.7162     1.0000     0.2838     0.8871     0.8871    -0.0000
 20 C      6.5747     6.0000    -0.5747     3.5872     3.5872    -0.0000
 21 C      6.0989     6.0000    -0.0989     3.7410     3.7410    -0.0000
 22 S     15.6560    16.0000     0.3440     2.5947     2.5947    -0.0000
 23 C      6.4230     6.0000    -0.4230     3.7512     3.7512     0.0000
 24 H      0.5241     1.0000     0.4759     0.7420     0.7420    -0.0000
 25 H      0.7328     1.0000     0.2672     0.9007     0.9007    -0.0000
 26 H      0.7021     1.0000     0.2979     0.8974     0.8974    -0.0000
 27 H      0.7169     1.0000     0.2831     0.9077     0.9077    -0.0000
 28 H      0.7213     1.0000     0.2787     0.9097     0.9097    -0.0000
 29 H      0.7066     1.0000     0.2934     0.8975     0.8975     0.0000
 30 O      8.4847     8.0000    -0.4847     2.1378     2.1378    -0.0000
 31 O      8.4958     8.0000    -0.4958     2.1295     2.1295     0.0000
 32 C      5.3645     6.0000     0.6355     3.8849     3.8849     0.0000
 33 C      6.7437     6.0000    -0.7437     3.6548     3.6548     0.0000
 34 H      0.7253     1.0000     0.2747     0.8924     0.8924     0.0000
 35 H      0.7222     1.0000     0.2778     0.8901     0.8901     0.0000
 36 H      0.7353     1.0000     0.2647     0.8962     0.8962     0.0000
 37 H      0.7215     1.0000     0.2785     0.9113     0.9113    -0.0000
 38 H      0.7088     1.0000     0.2912     0.9035     0.9035    -0.0000

  Mayer bond orders larger than 0.100000
B(  0-Ir,  1-C ) :   0.4684 B(  0-Ir,  2-C ) :   0.3609 B(  0-Ir,  3-C ) :   0.4760 
B(  0-Ir,  4-C ) :   0.4159 B(  0-Ir,  5-C ) :   0.3424 B(  0-Ir,  6-N ) :   0.4652 
B(  0-Ir, 20-C ) :   0.5688 B(  0-Ir, 31-O ) :   0.4986 B(  1-C ,  2-C ) :   1.1231 
B(  1-C ,  4-C ) :   1.2109 B(  1-C , 27-H ) :   0.9103 B(  2-C ,  5-C ) :   1.2611 
B(  2-C , 28-H ) :   0.9102 B(  3-C ,  4-C ) :   1.1556 B(  3-C ,  5-C ) :   1.1499 
B(  3-C , 37-H ) :   0.9153 B(  4-C , 38-H ) :   0.8997 B(  5-C , 29-H ) :   0.9031 
B(  6-N ,  7-C ) :   0.8969 B(  6-N , 17-C ) :   1.6406 B(  7-C ,  8-C ) :   0.9899 
B(  7-C , 12-C ) :   0.9673 B(  7-C , 13-H ) :   0.8792 B(  8-C ,  9-H ) :   0.9051 
B(  8-C , 10-H ) :   0.9132 B(  8-C , 11-H ) :   0.9132 B( 12-C , 14-H ) :   0.9081 
B( 12-C , 15-H ) :   0.9152 B( 12-C , 16-H ) :   0.9119 B( 17-C , 18-C ) :   1.1229 
B( 17-C , 19-H ) :   0.8769 B( 18-C , 20-C ) :   1.2188 B( 18-C , 22-S ) :   1.2312 
B( 20-C , 21-C ) :   1.2598 B( 20-C , 24-H ) :   0.2872 B( 21-C , 23-C ) :   1.5329 
B( 21-C , 25-H ) :   0.9021 B( 22-S , 23-C ) :   1.2250 B( 23-C , 26-H ) :   0.8917 
B( 24-H , 30-O ) :   0.3913 B( 30-O , 32-C ) :   1.5163 B( 31-O , 32-C ) :   1.4189 
B( 32-C , 33-C ) :   0.9449 B( 33-C , 34-H ) :   0.8989 B( 33-C , 35-H ) :   0.8915 
B( 33-C , 36-H ) :   0.9071 


------------------
HIRSHFELD ANALYSIS
------------------

Total integrated alpha density =     82.000121322
Total integrated beta density  =     82.000121322

  ATOM     CHARGE      SPIN    
   0 Ir   0.165595    0.000000
   1 C   -0.008574    0.000000
   2 C   -0.018047    0.000000
   3 C   -0.026130    0.000000
   4 C    0.003635    0.000000
   5 C    0.016198    0.000000
   6 N   -0.070303    0.000000
   7 C    0.052120    0.000000
   8 C   -0.071701    0.000000
   9 H    0.052805    0.000000
  10 H    0.037444    0.000000
  11 H    0.040121    0.000000
  12 C   -0.071200    0.000000
  13 H    0.043950    0.000000
  14 H    0.049194    0.000000
  15 H    0.037657    0.000000
  16 H    0.031099    0.000000
  17 C    0.091614    0.000000
  18 C   -0.013035    0.000000
  19 H    0.076532    0.000000
  20 C   -0.092241    0.000000
  21 C   -0.028736    0.000000
  22 S    0.142866    0.000000
  23 C   -0.023969    0.000000
  24 H    0.119310    0.000000
  25 H    0.067378    0.000000
  26 H    0.079602    0.000000
  27 H    0.079225    0.000000
  28 H    0.076940    0.000000
  29 H    0.088434    0.000000
  30 O   -0.219606    0.000000
  31 O   -0.238642    0.000000
  32 C    0.255348    0.000000
  33 C   -0.060520    0.000000
  34 H    0.059500    0.000000
  35 H    0.065420    0.000000
  36 H    0.053097    0.000000
  37 H    0.077782    0.000000
  38 H    0.079597    0.000000

  TOTAL   0.999757    0.000000

-------
TIMINGS
-------

Total SCF time: 0 days 0 hours 4 min 57 sec 

Total time                  ....     297.212 sec
Sum of individual times     ....     296.608 sec  ( 99.8%)

Fock matrix formation       ....     287.843 sec  ( 96.8%)
  Split-RI-J                ....      21.154 sec  (  7.3% of F)
  Chain of spheres X        ....     250.463 sec  ( 87.0% of F)
  XC integration            ....      16.234 sec  (  5.6% of F)
    Basis function eval.    ....       7.500 sec  ( 46.2% of XC)
    Density eval.           ....       4.280 sec  ( 26.4% of XC)
    XC-Functional eval.     ....       1.212 sec  (  7.5% of XC)
    XC-Potential eval.      ....       2.669 sec  ( 16.4% of XC)
Diagonalization             ....       0.253 sec  (  0.1%)
Density matrix formation    ....       0.039 sec  (  0.0%)
Population analysis         ....       1.626 sec  (  0.5%)
Initial guess               ....       0.033 sec  (  0.0%)
Orbital Transformation      ....       0.000 sec  (  0.0%)
Orbital Orthonormalization  ....       0.025 sec  (  0.0%)
DIIS solution               ....       0.094 sec  (  0.0%)
Grid generation             ....       6.721 sec  (  2.3%)

Maximum memory used throughout the entire SCF-calculation: 173.3 MB


-------------------------------------------------------------------------------
                          DFT DISPERSION CORRECTION                            
                                                                               
                              DFTD3 V3.1  Rev 1                                
                          USING Becke-Johnson damping                          
-------------------------------------------------------------------------------
The PBEh-3c composite method is recognized
Using three-body term ABC
Active option DFTDOPT                   ...         4   

molecular C6(AA) [au] = 19537.419994 


            DFT-D V3
 parameters
 s6 scaling factor         :     1.0000 
 a1 scaling factor         :     0.4860 
 s8 scaling factor         :     0.0000 
 a2 scaling factor         :     4.5000 
 Damping factor alpha9(ATM):    16.0000 
 ad hoc parameters k1-k3   :    16.0000     1.3333    -4.0000 

 Edisp/kcal,au: -19.267783236045  -0.030705163790 
 E6   /kcal   : -19.602371636 
 E8   /kcal   :  -0.000000000 
 E6(ABC)      :   0.334588400 
 % E8         :   0.000000000 
 % E6(ABC)    :  -1.736517355 

-------------------------   ----------------
Dispersion correction           -0.030705164
-------------------------   ----------------

 ** NOTE ** -> element ir will be treated as co
NOTIFICATION: Different basis set in ORCA and otool_gcp:
ORCA: 358  gCP: 357 
If you are NOT using ECPs, check your basis set inputs!
------------------   -----------------
gCP correction             0.079238789
------------------   -----------------

-------------------------   --------------------
FINAL SINGLE POINT ENERGY     -1288.403144856804
-------------------------   --------------------

                                *** OPTIMIZATION RUN DONE ***

                            ***************************************
                            *     ORCA property calculations      *
                            ***************************************

                                    ---------------------
                                    Active property flags
                                    ---------------------
   (+) Dipole Moment


------------------------------------------------------------------------------
                       ORCA ELECTRIC PROPERTIES CALCULATION
------------------------------------------------------------------------------

Dipole Moment Calculation                       ... on
Quadrupole Moment Calculation                   ... off
Polarizability Calculation                      ... off
GBWName                                         ... reaction4-IEIP_ts_guess_scan_13-11_orca.gbw
Electron density                                ... reaction4-IEIP_ts_guess_scan_13-11_orca.scfp
The origin for moment calculation is the CENTER OF MASS  = ( 0.867544, -0.542876 -0.198825)

-------------
DIPOLE MOMENT
-------------
                                X             Y             Z
Electronic contribution:     37.54772     -75.68900      69.01267
Nuclear contribution   :    -38.10131      75.46397     -69.20333
                        -----------------------------------------
Total Dipole Moment    :     -0.55358      -0.22503      -0.19066
                        -----------------------------------------
Magnitude (a.u.)       :      0.62725
Magnitude (Debye)      :      1.59434



--------------------
Rotational spectrum 
--------------------
 
Rotational constants in cm-1:     0.010581     0.008851     0.008236 
Rotational constants in MHz :   317.219927   265.352042   246.909048 

 Dipole components along the rotational axes: 
x,y,z [a.u.] :     0.029951     0.263292     0.568527 
x,y,z [Debye]:     0.076130     0.669236     1.445081 

 

Timings for individual modules:

Sum of individual times         ...     7503.972 sec (= 125.066 min)
GTO integral calculation        ...       25.928 sec (=   0.432 min)   0.3 %
SCF iterations                  ...     5841.336 sec (=  97.356 min)  77.8 %
SCF Gradient evaluation         ...     1631.789 sec (=  27.196 min)  21.7 %
Geometry relaxation             ...        4.918 sec (=   0.082 min)   0.1 %
                             ****ORCA TERMINATED NORMALLY****
TOTAL RUN TIME: 0 days 2 hours 5 minutes 9 seconds 184 msec
