
                                 *****************
                                 * O   R   C   A *
                                 *****************

                                            #,                                       
                                            ###                                      
                                            ####                                     
                                            #####                                    
                                            ######                                   
                                           ########,                                 
                                     ,,################,,,,,                         
                               ,,#################################,,                 
                          ,,##########################################,,             
                       ,#########################################, ''#####,          
                    ,#############################################,,   '####,        
                  ,##################################################,,,,####,       
                ,###########''''           ''''###############################       
              ,#####''   ,,,,##########,,,,          '''####'''          '####       
            ,##' ,,,,###########################,,,                        '##       
           ' ,,###''''                  '''############,,,                           
         ,,##''                                '''############,,,,        ,,,,,,###''
      ,#''                                            '''#######################'''  
     '                                                          ''''####''''         
             ,#######,   #######,   ,#######,      ##                                
            ,#'     '#,  ##    ##  ,#'     '#,    #''#        ######   ,####,        
            ##       ##  ##   ,#'  ##            #'  '#       #        #'  '#        
            ##       ##  #######   ##           ,######,      #####,   #    #        
            '#,     ,#'  ##    ##  '#,     ,#' ,#      #,         ##   #,  ,#        
             '#######'   ##     ##  '#######'  #'      '#     #####' # '####'        



                  #######################################################
                  #                        -***-                        #
                  #          Department of theory and spectroscopy      #
                  #    Directorship and core code : Frank Neese         #
                  #        Max Planck Institute fuer Kohlenforschung    #
                  #                Kaiser Wilhelm Platz 1               #
                  #                 D-45470 Muelheim/Ruhr               #
                  #                      Germany                        #
                  #                                                     #
                  #                  All rights reserved                #
                  #                        -***-                        #
                  #######################################################


                         Program Version 5.0.3 -  RELEASE  -


 With contributions from (in alphabetic order):
   Daniel Aravena         : Magnetic Suceptibility
   Michael Atanasov       : Ab Initio Ligand Field Theory (pilot matlab implementation)
   Alexander A. Auer      : GIAO ZORA, VPT2 properties, NMR spectrum
   Ute Becker             : Parallelization
   Giovanni Bistoni       : ED, misc. LED, open-shell LED, HFLD
   Martin Brehm           : Molecular dynamics
   Dmytro Bykov           : SCF Hessian
   Vijay G. Chilkuri      : MRCI spin determinant printing, contributions to CSF-ICE
   Dipayan Datta          : RHF DLPNO-CCSD density
   Achintya Kumar Dutta   : EOM-CC, STEOM-CC
   Dmitry Ganyushin       : Spin-Orbit,Spin-Spin,Magnetic field MRCI
   Miquel Garcia          : C-PCM and meta-GGA Hessian, CC/C-PCM, Gaussian charge scheme
   Yang Guo               : DLPNO-NEVPT2, F12-NEVPT2, CIM, IAO-localization
   Andreas Hansen         : Spin unrestricted coupled pair/coupled cluster methods
   Benjamin Helmich-Paris : MC-RPA, TRAH-SCF, COSX integrals
   Lee Huntington         : MR-EOM, pCC
   Robert Izsak           : Overlap fitted RIJCOSX, COSX-SCS-MP3, EOM
   Marcus Kettner         : VPT2
   Christian Kollmar      : KDIIS, OOCD, Brueckner-CCSD(T), CCSD density, CASPT2, CASPT2-K
   Simone Kossmann        : Meta GGA functionals, TD-DFT gradient, OOMP2, MP2 Hessian
   Martin Krupicka        : Initial AUTO-CI
   Lucas Lang             : DCDCAS
   Marvin Lechner         : AUTO-CI (C++ implementation), FIC-MRCC
   Dagmar Lenk            : GEPOL surface, SMD
   Dimitrios Liakos       : Extrapolation schemes; Compound Job, initial MDCI parallelization
   Dimitrios Manganas     : Further ROCIS development; embedding schemes
   Dimitrios Pantazis     : SARC Basis sets
   Anastasios Papadopoulos: AUTO-CI, single reference methods and gradients
   Taras Petrenko         : DFT Hessian,TD-DFT gradient, ASA, ECA, R-Raman, ABS, FL, XAS/XES, NRVS
   Peter Pinski           : DLPNO-MP2, DLPNO-MP2 Gradient
   Christoph Reimann      : Effective Core Potentials
   Marius Retegan         : Local ZFS, SOC
   Christoph Riplinger    : Optimizer, TS searches, QM/MM, DLPNO-CCSD(T), (RO)-DLPNO pert. Triples
   Tobias Risthaus        : Range-separated hybrids, TD-DFT gradient, RPA, STAB
   Michael Roemelt        : Original ROCIS implementation
   Masaaki Saitow         : Open-shell DLPNO-CCSD energy and density
   Barbara Sandhoefer     : DKH picture change effects
   Avijit Sen             : IP-ROCIS
   Kantharuban Sivalingam : CASSCF convergence, NEVPT2, FIC-MRCI
   Bernardo de Souza      : ESD, SOC TD-DFT
   Georgi Stoychev        : AutoAux, RI-MP2 NMR, DLPNO-MP2 response
   Willem Van den Heuvel  : Paramagnetic NMR
   Boris Wezisla          : Elementary symmetry handling
   Frank Wennmohs         : Technical directorship


 We gratefully acknowledge several colleagues who have allowed us to
 interface, adapt or use parts of their codes:
   Stefan Grimme, W. Hujo, H. Kruse, P. Pracht,  : VdW corrections, initial TS optimization,
                  C. Bannwarth, S. Ehlert          DFT functionals, gCP, sTDA/sTD-DF
   Ed Valeev, F. Pavosevic, A. Kumar             : LibInt (2-el integral package), F12 methods
   Garnet Chan, S. Sharma, J. Yang, R. Olivares  : DMRG
   Ulf Ekstrom                                   : XCFun DFT Library
   Mihaly Kallay                                 : mrcc  (arbitrary order and MRCC methods)
   Jiri Pittner, Ondrej Demel                    : Mk-CCSD
   Frank Weinhold                                : gennbo (NPA and NBO analysis)
   Christopher J. Cramer and Donald G. Truhlar   : smd solvation model
   Lars Goerigk                                  : TD-DFT with DH, B97 family of functionals
   V. Asgeirsson, H. Jonsson                     : NEB implementation
   FAccTs GmbH                                   : IRC, NEB, NEB-TS, DLPNO-Multilevel, CI-OPT
                                                   MM, QMMM, 2- and 3-layer-ONIOM, Crystal-QMMM,
                                                   LR-CPCM, SF, NACMEs, symmetry and pop. for TD-DFT,
                                                   nearIR, NL-DFT gradient (VV10), updates on ESD,
                                                   ML-optimized integration grids
   S Lehtola, MJT Oliveira, MAL Marques          : LibXC Library
   Liviu Ungur et al                             : ANISO software


 Your calculation uses the libint2 library for the computation of 2-el integrals
 For citations please refer to: http://libint.valeyev.net

 Your ORCA version has been built with support for libXC version: 5.1.0
 For citations please refer to: https://tddft.org/programs/libxc/

 This ORCA versions uses:
   CBLAS   interface :  Fast vector & matrix operations
   LAPACKE interface :  Fast linear algebra routines
   SCALAPACK package :  Parallel linear algebra routines
   Shared memory     :  Shared parallel matrices
   BLAS/LAPACK       :  OpenBLAS 0.3.15  USE64BITINT DYNAMIC_ARCH NO_AFFINITY SkylakeX SINGLE_THREADED
        Core in use  :  SkylakeX
   Copyright (c) 2011-2014, The OpenBLAS Project


Your calculation utilizes the geometrical counterpoise correction gCP
Please cite in your paper:
H.Kruse, S. Grimme J.Chem.Phys., 136, (2012), 154101 
   

Your calculation utilizes the atom-pairwise dispersion correction
with the Becke-Johnson damping scheme (D3BJ)
Cite in your paper:
S.Grimme, S.Ehrlich, L.Goerigk, J Comput Chem, (2011), 32, 1456–1465 
S.Grimme, J.Antony, S.Ehrlich and H.Krieg, J.Chem.Phys., 132, (2010), 154104 
   

Your calculation employs the composite approach PBEh-3c.
Please cite in your paper:
S. Grimme, J. G. Brandenburg, C. Bannwarth, A. Hansen J.Chem.Phys., 143, (2015), 054107 
   

================================================================================

cite the ECPs for Ir [Def2-ECP] as follows:
Ce-Yb(ecp-28): M. Dolg, H. Stoll, H.Preuss, J. Chem. Phys., 1989, 90, 1730-1734.
Y-Cd(ecp-28), Hf-Hg(ecp-46): D. Andrae,U. Haeussermann, M. Dolg, H. Stoll, H. Preuss, Theor. Chim. Acta, 1990, 77, 123-141.
In-Sb(ecp-28), Tl-Bi(ecp-46): B. Metz, H. Stoll, M. Dolg, J. Chem. Phys., 2000, 113, 2563-2569.
Te-Xe(ecp-28), Po-Rn(ecp-46): K. A. Peterson, D. Figgen, E. Goll, H. Stoll, M. Dolg, J. Chem. Phys., 2003, 119, 11113-11123.
Rb(ecp-28), Cs(ecp-46): T. Leininger, A. Nicklass, W. Kuechle, H. Stoll, M. Dolg, A. Bergner, Chem. Phys. Lett., 1996, 255, 274-280.
Sr(ecp-28), Ba(ecp-46): M. Kaupp, P. V. Schleyer, H. Stoll and H. Preuss, J. Chem. Phys., 1991, 94, 1360-1366.
La(ecp-46): M. Dolg, H. Stoll, A. Savin, H. Preuss, Theor. Chim. Acta, 1989, 75, 173-194.
Lu(ecp-28): X. Cao, M. Dolg, J. Chem. Phys., 2001, 115, 7348-7355.

ECP parameters for Ir [Def2-ECP] have been obtained from:
TURBOMOLE (7.0.2)

----- Orbital basis set information -----
Your calculation utilizes the basis: def2-mSVP

----- AuxJ basis set information -----
Your calculation utilizes the auxiliary basis: def2/J
   F. Weigend, Phys. Chem. Chem. Phys. 8, 1057 (2006).

================================================================================
                                        WARNINGS
                       Please study these warnings very carefully!
================================================================================


WARNING: Geometry Optimization
  ===> : Switching off AutoStart
         For restart on a previous wavefunction, please use MOREAD

WARNING: No Hueckel Guess possible with ECP basis!
  ===> : Switching to HCORE guess!

INFO   : the flag for use of the SHARK integral package has been found!

================================================================================
                                       INPUT FILE
================================================================================
NAME = reaction4-IEIP_ts_guess_scan_12-13_orca.inp
|  1> ! Opt PBEh-3c
|  2> %geom Constraints
|  3> { B 0 20 2.085714285714286 C }
|  4> { B 24 30 1.3142857142857143 C }
|  5>     end
|  6> end
|  7> %output 
|  8> xyzfile=True 
|  9> end 
| 10> %scf 
| 11> maxiter 250 
| 12> end
| 13> %output
| 14> Print[P_Hirshfeld] = 1
| 15> end
| 16> % maxcore
| 17> 4000
| 18> %pal nprocs 2
| 19> end
| 20> *xyz 1 1
| 21> Ir   0.60771117  -0.74367235   0.42824312 
| 22> C    0.12760266  -2.85255013   0.36415854 
| 23> C   -0.10641916  -2.39404299   1.70930613 
| 24> C    2.13196425  -2.07789504   1.21326582 
| 25> C    1.49963095  -2.67532723   0.07117476 
| 26> C    1.13126271  -1.93640140   2.21579100 
| 27> N   -1.07213546   0.10447962  -0.50936809 
| 28> C   -2.34928087   0.28756706   0.19707601 
| 29> C   -3.14382632   1.49765297  -0.27364953 
| 30> H   -3.97842345   1.65677806   0.40727921 
| 31> H   -3.57359508   1.36368245  -1.26724521 
| 32> H   -2.54162499   2.40651494  -0.27132590 
| 33> C   -3.17144364  -0.99222279   0.09507199 
| 34> H   -2.07603093   0.44888820   1.24106905 
| 35> H   -4.08242673  -0.89758027   0.68476937 
| 36> H   -3.46134057  -1.19093903  -0.93749663 
| 37> H   -2.62815772  -1.85914174   0.46746206 
| 38> C   -0.91802345   0.47708357  -1.72757233 
| 39> C    0.39846433   0.31701098  -2.26457208 
| 40> H   -1.72854281   0.91413373  -2.30184668 
| 41> C    1.43133731   0.03749060  -1.37237924 
| 42> C    2.64603571  -0.17360482  -2.09149855 
| 43> S    0.89388853   0.35290256  -3.88932491 
| 44> C    2.49990630  -0.02698262  -3.43912702 
| 45> H    1.65294445   1.17262208  -0.63206028 
| 46> H    3.60097062  -0.36985027  -1.62568368 
| 47> H    3.26417647  -0.10605008  -4.19736465 
| 48> H   -0.60469378  -3.29088512  -0.29802163 
| 49> H   -1.03713395  -2.43794543   2.25382227 
| 50> H    1.28077346  -1.48519300   3.18657908 
| 51> O    1.76950715   2.28661372   0.08245899 
| 52> O    0.58344528   1.03929852   1.49358089 
| 53> C    1.16316771   2.11444647   1.16617933 
| 54> C    1.14271514   3.24348819   2.15155846 
| 55> H    1.00980761   4.19512979   1.64162401 
| 56> H    2.10646372   3.28447620   2.66200131 
| 57> H    0.36558112   3.10694356   2.89783160 
| 58> H    3.18203341  -1.85750337   1.32681060 
| 59> H    1.98307888  -2.94022560  -0.85783718 
| 60> *
| 61> 
| 62>                          ****END OF INPUT****
================================================================================

                       *****************************
                       * Geometry Optimization Run *
                       *****************************

Geometry optimization settings:
Update method            Update   .... BFGS
Choice of coordinates    CoordSys .... Z-matrix Internals
Initial Hessian          InHess   .... Almoef's Model

Convergence Tolerances:
Energy Change            TolE     ....  5.0000e-06 Eh
Max. Gradient            TolMAXG  ....  3.0000e-04 Eh/bohr
RMS Gradient             TolRMSG  ....  1.0000e-04 Eh/bohr
Max. Displacement        TolMAXD  ....  4.0000e-03 bohr
RMS Displacement         TolRMSD  ....  2.0000e-03 bohr
Strict Convergence                ....  False
------------------------------------------------------------------------------
                        ORCA OPTIMIZATION COORDINATE SETUP
------------------------------------------------------------------------------

The optimization will be done in new redundant internal coordinates
Making redundant internal coordinates   ...  (new redundants) done
Evaluating the initial hessian          ...  (Almloef) done
Evaluating the coordinates              ...  done
Calculating the B-matrix                .... done
Calculating the G-matrix                .... done
Diagonalizing the G-matrix              .... done
Imposing constraints:
 Iter   0:  RMS(Cart)=    0.0165427567 RMS(Int)=    0.0107810745
 Iter   1:  RMS(Cart)=    0.0029975569 RMS(Int)=    0.0020953388
 Iter   2:  RMS(Cart)=    0.0005817869 RMS(Int)=    0.0004110707
 Iter   3:  RMS(Cart)=    0.0001140232 RMS(Int)=    0.0000807533
 Iter   4:  RMS(Cart)=    0.0000223912 RMS(Int)=    0.0000158680
 Iter   5:  RMS(Cart)=    0.0000043993 RMS(Int)=    0.0000031183
 Iter   6:  RMS(Cart)=    0.0000008645 RMS(Int)=    0.0000006128
 Iter   7:  RMS(Cart)=    0.0000001699 RMS(Int)=    0.0000001204
 Iter   8:  RMS(Cart)=    0.0000000334 RMS(Int)=    0.0000000237
CONVERGED
Small eigenvalue found = 1.439e-02
Small eigenvalue found = 2.368e-02
The first mode is                       ....  288
The number of degrees of freedom        ....  111
Storing new coordinates                 .... done

    -----------------------------------------------------------------
                    Redundant Internal Coordinates


    -----------------------------------------------------------------
         Definition                    Initial Value    Approx d2E/dq
    -----------------------------------------------------------------
      1. B(C   1,Ir  0)                  2.1634         0.084754   
      2. B(C   2,Ir  0)                  2.2074         0.072074   
      3. B(C   2,C   1)                  1.4405         0.519415   
      4. B(C   3,Ir  0)                  2.1721         0.082084   
      5. B(C   4,C   3)                  1.4354         0.528297   
      6. B(C   4,Ir  0)                  2.1571         0.086771   
      7. B(C   4,C   1)                  1.4149         0.571836   
      8. B(C   5,Ir  0)                  2.2111         0.071051   
      9. B(C   5,C   2)                  1.4148         0.573242   
     10. B(C   5,C   3)                  1.4250         0.552356   
     11. B(N   6,Ir  0)                  2.1028         0.095089   
     12. B(C   7,N   6)                  1.4710         0.415652   
     13. B(C   8,C   7)                  1.5222         0.384388   
     14. B(H   9,C   8)                  1.0888         0.361659   
     15. B(H  10,C   8)                  1.0908         0.359021   
     16. B(H  11,C   8)                  1.0903         0.359747   
     17. B(C  12,C   7)                  1.5245         0.381145   
     18. B(H  13,C   7)                  1.0912         0.358580   
     19. B(H  14,C  12)                  1.0893         0.361018   
     20. B(H  15,C  12)                  1.0907         0.359115   
     21. B(H  16,C  12)                  1.0888         0.361754   
     22. B(C  17,N   6)                  1.2773         0.828449   
     23. B(C  18,C  17)                  1.4253         0.537869   
     24. B(H  19,C  17)                  1.0852         0.366452   
     25. B(C  20,Ir  0)                  2.0857         0.096460 C 
     26. B(C  20,C  18)                  1.3944         0.617527   
     27. B(C  21,C  20)                  1.4278         0.544789   
     28. B(S  22,C  18)                  1.6990         0.541425   
     29. B(C  23,C  21)                  1.3633         0.688845   
     30. B(C  23,S  22)                  1.7100         0.518738   
     31. B(H  24,C  20)                  1.3733         0.127227   
     32. B(H  25,C  21)                  1.0805         0.372942   
     33. B(H  26,C  23)                  1.0795         0.374284   
     34. B(H  27,C   1)                  1.0802         0.373271   
     35. B(H  28,C   2)                  1.0792         0.374685   
     36. B(H  29,C   5)                  1.0809         0.372324   
     37. B(O  30,H  24)                  1.3143         0.134256 C 
     38. B(O  31,Ir  0)                  2.0773         0.104360   
     39. B(C  32,O  30)                  1.2504         0.923314   
     40. B(C  32,O  31)                  1.2619         0.887040   
     41. B(C  33,C  32)                  1.4987         0.419085   
     42. B(H  34,C  33)                  1.0878         0.363016   
     43. B(H  35,C  33)                  1.0913         0.358319   
     44. B(H  36,C  33)                  1.0861         0.365363   
     45. B(H  37,C   3)                  1.0789         0.375033   
     46. B(H  38,C   4)                  1.0803         0.373222   
     47. A(C   3,Ir  0,C  20)          104.8692         0.250078   
     48. A(C   2,Ir  0,N   6)          107.4534         0.243785   
     49. A(C   5,Ir  0,C  20)          142.0630         0.244900   
     50. A(C   2,Ir  0,C   5)           37.3482         0.234949   
     51. A(N   6,Ir  0,O  31)           82.7239         0.256108   
     52. A(N   6,Ir  0,C  20)           77.7150         0.254339   
     53. A(C   4,Ir  0,C   5)           63.4964         0.241210   
     54. A(C   1,Ir  0,C   4)           38.2312         0.247409   
     55. A(C   5,Ir  0,O  31)           92.8642         0.246568   
     56. A(C   3,Ir  0,C   4)           38.7265         0.246265   
     57. A(C   1,Ir  0,O  31)          148.0716         0.252985   
     58. A(C   1,Ir  0,N   6)          101.6223         0.249568   
     59. A(C   4,Ir  0,N   6)          128.1329         0.250425   
     60. A(C   2,Ir  0,C   3)           63.8567         0.239796   
     61. A(C   3,Ir  0,O  31)          110.4858         0.251801   
     62. A(C   1,Ir  0,C   2)           38.4685         0.240893   
     63. A(C   4,Ir  0,C  20)           91.4783         0.252116   
     64. A(C   2,Ir  0,C  20)          152.8121         0.245406   
     65. A(C   1,Ir  0,C  20)          114.6343         0.251249   
     66. A(C   1,Ir  0,C   3)           64.4319         0.245430   
     67. A(C   1,Ir  0,C   5)           63.3573         0.240402   
     68. A(C   2,Ir  0,O  31)          109.8276         0.247079   
     69. A(C   5,Ir  0,N   6)          140.0118         0.243285   
     70. A(C   2,Ir  0,C   4)           63.9749         0.241703   
     71. A(C   4,Ir  0,O  31)          149.1244         0.253860   
     72. A(C   3,Ir  0,C   5)           37.9308         0.239309   
     73. A(C   3,Ir  0,N   6)          165.7786         0.248409   
     74. A(C  20,Ir  0,O  31)           97.2449         0.257857   
     75. A(C   2,C   1,H  27)          126.2522         0.344614   
     76. A(C   4,C   1,H  27)          125.5515         0.350238   
     77. A(Ir  0,C   1,C   2)           72.4194         0.313019   
     78. A(Ir  0,C   1,H  27)          124.3519         0.268791   
     79. A(C   2,C   1,C   4)          108.1606         0.414501   
     80. A(Ir  0,C   1,C   4)           70.6430         0.317947   
     81. A(Ir  0,C   2,C   1)           69.1121         0.304951   
     82. A(C   1,C   2,C   5)          107.1619         0.414682   
     83. A(Ir  0,C   2,H  28)          127.0352         0.262464   
     84. A(C   5,C   2,H  28)          126.0086         0.350607   
     85. A(Ir  0,C   2,C   5)           71.4672         0.309824   
     86. A(C   1,C   2,H  28)          126.7543         0.344833   
     87. A(C   4,C   3,H  37)          126.6711         0.345871   
     88. A(C   5,C   3,H  37)          126.1568         0.348473   
     89. A(C   4,C   3,C   5)          106.9707         0.413200   
     90. A(Ir  0,C   3,C   4)           70.0726         0.312257   
     91. A(Ir  0,C   3,C   5)           72.5192         0.314518   
     92. A(Ir  0,C   3,H  37)          126.5582         0.267683   
     93. A(Ir  0,C   4,C   1)           71.1258         0.319169   
     94. A(C   3,C   4,H  38)          126.0626         0.345589   
     95. A(Ir  0,C   4,C   3)           71.2009         0.315080   
     96. A(Ir  0,C   4,H  38)          123.1738         0.269745   
     97. A(C   1,C   4,H  38)          125.5705         0.350230   
     98. A(C   1,C   4,C   3)          108.3656         0.415753   
     99. A(Ir  0,C   5,H  29)          122.2498         0.261656   
    100. A(C   2,C   5,H  29)          125.3274         0.350233   
    101. A(C   3,C   5,H  29)          125.2331         0.348048   
    102. A(Ir  0,C   5,C   3)           69.5500         0.307269   
    103. A(C   2,C   5,C   3)          109.3087         0.419247   
    104. A(Ir  0,C   5,C   2)           71.1845         0.309111   
    105. A(Ir  0,N   6,C  17)          116.2676         0.340639   
    106. A(C   7,N   6,C  17)          121.6726         0.420062   
    107. A(Ir  0,N   6,C   7)          122.0491         0.304269   
    108. A(C   8,C   7,H  13)          108.0023         0.325617   
    109. A(C  12,C   7,H  13)          108.8549         0.325164   
    110. A(N   6,C   7,C   8)          113.8048         0.369553   
    111. A(N   6,C   7,C  12)          109.3668         0.369016   
    112. A(C   8,C   7,C  12)          111.4165         0.366386   
    113. A(N   6,C   7,H  13)          105.0986         0.327860   
    114. A(C   7,C   8,H   9)          108.8370         0.326075   
    115. A(C   7,C   8,H  10)          112.9352         0.325683   
    116. A(H   9,C   8,H  10)          106.5943         0.290900   
    117. A(C   7,C   8,H  11)          111.9448         0.325791   
    118. A(H   9,C   8,H  11)          107.4708         0.290992   
    119. A(H  10,C   8,H  11)          108.7800         0.290658   
    120. A(C   7,C  12,H  14)          109.9896         0.325526   
    121. A(C   7,C  12,H  15)          111.0758         0.325243   
    122. A(H  14,C  12,H  15)          107.8205         0.290831   
    123. A(C   7,C  12,H  16)          112.1128         0.325635   
    124. A(H  14,C  12,H  16)          107.5376         0.291165   
    125. A(H  15,C  12,H  16)          108.1408         0.290924   
    126. A(N   6,C  17,C  18)          115.0473         0.442863   
    127. A(N   6,C  17,H  19)          122.3239         0.369592   
    128. A(C  18,C  17,H  19)          122.6050         0.345569   
    129. A(C  17,C  18,S  22)          128.5587         0.435800   
    130. A(C  20,C  18,S  22)          113.7060         0.446812   
    131. A(C  17,C  18,C  20)          117.6747         0.422842   
    132. A(C  18,C  20,C  21)          109.5647         0.423809   
    133. A(Ir  0,C  20,H  24)           85.1787         0.234106   
    134. A(C  18,C  20,H  24)          107.3510         0.297349   
    135. A(C  21,C  20,H  24)          104.6578         0.291522   
    136. A(Ir  0,C  20,C  18)          109.7676         0.328888   
    137. A(Ir  0,C  20,C  21)          134.0838         0.322179   
    138. A(C  20,C  21,C  23)          113.1235         0.432195   
    139. A(C  20,C  21,H  25)          124.1280         0.347337   
    140. A(C  23,C  21,H  25)          122.6487         0.361426   
    141. A(C  18,S  22,C  23)           90.9762         0.457117   
    142. A(C  21,C  23,S  22)          112.6182         0.452237   
    143. A(C  21,C  23,H  26)          127.6272         0.361648   
    144. A(S  22,C  23,H  26)          119.7432         0.362646   
    145. L(C  20,H  24,O  30,Ir  0, 1) 179.0718         0.215085   
    146. L(C  20,H  24,O  30,Ir  0, 2) 184.5743         0.215085   
    147. A(H  24,O  30,C  32)          107.4963         0.315433   
    148. A(Ir  0,O  31,C  32)          126.1234         0.350000   
    149. A(O  30,C  32,O  31)          123.7543         0.491791   
    150. A(O  30,C  32,C  33)          118.3593         0.431738   
    151. A(O  31,C  32,C  33)          117.8743         0.428643   
    152. A(C  32,C  33,H  34)          110.6405         0.330963   
    153. A(C  32,C  33,H  35)          108.8903         0.330251   
    154. A(H  34,C  33,H  35)          107.1150         0.290981   
    155. A(C  32,C  33,H  36)          111.5208         0.331316   
    156. A(H  34,C  33,H  36)          110.1622         0.291873   
    157. A(H  35,C  33,H  36)          108.3746         0.291276   
    158. D(C   4,C   1,Ir  0,C   5)    -80.2147         0.001698   
    159. D(H  27,C   1,Ir  0,C   5)    159.3644         0.001698   
    160. D(C   4,C   1,Ir  0,C  20)     57.5738         0.001698   
    161. D(C   2,C   1,Ir  0,N   6)   -103.4954         0.001698   
    162. D(C   2,C   1,Ir  0,C   3)     79.4539         0.001698   
    163. D(H  27,C   1,Ir  0,C   3)   -158.2156         0.001698   
    164. D(C   4,C   1,Ir  0,N   6)    139.2560         0.001698   
    165. D(H  27,C   1,Ir  0,O  31)    113.7442         0.001698   
    166. D(C   2,C   1,Ir  0,C   4)    117.2487         0.001698   
    167. D(H  27,C   1,Ir  0,C  20)    -62.8471         0.001698   
    168. D(C   2,C   1,Ir  0,C  20)    174.8224         0.001698   
    169. D(C   4,C   1,Ir  0,C   3)    -37.7948         0.001698   
    170. D(C   4,C   1,Ir  0,C   2)   -117.2487         0.001698   
    171. D(C   2,C   1,Ir  0,C   5)     37.0339         0.001698   
    172. D(H  27,C   1,Ir  0,C   4)   -120.4209         0.001698   
    173. D(C   4,C   1,Ir  0,O  31)   -125.8350         0.001698   
    174. D(H  27,C   1,Ir  0,C   2)    122.3305         0.001698   
    175. D(C   2,C   1,Ir  0,O  31)     -8.5863         0.001698   
    176. D(H  27,C   1,Ir  0,N   6)     18.8351         0.001698   
    177. D(C   1,C   2,Ir  0,C   5)   -117.4539         0.001644   
    178. D(H  28,C   2,C   1,C   4)   -176.7185         0.021409   
    179. D(C   5,C   2,C   1,H  27)    178.1781         0.021409   
    180. D(C   1,C   2,Ir  0,N   6)     86.7764         0.001644   
    181. D(C   1,C   2,Ir  0,C   3)    -81.0786         0.001644   
    182. D(C   1,C   2,Ir  0,C   4)    -37.7518         0.001644   
    183. D(H  28,C   2,C   1,Ir  0)    121.3062         0.021409   
    184. D(C   5,C   2,Ir  0,C  20)    107.1115         0.001644   
    185. D(H  28,C   2,Ir  0,C   1)   -120.9570         0.001644   
    186. D(H  28,C   2,C   1,H  27)      1.1958         0.021409   
    187. D(H  28,C   2,Ir  0,N   6)    -34.1806         0.001644   
    188. D(C   5,C   2,Ir  0,C   3)     36.3753         0.001644   
    189. D(H  28,C   2,Ir  0,C  20)   -131.2995         0.001644   
    190. D(C   5,C   2,C   1,Ir  0)    -61.7114         0.021409   
    191. D(Ir  0,C   2,C   1,H  27)   -120.1105         0.021409   
    192. D(H  28,C   2,Ir  0,C   3)    157.9644         0.001644   
    193. D(C   5,C   2,Ir  0,N   6)   -155.7697         0.001644   
    194. D(C   5,C   2,Ir  0,C   1)    117.4539         0.001644   
    195. D(C   5,C   2,Ir  0,C   4)     79.7021         0.001644   
    196. D(H  28,C   2,Ir  0,O  31)     54.2283         0.001644   
    197. D(C   5,C   2,Ir  0,O  31)    -67.3608         0.001644   
    198. D(H  28,C   2,Ir  0,C   5)    121.5890         0.001644   
    199. D(C   1,C   2,Ir  0,C  20)    -10.3424         0.001644   
    200. D(C   1,C   2,Ir  0,O  31)    175.1853         0.001644   
    201. D(Ir  0,C   2,C   1,C   4)     61.9753         0.021409   
    202. D(C   5,C   2,C   1,C   4)      0.2639         0.021409   
    203. D(H  28,C   2,Ir  0,C   4)   -158.7089         0.001644   
    204. D(C   4,C   3,Ir  0,C   2)     80.2589         0.001686   
    205. D(H  37,C   3,Ir  0,C   1)    158.7837         0.001686   
    206. D(H  37,C   3,Ir  0,C   5)   -122.4486         0.001686   
    207. D(C   4,C   3,Ir  0,O  31)   -177.0333         0.001686   
    208. D(H  37,C   3,Ir  0,C   2)   -158.2730         0.001686   
    209. D(C   5,C   3,Ir  0,C   1)    -78.7677         0.001686   
    210. D(C   4,C   3,Ir  0,N   6)     25.4780         0.001686   
    211. D(C   5,C   3,Ir  0,O  31)     66.8834         0.001686   
    212. D(H  37,C   3,Ir  0,C   4)    121.4680         0.001686   
    213. D(C   5,C   3,Ir  0,C   4)   -116.0834         0.001686   
    214. D(H  37,C   3,Ir  0,N   6)    146.9460         0.001686   
    215. D(C   4,C   3,Ir  0,C   1)     37.3157         0.001686   
    216. D(C   4,C   3,Ir  0,C  20)    -73.2363         0.001686   
    217. D(C   5,C   3,Ir  0,C   2)    -35.8245         0.001686   
    218. D(C   5,C   3,Ir  0,N   6)    -90.6054         0.001686   
    219. D(C   4,C   3,Ir  0,C   5)    116.0834         0.001686   
    220. D(C   5,C   3,Ir  0,C  20)    170.6803         0.001686   
    221. D(H  37,C   3,Ir  0,C  20)     48.2317         0.001686   
    222. D(H  37,C   3,Ir  0,O  31)    -55.5652         0.001686   
    223. D(C   1,C   4,Ir  0,C  20)   -129.8688         0.001707   
    224. D(C   1,C   4,Ir  0,C   2)     37.9851         0.001707   
    225. D(C   3,C   4,Ir  0,C   2)    -79.9276         0.001707   
    226. D(C   1,C   4,Ir  0,C   5)     79.8196         0.001707   
    227. D(C   1,C   4,Ir  0,N   6)    -54.3662         0.001707   
    228. D(C   3,C   4,Ir  0,C   5)    -38.0931         0.001707   
    229. D(C   3,C   4,Ir  0,C   1)   -117.9127         0.001707   
    230. D(C   1,C   4,Ir  0,O  31)    123.3339         0.001707   
    231. D(C   1,C   4,Ir  0,C   3)    117.9127         0.001707   
    232. D(H  38,C   4,C   1,Ir  0)   -117.8035         0.026168   
    233. D(C   3,C   4,Ir  0,C  20)    112.2186         0.001707   
    234. D(C   3,C   4,Ir  0,O  31)      5.4212         0.001707   
    235. D(Ir  0,C   4,C   1,C   2)    -63.1173         0.026168   
    236. D(H  38,C   4,Ir  0,C   1)    120.7287         0.001707   
    237. D(H  38,C   4,Ir  0,C   3)   -121.3586         0.001707   
    238. D(H  38,C   4,Ir  0,C   5)   -159.4517         0.001707   
    239. D(H  38,C   4,Ir  0,N   6)     66.3625         0.001707   
    240. D(H  38,C   4,Ir  0,C  20)     -9.1400         0.001707   
    241. D(H  38,C   4,Ir  0,C   2)    158.7138         0.001707   
    242. D(Ir  0,C   4,C   1,H  27)    118.9501         0.026168   
    243. D(H  38,C   4,Ir  0,O  31)   -115.9374         0.001707   
    244. D(C   3,C   4,C   1,Ir  0)     61.8138         0.026168   
    245. D(C   3,C   4,C   1,C   2)     -1.3035         0.026168   
    246. D(H  38,C   4,C   1,C   2)    179.0792         0.026168   
    247. D(C   3,C   4,Ir  0,N   6)   -172.2789         0.001707   
    248. D(C   3,C   4,C   1,H  27)   -179.2361         0.026168   
    249. D(Ir  0,C   4,C   3,H  37)   -121.3306         0.022174   
    250. D(Ir  0,C   4,C   3,C   5)     63.5958         0.022174   
    251. D(H  38,C   4,C   3,C   5)   -178.5552         0.022174   
    252. D(C   1,C   4,C   3,C   5)      1.8298         0.022174   
    253. D(C   1,C   4,C   3,H  37)    176.9033         0.022174   
    254. D(H  38,C   4,C   3,Ir  0)    117.8489         0.022174   
    255. D(H  38,C   4,C   1,H  27)      1.1465         0.026168   
    256. D(H  38,C   4,C   3,H  37)     -3.4817         0.022174   
    257. D(C   1,C   4,C   3,Ir  0)    -61.7660         0.022174   
    258. D(H  29,C   5,C   2,H  28)     -6.0865         0.026304   
    259. D(C   2,C   5,Ir  0,C   4)    -81.0983         0.001640   
    260. D(C   2,C   5,Ir  0,C   3)   -119.9918         0.001640   
    261. D(C   3,C   5,C   2,C   1)      0.8889         0.026304   
    262. D(C   2,C   5,Ir  0,C  20)   -134.7412         0.001640   
    263. D(C   2,C   5,Ir  0,O  31)    119.6205         0.001640   
    264. D(H  29,C   5,Ir  0,O  31)     -0.8666         0.001640   
    265. D(C   3,C   5,Ir  0,C   2)    119.9918         0.001640   
    266. D(C   3,C   5,Ir  0,C   4)     38.8935         0.001640   
    267. D(C   3,C   5,Ir  0,N   6)    157.5259         0.001640   
    268. D(C   3,C   5,Ir  0,C  20)    -14.7493         0.001640   
    269. D(C   3,C   5,Ir  0,O  31)   -120.3877         0.001640   
    270. D(H  29,C   5,Ir  0,C   1)   -158.6284         0.001640   
    271. D(H  29,C   5,Ir  0,C   2)   -120.4870         0.001640   
    272. D(H  29,C   5,Ir  0,C   3)    119.5212         0.001640   
    273. D(H  29,C   5,Ir  0,C   4)    158.4146         0.001640   
    274. D(H  29,C   5,Ir  0,N   6)    -82.9530         0.001640   
    275. D(C   3,C   5,Ir  0,C   1)     81.8505         0.001640   
    276. D(H  29,C   5,Ir  0,C  20)    104.7718         0.001640   
    277. D(Ir  0,C   5,C   2,C   1)     60.1922         0.026304   
    278. D(Ir  0,C   5,C   2,H  28)   -122.7967         0.026304   
    279. D(C   2,C   5,Ir  0,N   6)     37.5341         0.001640   
    280. D(C   3,C   5,C   2,Ir  0)    -59.3032         0.026304   
    281. D(H  29,C   5,C   2,Ir  0)    116.7102         0.026304   
    282. D(C   3,C   5,C   2,H  28)    177.9001         0.026304   
    283. D(C   2,C   5,Ir  0,C   1)    -38.1413         0.001640   
    284. D(H  29,C   5,C   2,C   1)    176.9023         0.026304   
    285. D(H  29,C   5,C   3,H  37)      7.1964         0.024331   
    286. D(Ir  0,C   5,C   3,H  37)    122.9092         0.024331   
    287. D(C   2,C   5,C   3,Ir  0)     60.3053         0.024331   
    288. D(C   2,C   5,C   3,C   4)     -1.6793         0.024331   
    289. D(C   2,C   5,C   3,H  37)   -176.7855         0.024331   
    290. D(H  29,C   5,C   3,Ir  0)   -115.7128         0.024331   
    291. D(Ir  0,C   5,C   3,C   4)    -61.9846         0.024331   
    292. D(H  29,C   5,C   3,C   4)   -177.6974         0.024331   
    293. D(C   7,N   6,Ir  0,C   1)     78.6428         0.001768   
    294. D(C   7,N   6,Ir  0,C   2)     39.2894         0.001768   
    295. D(C   7,N   6,Ir  0,C   3)     89.5329         0.001768   
    296. D(C   7,N   6,Ir  0,C   4)    109.5395         0.001768   
    297. D(C   7,N   6,Ir  0,C   5)     16.4946         0.001768   
    298. D(C   7,N   6,Ir  0,C  20)   -168.3569         0.001768   
    299. D(C   7,N   6,Ir  0,O  31)    -69.2709         0.001768   
    300. D(C  17,N   6,Ir  0,C   1)   -102.5288         0.001768   
    301. D(C  17,N   6,Ir  0,C   2)   -141.8822         0.001768   
    302. D(C  17,N   6,Ir  0,C   3)    -91.6387         0.001768   
    303. D(C  17,N   6,Ir  0,C   4)    -71.6321         0.001768   
    304. D(C  17,N   6,Ir  0,C   5)   -164.6770         0.001768   
    305. D(C  17,N   6,Ir  0,C  20)     10.4715         0.001768   
    306. D(C  17,N   6,Ir  0,O  31)    109.5575         0.001768   
    307. D(C   8,C   7,N   6,Ir  0)    148.5286         0.014734   
    308. D(C   8,C   7,N   6,C  17)    -30.2369         0.014734   
    309. D(C  12,C   7,N   6,Ir  0)    -86.1542         0.014734   
    310. D(C  12,C   7,N   6,C  17)     95.0802         0.014734   
    311. D(H  13,C   7,N   6,Ir  0)     30.5662         0.014734   
    312. D(H  13,C   7,N   6,C  17)   -148.1993         0.014734   
    313. D(H   9,C   8,C   7,N   6)   -170.3778         0.011762   
    314. D(H   9,C   8,C   7,C  12)     65.4027         0.011762   
    315. D(H   9,C   8,C   7,H  13)    -54.1004         0.011762   
    316. D(H  10,C   8,C   7,N   6)     71.4573         0.011762   
    317. D(H  10,C   8,C   7,C  12)    -52.7623         0.011762   
    318. D(H  10,C   8,C   7,H  13)   -172.2654         0.011762   
    319. D(H  11,C   8,C   7,N   6)    -51.7290         0.011762   
    320. D(H  11,C   8,C   7,C  12)   -175.9486         0.011762   
    321. D(H  11,C   8,C   7,H  13)     64.5483         0.011762   
    322. D(H  14,C  12,C   7,N   6)    175.2668         0.011575   
    323. D(H  14,C  12,C   7,C   8)    -58.0469         0.011575   
    324. D(H  14,C  12,C   7,H  13)     60.9489         0.011575   
    325. D(H  15,C  12,C   7,N   6)    -65.4459         0.011575   
    326. D(H  15,C  12,C   7,C   8)     61.2404         0.011575   
    327. D(H  15,C  12,C   7,H  13)   -179.7637         0.011575   
    328. D(H  16,C  12,C   7,N   6)     55.6689         0.011575   
    329. D(H  16,C  12,C   7,C   8)   -177.6448         0.011575   
    330. D(H  16,C  12,C   7,H  13)    -58.6490         0.011575   
    331. D(C  18,C  17,N   6,Ir  0)     -2.4656         0.059028   
    332. D(C  18,C  17,N   6,C   7)    176.3676         0.059028   
    333. D(H  19,C  17,N   6,Ir  0)    179.2666         0.059028   
    334. D(H  19,C  17,N   6,C   7)     -1.9002         0.059028   
    335. D(C  20,C  18,C  17,N   6)    -12.5297         0.019763   
    336. D(C  20,C  18,C  17,H  19)    165.7327         0.019763   
    337. D(S  22,C  18,C  17,N   6)    164.4382         0.019763   
    338. D(S  22,C  18,C  17,H  19)    -17.2994         0.019763   
    339. D(C  18,C  20,Ir  0,C   1)     81.5679         0.001755   
    340. D(H  24,C  20,C  18,C  17)    -70.6104         0.028659   
    341. D(C  18,C  20,Ir  0,C   3)    149.8833         0.001755   
    342. D(C  18,C  20,Ir  0,C   4)    113.0695         0.001755   
    343. D(Ir  0,C  20,C  18,C  17)     20.4622         0.028659   
    344. D(C  18,C  20,Ir  0,N   6)    -15.7265         0.001755   
    345. D(C  18,C  20,Ir  0,O  31)    -96.6156         0.001755   
    346. D(H  24,C  20,Ir  0,C   4)   -140.2095         0.001755   
    347. D(C  21,C  20,Ir  0,C   2)    -58.8803         0.001755   
    348. D(C  21,C  20,Ir  0,C   3)      2.3776         0.001755   
    349. D(C  21,C  20,Ir  0,C   4)    -34.4362         0.001755   
    350. D(C  21,C  20,Ir  0,C   5)     11.6960         0.001755   
    351. D(C  21,C  20,Ir  0,N   6)   -163.2322         0.001755   
    352. D(C  21,C  20,Ir  0,O  31)    115.8786         0.001755   
    353. D(H  24,C  20,Ir  0,C   1)   -171.7111         0.001755   
    354. D(H  24,C  20,Ir  0,C   2)   -164.6536         0.001755   
    355. D(C  21,C  20,Ir  0,C   1)    -65.9378         0.001755   
    356. D(H  24,C  20,Ir  0,C   3)   -103.3957         0.001755   
    357. D(H  24,C  20,Ir  0,C   5)    -94.0773         0.001755   
    358. D(H  24,C  20,Ir  0,N   6)     90.9944         0.001755   
    359. D(C  18,C  20,Ir  0,C   5)    159.2017         0.001755   
    360. D(H  24,C  20,Ir  0,O  31)     10.1053         0.001755   
    361. D(Ir  0,C  20,C  18,S  22)   -156.9486         0.028659   
    362. D(C  21,C  20,C  18,C  17)    176.2863         0.028659   
    363. D(C  18,C  20,Ir  0,C   2)     88.6254         0.001755   
    364. D(C  21,C  20,C  18,S  22)     -1.1246         0.028659   
    365. D(H  24,C  20,C  18,S  22)    111.9788         0.028659   
    366. D(C  23,C  21,C  20,Ir  0)    148.6177         0.022016   
    367. D(C  23,C  21,C  20,C  18)      1.0658         0.022016   
    368. D(C  23,C  21,C  20,H  24)   -113.7751         0.022016   
    369. D(H  25,C  21,C  20,Ir  0)    -34.9382         0.022016   
    370. D(H  25,C  21,C  20,C  18)    177.5099         0.022016   
    371. D(H  25,C  21,C  20,H  24)     62.6690         0.022016   
    372. D(C  23,S  22,C  18,C  17)   -176.3560         0.005881   
    373. D(C  23,S  22,C  18,C  20)      0.7114         0.005881   
    374. D(S  22,C  23,C  21,C  20)     -0.5652         0.033331   
    375. D(S  22,C  23,C  21,H  25)   -177.0694         0.033331   
    376. D(H  26,C  23,C  21,C  20)    178.1911         0.033331   
    377. D(H  26,C  23,C  21,H  25)      1.6869         0.033331   
    378. D(C  21,C  23,S  22,C  18)     -0.0728         0.005503   
    379. D(H  26,C  23,S  22,C  18)   -178.9383         0.005503   
    380. D(C  32,O  30,C  20,Ir  0)     -9.5104         0.001501   
    381. D(C  32,O  30,C  20,C  18)     99.5785         0.001501   
    382. D(C  32,O  30,C  20,C  21)   -144.0320         0.001501   
    383. D(C  32,O  31,Ir  0,C   1)    170.7444         0.001805   
    384. D(C  32,O  31,Ir  0,C   2)    165.0784         0.001805   
    385. D(C  32,O  31,Ir  0,C   3)     96.5042         0.001805   
    386. D(C  32,O  31,Ir  0,C   4)     92.8867         0.001805   
    387. D(C  32,O  31,Ir  0,C   5)    130.9802         0.001805   
    388. D(C  32,O  31,Ir  0,N   6)    -88.9368         0.001805   
    389. D(C  32,O  31,Ir  0,C  20)    -12.3787         0.001805   
    390. D(O  31,C  32,O  30,H  24)      1.6597         0.068209   
    391. D(C  33,C  32,O  30,H  24)   -179.6323         0.068209   
    392. D(O  30,C  32,O  31,Ir  0)      5.1345         0.062260   
    393. D(C  33,C  32,O  31,Ir  0)   -173.5794         0.062260   
    394. D(H  34,C  33,C  32,O  30)     40.0196         0.012989   
    395. D(H  34,C  33,C  32,O  31)   -141.1955         0.012989   
    396. D(H  35,C  33,C  32,O  30)    -77.4497         0.012989   
    397. D(H  35,C  33,C  32,O  31)    101.3351         0.012989   
    398. D(H  36,C  33,C  32,O  30)    163.0073         0.012989   
    399. D(H  36,C  33,C  32,O  31)    -18.2078         0.012989   
    -----------------------------------------------------------------

Number of atoms                         .... 39
Number of degrees of freedom            .... 399

         *************************************************************
         *                GEOMETRY OPTIMIZATION CYCLE   1            *
         *************************************************************
---------------------------------
CARTESIAN COORDINATES (ANGSTROEM)
---------------------------------
  Ir     0.610633   -0.737463    0.416938
  C      0.133157   -2.846397    0.347892
  C     -0.099622   -2.391452    1.694689
  C      2.139150   -2.070632    1.194270
  C      1.505074   -2.666258    0.052492
  C      1.139482   -1.932726    2.200398
  N     -1.074416    0.109074   -0.513492
  C     -2.350008    0.289244    0.196516
  C     -3.147764    1.498586   -0.270703
  H     -3.980836    1.655546    0.412601
  H     -3.579919    1.365083   -1.263330
  H     -2.547042    2.408429   -0.268888
  C     -3.170348   -0.991769    0.095161
  H     -2.074285    0.449783    1.239982
  H     -4.079940   -0.899308    0.687358
  H     -3.462627   -1.189744   -0.936881
  H     -2.624670   -1.858238    0.465107
  C     -0.923414    0.481084   -1.726079
  C      0.391722    0.313455   -2.249380
  H     -1.731081    0.919315   -2.303481
  C      1.416379    0.029709   -1.347268
  C      2.634295   -0.187891   -2.060030
  S      0.898016    0.343152   -3.870889
  C      2.498304   -0.043918   -3.408836
  H      1.642198    1.167884   -0.612735
  H      3.585634   -0.386971   -1.588037
  H      3.267532   -0.128235   -4.161529
  H     -0.599661   -3.284094   -0.314133
  H     -1.029500   -2.438063    2.240416
  H      1.290312   -1.483444    3.171879
  O      1.767378    2.277622    0.080200
  O      0.584558    1.041952    1.488530
  C      1.162734    2.115197    1.162568
  C      1.144134    3.247307    2.144471
  H      1.012827    4.197600    1.631603
  H      2.107936    3.288260    2.654816
  H      0.366750    3.114355    2.891141
  H      3.189182   -1.848907    1.305572
  H      1.987116   -2.927938   -0.878169

----------------------------
CARTESIAN COORDINATES (A.U.)
----------------------------
  NO LB      ZA    FRAG     MASS         X           Y           Z
   0 Ir   17.0000*   0   192.220    1.153929   -1.393603    0.787899
   1 C     6.0000    0    12.011    0.251630   -5.378910    0.657420
   2 C     6.0000    0    12.011   -0.188258   -4.519188    3.202498
   3 C     6.0000    0    12.011    4.042408   -3.912928    2.256844
   4 C     6.0000    0    12.011    2.844178   -5.038497    0.099196
   5 C     6.0000    0    12.011    2.153309   -3.652322    4.158150
   6 N     7.0000    0    14.007   -2.030351    0.206120   -0.970358
   7 C     6.0000    0    12.011   -4.440872    0.546592    0.371361
   8 C     6.0000    0    12.011   -5.948413    2.831917   -0.511554
   9 H     1.0000    0     1.008   -7.522691    3.128529    0.779703
  10 H     1.0000    0     1.008   -6.765066    2.579632   -2.387347
  11 H     1.0000    0     1.008   -4.813211    4.551271   -0.508126
  12 C     6.0000    0    12.011   -5.991089   -1.874171    0.179828
  13 H     1.0000    0     1.008   -3.919831    0.849967    2.343227
  14 H     1.0000    0     1.008   -7.709969   -1.699446    1.298918
  15 H     1.0000    0     1.008   -6.543416   -2.248289   -1.770449
  16 H     1.0000    0     1.008   -4.959907   -3.511562    0.878925
  17 C     6.0000    0    12.011   -1.745000    0.909116   -3.261817
  18 C     6.0000    0    12.011    0.740248    0.592345   -4.250713
  19 H     1.0000    0     1.008   -3.271268    1.737254   -4.352948
  20 C     6.0000    0    12.011    2.676568    0.056141   -2.545968
  21 C     6.0000    0    12.011    4.978097   -0.355062   -3.892892
  22 S    16.0000    0    32.060    1.697004    0.648464   -7.314920
  23 C     6.0000    0    12.011    4.721111   -0.082994   -6.441767
  24 H     1.0000    0     1.008    3.103305    2.206981   -1.157901
  25 H     1.0000    0     1.008    6.775866   -0.731269   -3.000955
  26 H     1.0000    0     1.008    6.174741   -0.242329   -7.864151
  27 H     1.0000    0     1.008   -1.133196   -6.206038   -0.593626
  28 H     1.0000    0     1.008   -1.945474   -4.607272    4.233773
  29 H     1.0000    0     1.008    2.438336   -2.803303    5.993982
  30 O     8.0000    0    15.999    3.339860    4.304081    0.151557
  31 O     8.0000    0    15.999    1.104655    1.969004    2.812914
  32 C     6.0000    0    12.011    2.197249    3.997144    2.196936
  33 C     6.0000    0    12.011    2.162099    6.136521    4.052463
  34 H     1.0000    0     1.008    1.913966    7.932314    3.083282
  35 H     1.0000    0     1.008    3.983421    6.213912    5.016875
  36 H     1.0000    0     1.008    0.693058    5.885277    5.463466
  37 H     1.0000    0     1.008    6.026680   -3.493928    2.467173
  38 H     1.0000    0     1.008    3.755104   -5.533001   -1.659499
* core charge reduced due to ECP

--------------------------------
INTERNAL COORDINATES (ANGSTROEM)
--------------------------------
 Ir     0   0   0     0.000000000000     0.00000000     0.00000000
 C      1   0   0     2.163787537108     0.00000000     0.00000000
 C      2   1   0     1.440283669473    72.42976181     0.00000000
 C      1   2   3     2.172500466724    64.39410110    79.38063616
 C      2   1   3     1.414110702946    70.65299982   242.79322678
 C      3   2   1     1.413442308608   107.18510103   298.26301197
 N      1   2   3     2.102465515925   101.69377261   256.40503156
 C      7   1   2     1.470946863552   121.98881942    78.57732185
 C      8   7   1     1.522232871707   113.80482439   148.52350998
 H      9   8   7     1.088823728906   108.83698571   189.62226692
 H      9   8   7     1.090816970264   112.93500111    71.45740112
 H      9   8   7     1.090266903846   111.94485982   308.27087832
 C      8   7   1     1.524538782922   109.36672128   273.84069124
 H      8   7   1     1.091151459464   105.09860347    30.56139305
 H     13   8   7     1.089307301379   109.98944429   175.26679208
 H     13   8   7     1.090745767387   111.07601941   294.55418697
 H     13   8   7     1.088752690455   112.11285785    55.66891931
 C      7   1   2     1.283201381520   116.39447261   257.39433498
 C     18   7   1     1.430780220879   115.74257985   357.36309047
 H     18   7   1     1.085239837252   121.97883316   179.19468240
 C     19  18   7     1.393185665802   117.66142226   347.47405175
 C     21  19  18     1.427300270203   109.75294113   176.25390163
 S     19  18   7     1.698986492605   128.67218925   164.48606613
 C     22  21  19     1.363434768207   113.00884109     1.15095913
 H     21  19  18     1.373209876137   107.40003516   289.71855620
 H     22  21  19     1.080461221930   124.18181955   177.60327902
 H     24  22  21     1.079483607810   127.62615535   178.18106808
 H      2   1   3     1.080221374088   124.33690921   122.35327605
 H      3   2   1     1.079191952937   126.75603506   121.29036593
 H      6   3   2     1.080912568558   125.31712775   176.90930015
 O     25  21  19     1.328571422326   175.72450286    36.77770077
 O      1   2   3     2.077141911588   148.12391826   351.42283152
 C     31  25  21     1.253690094801   107.89751552    63.18436473
 C     33  31  25     1.498707957862   118.13115645   180.36022560
 H     34  33  31     1.087804803114   110.64034968    39.96990650
 H     34  33  31     1.091349277515   108.89044579   282.50043932
 H     34  33  31     1.086050330560   111.52073039   162.95738009
 H      4   1   2     1.078939361620   126.54235230   158.79851410
 H      5   2   1     1.080257484173   125.56727512   242.20746317

---------------------------
INTERNAL COORDINATES (A.U.)
---------------------------
 Ir     0   0   0     0.000000000000     0.00000000     0.00000000
 C      1   0   0     4.088965857127     0.00000000     0.00000000
 C      2   1   0     2.721741690463    72.42976181     0.00000000
 C      1   2   3     4.105430907924    64.39410110    79.38063616
 C      2   1   3     2.672281951616    70.65299982   242.79322678
 C      3   2   1     2.671018869367   107.18510103   298.26301197
 N      1   2   3     3.973084031112   101.69377261   256.40503156
 C      7   1   2     2.779686729664   121.98881942    78.57732185
 C      8   7   1     2.876603239578   113.80482439   148.52350998
 H      9   8   7     2.057578655748   108.83698571   189.62226692
 H      9   8   7     2.061345336032   112.93500111    71.45740112
 H      9   8   7     2.060305861148   111.94485982   308.27087832
 C      8   7   1     2.880960780264   109.36672128   273.84069124
 H      8   7   1     2.061977429015   105.09860347    30.56139305
 H     13   8   7     2.058492475286   109.98944429   175.26679208
 H     13   8   7     2.061210782095   111.07601941   294.55418697
 H     13   8   7     2.057444412531   112.11285785    55.66891931
 C      7   1   2     2.424899185743   116.39447261   257.39433498
 C     18   7   1     2.703782775293   115.74257985   357.36309047
 H     18   7   1     2.050806082028   121.97883316   179.19468240
 C     19  18   7     2.632739362071   117.66142226   347.47405175
 C     21  19  18     2.697206621556   109.75294113   176.25390163
 S     19  18   7     3.210619176254   128.67218925   164.48606613
 C     22  21  19     2.576518313377   113.00884109     1.15095913
 H     21  19  18     2.594990590296   107.40003516   289.71855620
 H     22  21  19     2.041775807771   124.18181955   177.60327902
 H     24  22  21     2.039928384818   127.62615535   178.18106808
 H      2   1   3     2.041322561034   124.33690921   122.35327605
 H      3   2   1     2.039377236982   126.75603506   121.29036593
 H      6   3   2     2.042628729288   125.31712775   176.90930015
 O     25  21  19     2.510636137551   175.72450286    36.77770077
 O      1   2   3     3.925229354191   148.12391826   351.42283152
 C     31  25  21     2.369130935983   107.89751552    63.18436473
 C     33  31  25     2.832147595088   118.13115645   180.36022560
 H     34  33  31     2.055653165050   110.64034968    39.96990650
 H     34  33  31     2.062351250956   108.89044579   282.50043932
 H     34  33  31     2.052337692412   111.52073039   162.95738009
 H      4   1   2     2.038899908570   126.54235230   158.79851410
 H      5   2   1     2.041390799206   125.56727512   242.20746317

---------------------
BASIS SET INFORMATION
---------------------
There are 6 groups of distinct atoms

 Group   1 Type Ir  : 7s6p5d1f contracted to 6s3p2d1f pattern {211111/411/41/1}
 Group   2 Type C   : 8s4p1d contracted to 4s2p1d pattern {5111/31/1}
 Group   3 Type N   : 8s4p1d contracted to 4s2p1d pattern {5111/31/1}
 Group   4 Type H   : 4s contracted to 2s pattern {31}
 Group   5 Type S   : 10s7p1d contracted to 4s3p1d pattern {5311/511/1}
 Group   6 Type O   : 8s4p1d contracted to 4s2p1d pattern {5111/31/1}

Atom   0Ir   basis set group =>   1
Atom   1C    basis set group =>   2
Atom   2C    basis set group =>   2
Atom   3C    basis set group =>   2
Atom   4C    basis set group =>   2
Atom   5C    basis set group =>   2
Atom   6N    basis set group =>   3
Atom   7C    basis set group =>   2
Atom   8C    basis set group =>   2
Atom   9H    basis set group =>   4
Atom  10H    basis set group =>   4
Atom  11H    basis set group =>   4
Atom  12C    basis set group =>   2
Atom  13H    basis set group =>   4
Atom  14H    basis set group =>   4
Atom  15H    basis set group =>   4
Atom  16H    basis set group =>   4
Atom  17C    basis set group =>   2
Atom  18C    basis set group =>   2
Atom  19H    basis set group =>   4
Atom  20C    basis set group =>   2
Atom  21C    basis set group =>   2
Atom  22S    basis set group =>   5
Atom  23C    basis set group =>   2
Atom  24H    basis set group =>   4
Atom  25H    basis set group =>   4
Atom  26H    basis set group =>   4
Atom  27H    basis set group =>   4
Atom  28H    basis set group =>   4
Atom  29H    basis set group =>   4
Atom  30O    basis set group =>   6
Atom  31O    basis set group =>   6
Atom  32C    basis set group =>   2
Atom  33C    basis set group =>   2
Atom  34H    basis set group =>   4
Atom  35H    basis set group =>   4
Atom  36H    basis set group =>   4
Atom  37H    basis set group =>   4
Atom  38H    basis set group =>   4
---------------------------------
AUXILIARY/J BASIS SET INFORMATION
---------------------------------
There are 6 groups of distinct atoms

 Group   1 Type Ir  : 11s5p5d3f3g contracted to 8s5p5d2f3g pattern {41111111/11111/11111/21/111}
 Group   2 Type C   : 12s5p4d2f1g contracted to 6s4p3d1f1g pattern {711111/2111/211/2/1}
 Group   3 Type N   : 12s5p4d2f1g contracted to 6s4p3d1f1g pattern {711111/2111/211/2/1}
 Group   4 Type H   : 5s2p1d contracted to 3s1p1d pattern {311/2/1}
 Group   5 Type S   : 14s5p5d2f1g contracted to 8s4p3d1f1g pattern {71111111/2111/311/2/1}
 Group   6 Type O   : 12s5p4d2f1g contracted to 6s4p3d1f1g pattern {711111/2111/211/2/1}

Atom   0Ir   basis set group =>   1
Atom   1C    basis set group =>   2
Atom   2C    basis set group =>   2
Atom   3C    basis set group =>   2
Atom   4C    basis set group =>   2
Atom   5C    basis set group =>   2
Atom   6N    basis set group =>   3
Atom   7C    basis set group =>   2
Atom   8C    basis set group =>   2
Atom   9H    basis set group =>   4
Atom  10H    basis set group =>   4
Atom  11H    basis set group =>   4
Atom  12C    basis set group =>   2
Atom  13H    basis set group =>   4
Atom  14H    basis set group =>   4
Atom  15H    basis set group =>   4
Atom  16H    basis set group =>   4
Atom  17C    basis set group =>   2
Atom  18C    basis set group =>   2
Atom  19H    basis set group =>   4
Atom  20C    basis set group =>   2
Atom  21C    basis set group =>   2
Atom  22S    basis set group =>   5
Atom  23C    basis set group =>   2
Atom  24H    basis set group =>   4
Atom  25H    basis set group =>   4
Atom  26H    basis set group =>   4
Atom  27H    basis set group =>   4
Atom  28H    basis set group =>   4
Atom  29H    basis set group =>   4
Atom  30O    basis set group =>   6
Atom  31O    basis set group =>   6
Atom  32C    basis set group =>   2
Atom  33C    basis set group =>   2
Atom  34H    basis set group =>   4
Atom  35H    basis set group =>   4
Atom  36H    basis set group =>   4
Atom  37H    basis set group =>   4
Atom  38H    basis set group =>   4
-------------------------
ECP PARAMETER INFORMATION
-------------------------

 Group 1, Type Ir ECP Def2-ECP (replacing 60 core electrons, lmax=3)

Atom   0Ir   ECP group =>   1



           ************************************************************
           *        Program running with 2 parallel MPI-processes     *
           *              working on a common directory               *
           ************************************************************
------------------------------------------------------------------------------
                           ORCA GTO INTEGRAL CALCULATION
                           -- RI-GTO INTEGRALS CHOSEN --
------------------------------------------------------------------------------
------------------------------------------------------------------------------
                   ___                                                        
                  /   \      - P O W E R E D   B Y -                         
                 /     \                                                     
                 |  |  |   _    _      __       _____    __    __             
                 |  |  |  | |  | |    /  \     |  _  \  |  |  /  |          
                  \  \/   | |  | |   /    \    | | | |  |  | /  /          
                 / \  \   | |__| |  /  /\  \   | |_| |  |  |/  /          
                |  |  |   |  __  | /  /__\  \  |    /   |      \           
                |  |  |   | |  | | |   __   |  |    \   |  |\   \          
                \     /   | |  | | |  |  |  |  | |\  \  |  | \   \       
                 \___/    |_|  |_| |__|  |__|  |_| \__\ |__|  \__/        
                                                                              
                      - O R C A' S   B I G   F R I E N D -                    
                                      &                                       
                       - I N T E G R A L  F E E D E R -                       
                                                                              
 v1 FN, 2020, v2 2021                                                         
------------------------------------------------------------------------------


Reading SHARK input file reaction4-IEIP_ts_guess_scan_12-13_orca.SHARKINP.tmp ... ok
----------------------
SHARK INTEGRAL PACKAGE
----------------------

Number of atoms                             ...     39
Number of basis functions                   ...    358
Number of shells                            ...    184
Maximum angular momentum                    ...      3
Integral batch strategy                     ... SHARK/LIBINT Hybrid
RI-J (if used) integral strategy            ... SPLIT-RIJ (Revised 2003 algorithm where possible)
Printlevel                                  ...      1
Contraction scheme used                     ... SEGMENTED contraction
Coulomb Range Separation                    ... NOT USED
Exchange Range Separation                   ... NOT USED
Finite Nucleus Model                        ... NOT USED
Auxiliary Coulomb fitting basis             ... AVAILABLE
   # of basis functions in Aux-J            ...   1231
   # of shells in Aux-J                     ...    405
   Maximum angular momentum in Aux-J        ...      4
Auxiliary J/K fitting basis                 ... NOT available
Auxiliary Correlation fitting basis         ... NOT available
Auxiliary 'external' fitting basis          ... NOT available
Integral threshold                          ...     2.500000e-11
Primitive cut-off                           ...     2.500000e-12
Primitive pair pre-selection threshold      ...     2.500000e-12

Calculating pre-screening integrals         ... done (  0.3 sec) Dimension = 184
Organizing shell pair data                  ... done (  0.6 sec)
Shell pair information
Total number of shell pairs                 ...     17020
Shell pairs after pre-screening             ...     12989
Total number of primitive shell pairs       ...     60705
Primitive shell pairs kept                  ...     29228
          la=0 lb=0:   4972 shell pairs
          la=1 lb=0:   4270 shell pairs
          la=1 lb=1:    860 shell pairs
          la=2 lb=0:   1751 shell pairs
          la=2 lb=1:    787 shell pairs
          la=2 lb=2:    175 shell pairs
          la=3 lb=0:    111 shell pairs
          la=3 lb=1:     41 shell pairs
          la=3 lb=2:     21 shell pairs
          la=3 lb=3:      1 shell pairs

Calculating one electron integrals          ... done (  0.2 sec)
Calculating ECP integrals                   ... done (  3.9 sec)
Calculating RI/J V-Matrix + Cholesky decomp.... done (  2.9 sec)
Calculating Nuclear repulsion               ... done (  0.0 sec) ENN=   2035.809588919273 Eh

SHARK setup successfully completed in   9.7 seconds

Maximum memory used throughout the entire GTOINT-calculation: 34.7 MB


           ************************************************************
           *        Program running with 2 parallel MPI-processes     *
           *              working on a common directory               *
           ************************************************************
-------------------------------------------------------------------------------
                                 ORCA SCF
-------------------------------------------------------------------------------

------------
SCF SETTINGS
------------
Hamiltonian:
 Density Functional     Method          .... DFT(GTOs)
 Exchange Functional    Exchange        .... PBE
   PBE kappa parameter   XKappa         ....  1.024500
   PBE mue parameter    XMuePBE         ....  0.123457
 Correlation Functional Correlation     .... PBE
   PBE beta parameter  CBetaPBE         ....  0.030000
 LDA part of GGA corr.  LDAOpt          .... PW91-LDA
 Gradients option       PostSCFGGA      .... off
 Hybrid DFT is turned on
   Fraction HF Exchange ScalHFX         ....  0.420000
   Scaling of DF-GGA-X  ScalDFX         ....  0.580000
   Scaling of DF-GGA-C  ScalDFC         ....  1.000000
   Scaling of DF-LDA-C  ScalLDAC        ....  1.000000
   Perturbative correction              ....  0.000000
   Density functional embedding theory  .... OFF
 RI-approximation to the Coulomb term is turned on
   Number of AuxJ basis functions       .... 1231
   RIJ-ON(X) (HFX calculated with O(N)) .... on
   Number of AuxJ basis functions       .... 1231
   RIJ-COSX (HFX calculated with COS-X)).... on


General Settings:
 Integral files         IntName         .... reaction4-IEIP_ts_guess_scan_12-13_orca
 Hartree-Fock type      HFTyp           .... RHF
 Total Charge           Charge          ....    1
 Multiplicity           Mult            ....    1
 Number of Electrons    NEL             ....  164
 Basis Dimension        Dim             ....  358
 Nuclear Repulsion      ENuc            ....   2035.8095889193 Eh

Convergence Acceleration:
 DIIS                   CNVDIIS         .... on
   Start iteration      DIISMaxIt       ....    12
   Startup error        DIISStart       ....  0.200000
   # of expansion vecs  DIISMaxEq       ....     5
   Bias factor          DIISBfac        ....   1.050
   Max. coefficient     DIISMaxC        ....  10.000
 Trust-Rad. Augm. Hess. CNVTRAH         .... auto
   Auto Start mean grad. ratio tolernc. ....  1.125000
   Auto Start start iteration           ....    20
   Auto Start num. interpolation iter.  ....    10
   Max. Number of Micro iterations      ....    16
   Max. Number of Macro iterations      .... Maxiter - #DIIS iter
   Number of Davidson start vectors     ....     2
   Converg. threshold I  (grad. norm)   ....   1.000e-05
   Converg. threshold II (energy diff.) ....   1.000e-08
   Grad. Scal. Fac. for Micro threshold ....   0.100
   Minimum threshold for Micro iter.    ....   0.010
   NR start threshold (gradient norm)   ....   0.001
   Initial trust radius                 ....   0.400
   Minimum AH scaling param. (alpha)    ....   1.000
   Maximum AH scaling param. (alpha)    .... 1000.000
   Orbital update algorithm             .... Taylor
   White noise on init. David. guess    .... on
   Maximum white noise                  ....   0.010
   Quad. conv. algorithm                .... NR
   COSX micro iterations for RIJONX calc.... off
 SOSCF                  CNVSOSCF        .... off
 Level Shifting         CNVShift        .... on
   Level shift para.    LevelShift      ....    0.2500
   Turn off err/grad.   ShiftErr        ....    0.0010
 Zerner damping         CNVZerner       .... off
 Static damping         CNVDamp         .... on
   Fraction old density DampFac         ....    0.7000
   Max. Damping (<1)    DampMax         ....    0.9800
   Min. Damping (>=0)   DampMin         ....    0.0000
   Turn off err/grad.   DampErr         ....    0.1000
 Fernandez-Rico         CNVRico         .... off

SCF Procedure:
 Maximum # iterations   MaxIter         ....   250
 SCF integral mode      SCFMode         .... Direct
   Integral package                     .... SHARK and LIBINT hybrid scheme
 Reset frequency        DirectResetFreq ....    20
 Integral Threshold     Thresh          ....  2.500e-11 Eh
 Primitive CutOff       TCut            ....  2.500e-12 Eh

Convergence Tolerance:
 Convergence Check Mode ConvCheckMode   .... Total+1el-Energy
 Convergence forced     ConvForced      .... 0
 Energy Change          TolE            ....  1.000e-08 Eh
 1-El. energy change                    ....  1.000e-05 Eh
 DIIS Error             TolErr          ....  5.000e-07


Diagonalization of the overlap matrix:
Smallest eigenvalue                        ... 1.110e-03
Time for diagonalization                   ...    0.061 sec
Threshold for overlap eigenvalues          ... 1.000e-08
Number of eigenvalues below threshold      ... 0
Time for construction of square roots      ...    0.069 sec
Total time needed                          ...    0.131 sec

--------------------
INITIAL GUESS: HCORE
--------------------
                      -----------------
                      INTIAL GUESS DONE 
                      -----------------
-------------------
DFT GRID GENERATION
-------------------

General Integration Accuracy     IntAcc      ... 4.159
Radial Grid Type                 RadialGrid  ... OptM3 with GC (2021)
Angular Grid (max. ang.)         AngularGrid ... 3 (Lebedev-194)
Angular grid pruning method      GridPruning ... 4 (adaptive)
Weight generation scheme         WeightScheme... Becke
Basis function cutoff            BFCut       ... 1.0000e-11
Integration weight cutoff        WCut        ... 1.0000e-14
Angular grids for H and He will be reduced by one unit
Partially contracted basis set               ... off
Rotationally invariant grid construction     ... off

Total number of grid points                  ...    93295
Total number of batches                      ...     1475
Average number of points per batch           ...       63
Average number of grid points per atom       ...     2392
Time for grid setup =    6.709 sec

--------------------
COSX GRID GENERATION
--------------------

GRIDX 1
-------
General Integration Accuracy     IntAcc      ... 3.816
Radial Grid Type                 RadialGrid  ... OptM3 with GC (2021)
Angular Grid (max. ang.)         AngularGrid ... 1 (Lebedev-50)
Angular grid pruning method      GridPruning ... 4 (adaptive)
Weight generation scheme         WeightScheme... Becke
Basis function cutoff            BFCut       ... 1.0000e-11
Integration weight cutoff        WCut        ... 1.0000e-14
Angular grids for H and He will be reduced by one unit
Partially contracted basis set               ... on
Rotationally invariant grid construction     ... off

Total number of grid points                  ...    23204
Total number of batches                      ...      380
Average number of points per batch           ...       61
Average number of grid points per atom       ...      595
UseSFitting                                  ... on

GRIDX 2
-------
General Integration Accuracy     IntAcc      ... 4.020
Radial Grid Type                 RadialGrid  ... OptM3 with GC (2021)
Angular Grid (max. ang.)         AngularGrid ... 2 (Lebedev-110)
Angular grid pruning method      GridPruning ... 4 (adaptive)
Weight generation scheme         WeightScheme... Becke
Basis function cutoff            BFCut       ... 1.0000e-11
Integration weight cutoff        WCut        ... 1.0000e-14
Angular grids for H and He will be reduced by one unit
Partially contracted basis set               ... on
Rotationally invariant grid construction     ... off

Total number of grid points                  ...    50316
Total number of batches                      ...      807
Average number of points per batch           ...       62
Average number of grid points per atom       ...     1290
UseSFitting                                  ... on

GRIDX 3
-------
General Integration Accuracy     IntAcc      ... 4.338
Radial Grid Type                 RadialGrid  ... OptM3 with GC (2021)
Angular Grid (max. ang.)         AngularGrid ... 3 (Lebedev-194)
Angular grid pruning method      GridPruning ... 4 (adaptive)
Weight generation scheme         WeightScheme... Becke
Basis function cutoff            BFCut       ... 1.0000e-11
Integration weight cutoff        WCut        ... 1.0000e-14
Angular grids for H and He will be reduced by one unit
Partially contracted basis set               ... on
Rotationally invariant grid construction     ... off

Total number of grid points                  ...   108756
Total number of batches                      ...     1717
Average number of points per batch           ...       63
Average number of grid points per atom       ...     2789
UseSFitting                                  ... on

Time for X-Grid setup             =   12.802 sec

--------------
SCF ITERATIONS
--------------
ITER       Energy         Delta-E        Max-DP      RMS-DP      [F,P]     Damp
               ***  Starting incremental Fock matrix formation  ***
  0   -840.5735122395   0.00000000000021.43906701  0.14975874  3.2383052 0.7000
  1  -1086.0551544376-245.48164219805510.51914515  0.13565155  1.4914872 0.7000
  2  -1157.6296759219 -71.574521484297 5.36454066  0.07325797  1.0591095 0.7000
  3  -1184.8690993534 -27.239423431514 3.74171050  0.04834409  0.7672238 0.7000
  4  -1206.3967778238 -21.527678470441 2.60724175  0.03887072  0.4754049 0.7000
  5  -1220.9260833566 -14.529305532779 2.49624845  0.03348167  0.3601772 0.7000
  6  -1231.0111430747 -10.085059718072 1.94552198  0.03043136  0.3174027 0.7000
  7  -1239.8489813154  -8.837838240703 1.57777531  0.02596621  0.2917052 0.7000
  8  -1247.9485419935  -8.099560678159 1.62355524  0.02642829  0.3005238 0.7000
  9  -1251.3507050505  -3.402163056969 1.66004811  0.02526191  0.2711120 0.7000
 10  -1256.0985280418  -4.747822991253 1.62631292  0.02357543  0.2890582 0.7000
 11  -1257.3211343823  -1.222606340508 1.45204604  0.02280931  0.2937069 0.7000
                               ***Turning on DIIS***
 12  -1259.9188327179  -2.597698335640 1.43305187  0.02268941  0.3149038 0.7000
 13  -1260.1770466918  -0.258213973881 1.26369383  0.01926163  0.3148960 0.7000
 14  -1267.9516400405  -7.774593348741 0.88354270  0.01374512  0.2481558 0.7000
 15  -1274.3279900477  -6.376350007142 0.62113147  0.00972315  0.2035077 0.7000
 16  -1278.8104841557  -4.482494108008 0.43843778  0.00687371  0.1484642 0.7000
 17  -1281.8503689094  -3.039884753722 0.31003203  0.00485970  0.1023361 0.7000
 18  -1283.9102619939  -2.059893084518 0.71914086  0.01142299  0.0656644 0.0000
 19  -1288.4438198182  -4.533557824333 0.02447736  0.00041279  0.0240233 0.0000
               *** Restarting incremental Fock matrix formation ***
                                   *** Resetting DIIS ***
 20  -1288.4501951660  -0.006375347708 0.02690992  0.00050888  0.0107752 0.0000
 21  -1288.4524492170  -0.002254051080 0.01224406  0.00015817  0.0103984 0.0000
 22  -1288.4537653321  -0.001316115089 0.00514793  0.00006998  0.0022456 0.0000
 23  -1288.4539031675  -0.000137835415 0.00450641  0.00004219  0.0027069 0.0000
 24  -1288.4539530771  -0.000049909538 0.00410351  0.00003853  0.0007827 0.0000
               *** Restarting incremental Fock matrix formation ***
                                   *** Resetting DIIS ***
 25  -1288.4545200293  -0.000566952192 0.00481155  0.00010081  0.0006667 0.0000
 26  -1288.4545345203  -0.000014491064 0.00170273  0.00002058  0.0009606 0.0000
 27  -1288.4545388039  -0.000004283557 0.00128379  0.00001263  0.0007271 0.0000
 28  -1288.4545426761  -0.000003872249 0.00054690  0.00000407  0.0003044 0.0000
 29  -1288.4545431109  -0.000000434729 0.00027563  0.00000207  0.0001214 0.0000
 30  -1288.4545432194  -0.000000108535 0.00008650  0.00000088  0.0000302 0.0000
 31  -1288.4545432394  -0.000000019955 0.00006924  0.00000065  0.0000175 0.0000
 32  -1288.4545432515  -0.000000012094 0.00002718  0.00000026  0.0000070 0.0000
 33  -1288.4545432571  -0.000000005685 0.00001405  0.00000013  0.0000043 0.0000
 34  -1288.4545432590  -0.000000001868 0.00001394  0.00000010  0.0000060 0.0000
 35  -1288.4545432766  -0.000000017574 0.00000400  0.00000004  0.0000026 0.0000
                 **** Energy Check signals convergence ****

               *****************************************************
               *                     SUCCESS                       *
               *           SCF CONVERGED AFTER  36 CYCLES          *
               *****************************************************

Old exchange energy                            =    -59.647806660 Eh
New exchange energy                            =    -59.647948924 Eh
Exchange energy change after final integration =     -0.000142264 Eh
Total energy after final integration           =  -1288.454685535 Eh
Final COS-X integration done in                =   123.909 sec

----------------
TOTAL SCF ENERGY
----------------

Total Energy       :        -1288.45468553 Eh          -35060.63444 eV

Components:
Nuclear Repulsion  :         2035.80958892 Eh           55397.19525 eV
Electronic Energy  :        -3324.26427445 Eh          -90457.82970 eV
One Electron Energy:        -5827.26936702 Eh         -158568.06092 eV
Two Electron Energy:         2503.00509257 Eh           68110.23123 eV
Max COSX asymmetry :            0.00002545 Eh               0.00069 eV

Virial components:
Potential Energy   :        -2501.50072445 Eh          -68069.29529 eV
Kinetic Energy     :         1213.04603891 Eh           33008.66085 eV
Virial Ratio       :            2.06216470


DFT components:
N(Alpha)           :       82.000289151360 electrons
N(Beta)            :       82.000289151360 electrons
N(Total)           :      164.000578302721 electrons
E(X)               :      -79.588176278879 Eh       
E(C)               :       -7.460573129914 Eh       
E(XC)              :      -87.048749408793 Eh       
DFET-embed. en.    :        0.000000000000 Eh       

---------------
SCF CONVERGENCE
---------------

  Last Energy change         ...    5.8953e-09  Tolerance :   1.0000e-08
  Last MAX-Density change    ...    0.0000e+00  Tolerance :   1.0000e-07
  Last RMS-Density change    ...    0.0000e+00  Tolerance :   5.0000e-09
  Last DIIS Error            ...    1.6978e-06  Tolerance :   5.0000e-07

             **** THE GBW FILE WAS UPDATED (reaction4-IEIP_ts_guess_scan_12-13_orca.gbw) ****
             **** DENSITY reaction4-IEIP_ts_guess_scan_12-13_orca.scfp WAS UPDATED ****
             **** ENERGY FILE WAS UPDATED (reaction4-IEIP_ts_guess_scan_12-13_orca.en.tmp) ****
             **** THE GBW FILE WAS UPDATED (reaction4-IEIP_ts_guess_scan_12-13_orca.gbw) ****
             **** DENSITY reaction4-IEIP_ts_guess_scan_12-13_orca.scfp WAS UPDATED ****
----------------
ORBITAL ENERGIES
----------------

  NO   OCC          E(Eh)            E(eV) 
   0   2.0000     -89.760121     -2442.4971 
   1   2.0000     -19.640797      -534.4533 
   2   2.0000     -19.635540      -534.3102 
   3   2.0000     -14.830247      -403.5515 
   4   2.0000     -10.704540      -291.2853 
   5   2.0000     -10.651090      -289.8309 
   6   2.0000     -10.624017      -289.0942 
   7   2.0000     -10.622260      -289.0464 
   8   2.0000     -10.621272      -289.0195 
   9   2.0000     -10.619587      -288.9736 
  10   2.0000     -10.612359      -288.7770 
  11   2.0000     -10.611582      -288.7558 
  12   2.0000     -10.610619      -288.7296 
  13   2.0000     -10.608101      -288.6611 
  14   2.0000     -10.588181      -288.1191 
  15   2.0000     -10.586406      -288.0707 
  16   2.0000     -10.552057      -287.1361 
  17   2.0000     -10.549928      -287.0781 
  18   2.0000     -10.549821      -287.0752 
  19   2.0000      -8.399517      -228.5625 
  20   2.0000      -6.289406      -171.1434 
  21   2.0000      -6.285894      -171.0479 
  22   2.0000      -6.284458      -171.0088 
  23   2.0000      -4.019250      -109.3694 
  24   2.0000      -2.336184       -63.5708 
  25   2.0000      -2.305952       -62.7481 
  26   2.0000      -2.302238       -62.6471 
  27   2.0000      -1.337349       -36.3911 
  28   2.0000      -1.236958       -33.6593 
  29   2.0000      -1.206561       -32.8322 
  30   2.0000      -1.158124       -31.5142 
  31   2.0000      -1.124706       -30.6048 
  32   2.0000      -1.023250       -27.8441 
  33   2.0000      -0.971076       -26.4243 
  34   2.0000      -0.966968       -26.3125 
  35   2.0000      -0.964570       -26.2473 
  36   2.0000      -0.956953       -26.0400 
  37   2.0000      -0.945693       -25.7336 
  38   2.0000      -0.899191       -24.4682 
  39   2.0000      -0.869808       -23.6687 
  40   2.0000      -0.796743       -21.6805 
  41   2.0000      -0.780476       -21.2378 
  42   2.0000      -0.775498       -21.1024 
  43   2.0000      -0.774467       -21.0743 
  44   2.0000      -0.768306       -20.9067 
  45   2.0000      -0.759418       -20.6648 
  46   2.0000      -0.742170       -20.1955 
  47   2.0000      -0.722318       -19.6553 
  48   2.0000      -0.698323       -19.0023 
  49   2.0000      -0.684492       -18.6260 
  50   2.0000      -0.667567       -18.1654 
  51   2.0000      -0.664059       -18.0700 
  52   2.0000      -0.651893       -17.7389 
  53   2.0000      -0.638786       -17.3823 
  54   2.0000      -0.629772       -17.1370 
  55   2.0000      -0.626470       -17.0471 
  56   2.0000      -0.620456       -16.8835 
  57   2.0000      -0.609056       -16.5732 
  58   2.0000      -0.598011       -16.2727 
[...]

----------------------
LOEWDIN ATOMIC CHARGES
----------------------
   0 Ir:   -0.265342
   1 C :   -0.065342
   2 C :   -0.098157
   3 C :   -0.103576
   4 C :   -0.036793
   5 C :   -0.021404
   6 N :   -0.007895
   7 C :   -0.069130
   8 C :   -0.361647
   9 H :    0.155552
  10 H :    0.132707
  11 H :    0.142260
  12 C :   -0.344165
  13 H :    0.152326
  14 H :    0.149830
  15 H :    0.138184
  16 H :    0.133295
  17 C :    0.029232
  18 C :   -0.201897
  19 H :    0.159140
  20 C :   -0.213920
  21 C :   -0.136095
  22 S :    0.492754
  23 C :   -0.255595
  24 H :    0.376765
  25 H :    0.161276
  26 H :    0.169010
  27 H :    0.181403
  28 H :    0.177817
  29 H :    0.185667
  30 O :   -0.253508
  31 O :   -0.167266
  32 C :    0.171969
  33 C :   -0.370463
  34 H :    0.166395
  35 H :    0.174087
  36 H :    0.158194
  37 H :    0.180340
  38 H :    0.183991

-------------------------------
LOEWDIN REDUCED ORBITAL CHARGES
-------------------------------
  0 Irs       :     2.452662  s :     2.452662
      pz      :     2.257132  p :     6.780542
      px      :     2.257425
      py      :     2.265985
      dz2     :     1.695513  d :     7.943938
      dxz     :     1.633873
      dyz     :     1.478455
      dx2y2   :     1.596668
      dxy     :     1.539430
      f0      :     0.010347  f :     0.088200
      f+1     :     0.005896
      f-1     :     0.016413
      f+2     :     0.013018
      f-2     :     0.015717
      f+3     :     0.010615
      f-3     :     0.016193
  1 C s       :     2.872802  s :     2.872802
      pz      :     1.054112  p :     3.089922
      px      :     1.071169
      py      :     0.964641
      dz2     :     0.025589  d :     0.102617
      dxz     :     0.025083
      dyz     :     0.016043
      dx2y2   :     0.019113
      dxy     :     0.016790
  2 C s       :     2.876336  s :     2.876336
      pz      :     1.035129  p :     3.123776
      px      :     1.091836
      py      :     0.996811
      dz2     :     0.024102  d :     0.098045
      dxz     :     0.028218
      dyz     :     0.015852
      dx2y2   :     0.017223
      dxy     :     0.012651
  3 C s       :     2.870543  s :     2.870543
      pz      :     1.028472  p :     3.134510
      px      :     1.082740
      py      :     1.023298
      dz2     :     0.021882  d :     0.098523
      dxz     :     0.030936
      dyz     :     0.015525
      dx2y2   :     0.016512
      dxy     :     0.013669
  4 C s       :     2.874176  s :     2.874176
      pz      :     1.076695  p :     3.057386
      px      :     1.045242
      py      :     0.935450
      dz2     :     0.023089  d :     0.105231
      dxz     :     0.028460
      dyz     :     0.013761
      dx2y2   :     0.020386
      dxy     :     0.019535
  5 C s       :     2.882209  s :     2.882209
      pz      :     1.046452  p :     3.036099
      px      :     1.045482
      py      :     0.944165
      dz2     :     0.020916  d :     0.103096
      dxz     :     0.031273
      dyz     :     0.015607
      dx2y2   :     0.015816
      dxy     :     0.019484
  6 N s       :     3.121962  s :     3.121962
      pz      :     1.247908  p :     3.787810
      px      :     1.286455
      py      :     1.253447
      dz2     :     0.029831  d :     0.098123
      dxz     :     0.027029
      dyz     :     0.018107
      dx2y2   :     0.012939
      dxy     :     0.010217
  7 C s       :     2.862141  s :     2.862141
      pz      :     1.055381  p :     3.072177
      px      :     0.938981
      py      :     1.077815
      dz2     :     0.029264  d :     0.134812
      dxz     :     0.028646
      dyz     :     0.012555
      dx2y2   :     0.031149
      dxy     :     0.033197
  8 C s       :     2.953473  s :     2.953473
      pz      :     1.139395  p :     3.340625
      px      :     1.123583
      py      :     1.077647
      dz2     :     0.015429  d :     0.067549
      dxz     :     0.017058
      dyz     :     0.004969
      dx2y2   :     0.011082
      dxy     :     0.019011
  9 H s       :     0.844448  s :     0.844448
 10 H s       :     0.867293  s :     0.867293
 11 H s       :     0.857740  s :     0.857740
 12 C s       :     2.953515  s :     2.953515
      pz      :     1.145097  p :     3.322689
      px      :     1.108556
      py      :     1.069036
      dz2     :     0.015648  d :     0.067960
      dxz     :     0.014029
      dyz     :     0.007370
      dx2y2   :     0.012783
      dxy     :     0.018130
 13 H s       :     0.847674  s :     0.847674
 14 H s       :     0.850170  s :     0.850170
 15 H s       :     0.861816  s :     0.861816
 16 H s       :     0.866705  s :     0.866705
 17 C s       :     2.875616  s :     2.875616
      pz      :     1.003141  p :     2.954628
      px      :     1.063158
      py      :     0.888329
      dz2     :     0.038005  d :     0.140523
      dxz     :     0.046698
      dyz     :     0.027090
      dx2y2   :     0.013054
      dxy     :     0.015677
 18 C s       :     2.888925  s :     2.888925
      pz      :     1.047164  p :     3.200339
      px      :     1.084488
      py      :     1.068687
      dz2     :     0.033292  d :     0.112632
      dxz     :     0.034012
      dyz     :     0.017233
      dx2y2   :     0.015967
      dxy     :     0.012129
 19 H s       :     0.840860  s :     0.840860
 20 C s       :     2.901605  s :     2.901605
      pz      :     1.148582  p :     3.209567
      px      :     1.059797
      py      :     1.001189
      dz2     :     0.015379  d :     0.102747
      dxz     :     0.039114
      dyz     :     0.013597
      dx2y2   :     0.017727
      dxy     :     0.016930
 21 C s       :     2.895935  s :     2.895935
      pz      :     1.073551  p :     3.145442
      px      :     1.084376
      py      :     0.987515
      dz2     :     0.028450  d :     0.094718
      dxz     :     0.031384
      dyz     :     0.014915
      dx2y2   :     0.012161
      dxy     :     0.007809
 22 S s       :     5.498789  s :     5.498789
      pz      :     3.259236  p :     9.852616
      px      :     3.079534
      py      :     3.513846
      dz2     :     0.048378  d :     0.155840
      dxz     :     0.035941
      dyz     :     0.017555
      dx2y2   :     0.025777
      dxy     :     0.028189
 23 C s       :     2.964239  s :     2.964239
      pz      :     1.119323  p :     3.205390
      px      :     1.032293
      py      :     1.053774
      dz2     :     0.023572  d :     0.085965
      dxz     :     0.030559
      dyz     :     0.011468
      dx2y2   :     0.011319
      dxy     :     0.009047
 24 H s       :     0.623235  s :     0.623235
 25 H s       :     0.838724  s :     0.838724
 26 H s       :     0.830990  s :     0.830990
 27 H s       :     0.818597  s :     0.818597
 28 H s       :     0.822183  s :     0.822183
 29 H s       :     0.814333  s :     0.814333
 30 O s       :     3.514759  s :     3.514759
      pz      :     1.440354  p :     4.684254
      px      :     1.598458
      py      :     1.645442
      dz2     :     0.015092  d :     0.054495
      dxz     :     0.015030
      dyz     :     0.014216
      dx2y2   :     0.006444
      dxy     :     0.003712
 31 O s       :     3.439316  s :     3.439316
      pz      :     1.688800  p :     4.667212
      px      :     1.576602
      py      :     1.401810
      dz2     :     0.008911  d :     0.060738
      dxz     :     0.004914
      dyz     :     0.015110
      dx2y2   :     0.014462
      dxy     :     0.017341
 32 C s       :     2.812899  s :     2.812899
      pz      :     0.953997  p :     2.698346
      px      :     0.776111
      py      :     0.968237
      dz2     :     0.070128  d :     0.316786
      dxz     :     0.053485
      dyz     :     0.091241
      dx2y2   :     0.052357
      dxy     :     0.049575
 33 C s       :     2.957706  s :     2.957706
      pz      :     1.105075  p :     3.350222
      px      :     1.155890
      py      :     1.089258
      dz2     :     0.004329  d :     0.062535
      dxz     :     0.015991
      dyz     :     0.021519
      dx2y2   :     0.018436
      dxy     :     0.002259
 34 H s       :     0.833605  s :     0.833605
 35 H s       :     0.825913  s :     0.825913
 36 H s       :     0.841806  s :     0.841806
 37 H s       :     0.819660  s :     0.819660
 38 H s       :     0.816009  s :     0.816009


                      *****************************
                      * MAYER POPULATION ANALYSIS *
                      *****************************

  NA   - Mulliken gross atomic population
  ZA   - Total nuclear charge
  QA   - Mulliken gross atomic charge
  VA   - Mayer's total valence
  BVA  - Mayer's bonded valence
  FA   - Mayer's free valence

  ATOM       NA         ZA         QA         VA         BVA        FA
  0 Ir    16.3923    17.0000     0.6077     3.7599     3.7599     0.0000
  1 C      6.2613     6.0000    -0.2613     3.7347     3.7347    -0.0000
  2 C      6.2507     6.0000    -0.2507     3.7280     3.7280     0.0000
  3 C      6.2802     6.0000    -0.2802     3.7464     3.7464    -0.0000
  4 C      6.2150     6.0000    -0.2150     3.7134     3.7134    -0.0000
  5 C      6.1521     6.0000    -0.1521     3.7005     3.7005    -0.0000
  6 N      7.4382     7.0000    -0.4382     3.2118     3.2118    -0.0000
  7 C      6.1258     6.0000    -0.1258     3.7133     3.7133     0.0000
  8 C      6.6783     6.0000    -0.6783     3.6896     3.6896    -0.0000
  9 H      0.7320     1.0000     0.2680     0.8979     0.8979    -0.0000
 10 H      0.7755     1.0000     0.2245     0.9110     0.9110    -0.0000
 11 H      0.7486     1.0000     0.2514     0.9014     0.9014    -0.0000
 12 C      6.6324     6.0000    -0.6324     3.6723     3.6723    -0.0000
 13 H      0.7252     1.0000     0.2748     0.8741     0.8741     0.0000
 14 H      0.7432     1.0000     0.2568     0.8993     0.8993     0.0000
 15 H      0.7670     1.0000     0.2330     0.9095     0.9095    -0.0000
 16 H      0.7661     1.0000     0.2339     0.9059     0.9059     0.0000
 17 C      5.9304     6.0000     0.0696     3.6695     3.6695     0.0000
 18 C      6.1245     6.0000    -0.1245     3.6836     3.6836    -0.0000
 19 H      0.7170     1.0000     0.2830     0.8874     0.8874    -0.0000
 20 C      6.5544     6.0000    -0.5544     3.5784     3.5784    -0.0000
 21 C      6.1079     6.0000    -0.1079     3.7501     3.7501    -0.0000
 22 S     15.6593    16.0000     0.3407     2.5905     2.5905    -0.0000
 23 C      6.4228     6.0000    -0.4228     3.7534     3.7534    -0.0000
 24 H      0.5211     1.0000     0.4789     0.7406     0.7406    -0.0000
 25 H      0.7343     1.0000     0.2657     0.9015     0.9015    -0.0000
 26 H      0.7029     1.0000     0.2971     0.8976     0.8976    -0.0000
 27 H      0.7163     1.0000     0.2837     0.9073     0.9073     0.0000
 28 H      0.7207     1.0000     0.2793     0.9096     0.9096    -0.0000
 29 H      0.7061     1.0000     0.2939     0.8973     0.8973    -0.0000
 30 O      8.4896     8.0000    -0.4896     2.1296     2.1296     0.0000
 31 O      8.4932     8.0000    -0.4932     2.1337     2.1337     0.0000
 32 C      5.3628     6.0000     0.6372     3.8807     3.8807     0.0000
 33 C      6.7439     6.0000    -0.7439     3.6534     3.6534    -0.0000
 34 H      0.7245     1.0000     0.2755     0.8920     0.8920    -0.0000
 35 H      0.7213     1.0000     0.2787     0.8897     0.8897    -0.0000
 36 H      0.7342     1.0000     0.2658     0.8958     0.8958    -0.0000
 37 H      0.7208     1.0000     0.2792     0.9107     0.9107     0.0000
 38 H      0.7082     1.0000     0.2918     0.9032     0.9032    -0.0000

  Mayer bond orders larger than 0.100000
B(  0-Ir,  1-C ) :   0.4663 B(  0-Ir,  2-C ) :   0.3739 B(  0-Ir,  3-C ) :   0.4747 
B(  0-Ir,  4-C ) :   0.4206 B(  0-Ir,  5-C ) :   0.3527 B(  0-Ir,  6-N ) :   0.4659 
B(  0-Ir, 20-C ) :   0.5467 B(  0-Ir, 31-O ) :   0.4941 B(  1-C ,  2-C ) :   1.1245 
B(  1-C ,  4-C ) :   1.2110 B(  1-C , 27-H ) :   0.9098 B(  2-C ,  5-C ) :   1.2492 
B(  2-C , 28-H ) :   0.9102 B(  3-C ,  4-C ) :   1.1533 B(  3-C ,  5-C ) :   1.1543 
B(  3-C , 37-H ) :   0.9148 B(  4-C , 38-H ) :   0.8999 B(  5-C , 29-H ) :   0.9029 
B(  6-N ,  7-C ) :   0.8971 B(  6-N , 17-C ) :   1.6404 B(  7-C ,  8-C ) :   0.9900 
B(  7-C , 12-C ) :   0.9676 B(  7-C , 13-H ) :   0.8797 B(  8-C ,  9-H ) :   0.9052 
B(  8-C , 10-H ) :   0.9132 B(  8-C , 11-H ) :   0.9133 B( 12-C , 14-H ) :   0.9082 
B( 12-C , 15-H ) :   0.9152 B( 12-C , 16-H ) :   0.9122 B( 17-C , 18-C ) :   1.1233 
B( 17-C , 19-H ) :   0.8769 B( 18-C , 20-C ) :   1.2309 B( 18-C , 22-S ) :   1.2239 
B( 20-C , 21-C ) :   1.2733 B( 20-C , 24-H ) :   0.2733 B( 21-C , 23-C ) :   1.5287 
B( 21-C , 25-H ) :   0.9027 B( 22-S , 23-C ) :   1.2288 B( 23-C , 26-H ) :   0.8918 
B( 24-H , 30-O ) :   0.4021 B( 30-O , 32-C ) :   1.5000 B( 31-O , 32-C ) :   1.4301 
B( 32-C , 33-C ) :   0.9459 B( 33-C , 34-H ) :   0.8981 B( 33-C , 35-H ) :   0.8910 
B( 33-C , 36-H ) :   0.9069 


------------------
HIRSHFELD ANALYSIS
------------------

Total integrated alpha density =     82.000138422
Total integrated beta density  =     82.000138422

  ATOM     CHARGE      SPIN    
   0 Ir   0.163792    0.000000
   1 C   -0.007493    0.000000
   2 C   -0.017673    0.000000
   3 C   -0.025316    0.000000
   4 C    0.004485    0.000000
   5 C    0.016648    0.000000
   6 N   -0.072530    0.000000
   7 C    0.051924    0.000000
   8 C   -0.071791    0.000000
   9 H    0.052651    0.000000
  10 H    0.037436    0.000000
  11 H    0.039949    0.000000
  12 C   -0.071384    0.000000
  13 H    0.043577    0.000000
  14 H    0.049041    0.000000
  15 H    0.037627    0.000000
  16 H    0.030931    0.000000
  17 C    0.091775    0.000000
  18 C   -0.016947    0.000000
  19 H    0.075862    0.000000
  20 C   -0.092450    0.000000
  21 C   -0.031489    0.000000
  22 S    0.138881    0.000000
  23 C   -0.024050    0.000000
  24 H    0.120143    0.000000
  25 H    0.066734    0.000000
  26 H    0.079146    0.000000
  27 H    0.079654    0.000000
  28 H    0.077237    0.000000
  29 H    0.088684    0.000000
  30 O   -0.214004    0.000000
  31 O   -0.236744    0.000000
  32 C    0.257364    0.000000
  33 C   -0.060008    0.000000
  34 H    0.060218    0.000000
  35 H    0.065857    0.000000
  36 H    0.053576    0.000000
  37 H    0.078179    0.000000
  38 H    0.080231    0.000000

  TOTAL   0.999723    0.000000

-------
TIMINGS
-------

Total SCF time: 0 days 0 hours 9 min 58 sec 

Total time                  ....     598.445 sec
Sum of individual times     ....     593.268 sec  ( 99.1%)

Fock matrix formation       ....     553.161 sec  ( 92.4%)
  Split-RI-J                ....      47.177 sec  (  8.5% of F)
  Chain of spheres X        ....     469.733 sec  ( 84.9% of F)
  XC integration            ....      31.448 sec  (  5.7% of F)
    Basis function eval.    ....      13.391 sec  ( 42.6% of XC)
    Density eval.           ....       8.359 sec  ( 26.6% of XC)
    XC-Functional eval.     ....       2.243 sec  (  7.1% of XC)
    XC-Potential eval.      ....       5.045 sec  ( 16.0% of XC)
Diagonalization             ....       6.706 sec  (  1.1%)
Density matrix formation    ....       0.358 sec  (  0.1%)
Population analysis         ....       2.136 sec  (  0.4%)
Initial guess               ....       0.304 sec  (  0.1%)
Orbital Transformation      ....       0.000 sec  (  0.0%)
Orbital Orthonormalization  ....       0.108 sec  (  0.0%)
DIIS solution               ....      12.210 sec  (  2.0%)
Grid generation             ....      18.392 sec  (  3.1%)

Maximum memory used throughout the entire SCF-calculation: 100.0 MB


-------------------------------------------------------------------------------
                          DFT DISPERSION CORRECTION                            
                                                                               
                              DFTD3 V3.1  Rev 1                                
                          USING Becke-Johnson damping                          
-------------------------------------------------------------------------------
The PBEh-3c composite method is recognized
Using three-body term ABC
Active option DFTDOPT                   ...         4   

molecular C6(AA) [au] = 19534.862141 


            DFT-D V3
 parameters
 s6 scaling factor         :     1.0000 
 a1 scaling factor         :     0.4860 
 s8 scaling factor         :     0.0000 
 a2 scaling factor         :     4.5000 
 Damping factor alpha9(ATM):    16.0000 
 ad hoc parameters k1-k3   :    16.0000     1.3333    -4.0000 

 Edisp/kcal,au: -19.210265711396  -0.030613503790 
 E6   /kcal   : -19.543010198 
 E8   /kcal   :  -0.000000000 
 E6(ABC)      :   0.332744487 
 % E8         :   0.000000000 
 % E6(ABC)    :  -1.732118087 

-------------------------   ----------------
Dispersion correction           -0.030613504
-------------------------   ----------------

 ** NOTE ** -> element ir will be treated as co
NOTIFICATION: Different basis set in ORCA and otool_gcp:
ORCA: 358  gCP: 357 
If you are NOT using ECPs, check your basis set inputs!
------------------   -----------------
gCP correction             0.078889522
------------------   -----------------

-------------------------   --------------------
FINAL SINGLE POINT ENERGY     -1288.406136929092
-------------------------   --------------------

                                *** OPTIMIZATION RUN DONE ***

                            ***************************************
                            *     ORCA property calculations      *
                            ***************************************

                                    ---------------------
                                    Active property flags
                                    ---------------------
   (+) Dipole Moment


------------------------------------------------------------------------------
                       ORCA ELECTRIC PROPERTIES CALCULATION
------------------------------------------------------------------------------

Dipole Moment Calculation                       ... on
Quadrupole Moment Calculation                   ... off
Polarizability Calculation                      ... off
GBWName                                         ... reaction4-IEIP_ts_guess_scan_12-13_orca.gbw
Electron density                                ... reaction4-IEIP_ts_guess_scan_12-13_orca.scfp
The origin for moment calculation is the CENTER OF MASS  = ( 0.863674, -0.545414 -0.186995)

-------------
DIPOLE MOMENT
-------------
                                X             Y             Z
Electronic contribution:     37.14004     -75.95815      70.57182
Nuclear contribution   :    -37.67661      75.75820     -70.69371
                        -----------------------------------------
Total Dipole Moment    :     -0.53657      -0.19995      -0.12189
                        -----------------------------------------
Magnitude (a.u.)       :      0.58544
Magnitude (Debye)      :      1.48807



--------------------
Rotational spectrum 
--------------------
 
Rotational constants in cm-1:     0.010583     0.008769     0.008202 
Rotational constants in MHz :   317.262170   262.880102   245.891507 

 Dipole components along the rotational axes: 
x,y,z [a.u.] :     0.075746     0.281138     0.507901 
x,y,z [Debye]:     0.192531     0.714597     1.290983 

 

Timings for individual modules:

Sum of individual times         ...    15924.396 sec (= 265.407 min)
GTO integral calculation        ...      150.596 sec (=   2.510 min)   0.9 %
SCF iterations                  ...    12371.776 sec (= 206.196 min)  77.7 %
SCF Gradient evaluation         ...     3398.084 sec (=  56.635 min)  21.3 %
Geometry relaxation             ...        3.940 sec (=   0.066 min)   0.0 %
                             ****ORCA TERMINATED NORMALLY****
TOTAL RUN TIME: 0 days 4 hours 25 minutes 34 seconds 542 msec
