
                                 *****************
                                 * O   R   C   A *
                                 *****************

                                            #,                                       
                                            ###                                      
                                            ####                                     
                                            #####                                    
                                            ######                                   
                                           ########,                                 
                                     ,,################,,,,,                         
                               ,,#################################,,                 
                          ,,##########################################,,             
                       ,#########################################, ''#####,          
                    ,#############################################,,   '####,        
                  ,##################################################,,,,####,       
                ,###########''''           ''''###############################       
              ,#####''   ,,,,##########,,,,          '''####'''          '####       
            ,##' ,,,,###########################,,,                        '##       
           ' ,,###''''                  '''############,,,                           
         ,,##''                                '''############,,,,        ,,,,,,###''
      ,#''                                            '''#######################'''  
     '                                                          ''''####''''         
             ,#######,   #######,   ,#######,      ##                                
            ,#'     '#,  ##    ##  ,#'     '#,    #''#        ######   ,####,        
            ##       ##  ##   ,#'  ##            #'  '#       #        #'  '#        
            ##       ##  #######   ##           ,######,      #####,   #    #        
            '#,     ,#'  ##    ##  '#,     ,#' ,#      #,         ##   #,  ,#        
             '#######'   ##     ##  '#######'  #'      '#     #####' # '####'        



                  #######################################################
                  #                        -***-                        #
                  #          Department of theory and spectroscopy      #
                  #    Directorship and core code : Frank Neese         #
                  #        Max Planck Institute fuer Kohlenforschung    #
                  #                Kaiser Wilhelm Platz 1               #
                  #                 D-45470 Muelheim/Ruhr               #
                  #                      Germany                        #
                  #                                                     #
                  #                  All rights reserved                #
                  #                        -***-                        #
                  #######################################################


                         Program Version 5.0.3 -  RELEASE  -


 With contributions from (in alphabetic order):
   Daniel Aravena         : Magnetic Suceptibility
   Michael Atanasov       : Ab Initio Ligand Field Theory (pilot matlab implementation)
   Alexander A. Auer      : GIAO ZORA, VPT2 properties, NMR spectrum
   Ute Becker             : Parallelization
   Giovanni Bistoni       : ED, misc. LED, open-shell LED, HFLD
   Martin Brehm           : Molecular dynamics
   Dmytro Bykov           : SCF Hessian
   Vijay G. Chilkuri      : MRCI spin determinant printing, contributions to CSF-ICE
   Dipayan Datta          : RHF DLPNO-CCSD density
   Achintya Kumar Dutta   : EOM-CC, STEOM-CC
   Dmitry Ganyushin       : Spin-Orbit,Spin-Spin,Magnetic field MRCI
   Miquel Garcia          : C-PCM and meta-GGA Hessian, CC/C-PCM, Gaussian charge scheme
   Yang Guo               : DLPNO-NEVPT2, F12-NEVPT2, CIM, IAO-localization
   Andreas Hansen         : Spin unrestricted coupled pair/coupled cluster methods
   Benjamin Helmich-Paris : MC-RPA, TRAH-SCF, COSX integrals
   Lee Huntington         : MR-EOM, pCC
   Robert Izsak           : Overlap fitted RIJCOSX, COSX-SCS-MP3, EOM
   Marcus Kettner         : VPT2
   Christian Kollmar      : KDIIS, OOCD, Brueckner-CCSD(T), CCSD density, CASPT2, CASPT2-K
   Simone Kossmann        : Meta GGA functionals, TD-DFT gradient, OOMP2, MP2 Hessian
   Martin Krupicka        : Initial AUTO-CI
   Lucas Lang             : DCDCAS
   Marvin Lechner         : AUTO-CI (C++ implementation), FIC-MRCC
   Dagmar Lenk            : GEPOL surface, SMD
   Dimitrios Liakos       : Extrapolation schemes; Compound Job, initial MDCI parallelization
   Dimitrios Manganas     : Further ROCIS development; embedding schemes
   Dimitrios Pantazis     : SARC Basis sets
   Anastasios Papadopoulos: AUTO-CI, single reference methods and gradients
   Taras Petrenko         : DFT Hessian,TD-DFT gradient, ASA, ECA, R-Raman, ABS, FL, XAS/XES, NRVS
   Peter Pinski           : DLPNO-MP2, DLPNO-MP2 Gradient
   Christoph Reimann      : Effective Core Potentials
   Marius Retegan         : Local ZFS, SOC
   Christoph Riplinger    : Optimizer, TS searches, QM/MM, DLPNO-CCSD(T), (RO)-DLPNO pert. Triples
   Tobias Risthaus        : Range-separated hybrids, TD-DFT gradient, RPA, STAB
   Michael Roemelt        : Original ROCIS implementation
   Masaaki Saitow         : Open-shell DLPNO-CCSD energy and density
   Barbara Sandhoefer     : DKH picture change effects
   Avijit Sen             : IP-ROCIS
   Kantharuban Sivalingam : CASSCF convergence, NEVPT2, FIC-MRCI
   Bernardo de Souza      : ESD, SOC TD-DFT
   Georgi Stoychev        : AutoAux, RI-MP2 NMR, DLPNO-MP2 response
   Willem Van den Heuvel  : Paramagnetic NMR
   Boris Wezisla          : Elementary symmetry handling
   Frank Wennmohs         : Technical directorship


 We gratefully acknowledge several colleagues who have allowed us to
 interface, adapt or use parts of their codes:
   Stefan Grimme, W. Hujo, H. Kruse, P. Pracht,  : VdW corrections, initial TS optimization,
                  C. Bannwarth, S. Ehlert          DFT functionals, gCP, sTDA/sTD-DF
   Ed Valeev, F. Pavosevic, A. Kumar             : LibInt (2-el integral package), F12 methods
   Garnet Chan, S. Sharma, J. Yang, R. Olivares  : DMRG
   Ulf Ekstrom                                   : XCFun DFT Library
   Mihaly Kallay                                 : mrcc  (arbitrary order and MRCC methods)
   Jiri Pittner, Ondrej Demel                    : Mk-CCSD
   Frank Weinhold                                : gennbo (NPA and NBO analysis)
   Christopher J. Cramer and Donald G. Truhlar   : smd solvation model
   Lars Goerigk                                  : TD-DFT with DH, B97 family of functionals
   V. Asgeirsson, H. Jonsson                     : NEB implementation
   FAccTs GmbH                                   : IRC, NEB, NEB-TS, DLPNO-Multilevel, CI-OPT
                                                   MM, QMMM, 2- and 3-layer-ONIOM, Crystal-QMMM,
                                                   LR-CPCM, SF, NACMEs, symmetry and pop. for TD-DFT,
                                                   nearIR, NL-DFT gradient (VV10), updates on ESD,
                                                   ML-optimized integration grids
   S Lehtola, MJT Oliveira, MAL Marques          : LibXC Library
   Liviu Ungur et al                             : ANISO software


 Your calculation uses the libint2 library for the computation of 2-el integrals
 For citations please refer to: http://libint.valeyev.net

 Your ORCA version has been built with support for libXC version: 5.1.0
 For citations please refer to: https://tddft.org/programs/libxc/

 This ORCA versions uses:
   CBLAS   interface :  Fast vector & matrix operations
   LAPACKE interface :  Fast linear algebra routines
   SCALAPACK package :  Parallel linear algebra routines
   Shared memory     :  Shared parallel matrices
   BLAS/LAPACK       :  OpenBLAS 0.3.15  USE64BITINT DYNAMIC_ARCH NO_AFFINITY SkylakeX SINGLE_THREADED
        Core in use  :  SkylakeX
   Copyright (c) 2011-2014, The OpenBLAS Project


Your calculation utilizes the geometrical counterpoise correction gCP
Please cite in your paper:
H.Kruse, S. Grimme J.Chem.Phys., 136, (2012), 154101 
   

Your calculation utilizes the atom-pairwise dispersion correction
with the Becke-Johnson damping scheme (D3BJ)
Cite in your paper:
S.Grimme, S.Ehrlich, L.Goerigk, J Comput Chem, (2011), 32, 1456–1465 
S.Grimme, J.Antony, S.Ehrlich and H.Krieg, J.Chem.Phys., 132, (2010), 154104 
   

Your calculation employs the composite approach PBEh-3c.
Please cite in your paper:
S. Grimme, J. G. Brandenburg, C. Bannwarth, A. Hansen J.Chem.Phys., 143, (2015), 054107 
   

================================================================================

cite the ECPs for Ir [Def2-ECP] as follows:
Ce-Yb(ecp-28): M. Dolg, H. Stoll, H.Preuss, J. Chem. Phys., 1989, 90, 1730-1734.
Y-Cd(ecp-28), Hf-Hg(ecp-46): D. Andrae,U. Haeussermann, M. Dolg, H. Stoll, H. Preuss, Theor. Chim. Acta, 1990, 77, 123-141.
In-Sb(ecp-28), Tl-Bi(ecp-46): B. Metz, H. Stoll, M. Dolg, J. Chem. Phys., 2000, 113, 2563-2569.
Te-Xe(ecp-28), Po-Rn(ecp-46): K. A. Peterson, D. Figgen, E. Goll, H. Stoll, M. Dolg, J. Chem. Phys., 2003, 119, 11113-11123.
Rb(ecp-28), Cs(ecp-46): T. Leininger, A. Nicklass, W. Kuechle, H. Stoll, M. Dolg, A. Bergner, Chem. Phys. Lett., 1996, 255, 274-280.
Sr(ecp-28), Ba(ecp-46): M. Kaupp, P. V. Schleyer, H. Stoll and H. Preuss, J. Chem. Phys., 1991, 94, 1360-1366.
La(ecp-46): M. Dolg, H. Stoll, A. Savin, H. Preuss, Theor. Chim. Acta, 1989, 75, 173-194.
Lu(ecp-28): X. Cao, M. Dolg, J. Chem. Phys., 2001, 115, 7348-7355.

ECP parameters for Ir [Def2-ECP] have been obtained from:
TURBOMOLE (7.0.2)

----- Orbital basis set information -----
Your calculation utilizes the basis: def2-mSVP

----- AuxJ basis set information -----
Your calculation utilizes the auxiliary basis: def2/J
   F. Weigend, Phys. Chem. Chem. Phys. 8, 1057 (2006).

================================================================================
                                        WARNINGS
                       Please study these warnings very carefully!
================================================================================


WARNING: Geometry Optimization
  ===> : Switching off AutoStart
         For restart on a previous wavefunction, please use MOREAD

WARNING: No Hueckel Guess possible with ECP basis!
  ===> : Switching to HCORE guess!

INFO   : the flag for use of the SHARK integral package has been found!

================================================================================
                                       INPUT FILE
================================================================================
NAME = reaction4-IEIP_ts_guess_scan_1-10_orca.inp
|  1> ! Opt PBEh-3c
|  2> %geom Constraints
|  3> { B 0 20 2.5571428571428574 C }
|  4> { B 24 30 1.3571428571428572 C }
|  5>     end
|  6> end
|  7> %output 
|  8> xyzfile=True 
|  9> end 
| 10> %scf 
| 11> maxiter 250 
| 12> end
| 13> %output
| 14> Print[P_Hirshfeld] = 1
| 15> end
| 16> % maxcore
| 17> 4000
| 18> *xyz 1 1
| 19> Ir   0.56467039  -0.74045470   0.50390140 
| 20> C    0.00808785  -2.81594070   0.36382747 
| 21> C    0.08847416  -2.37855666   1.73705636 
| 22> C    2.17552964  -2.15641281   0.79354190 
| 23> C    1.27384678  -2.64859446  -0.22430921 
| 24> C    1.45793106  -2.03019487   1.99473724 
| 25> N   -1.04036295   0.16055188  -0.50599195 
| 26> C   -2.32034642   0.49218595   0.14126259 
| 27> C   -3.13076159   1.53606805  -0.61022140 
| 28> H   -3.96747969   1.84698994   0.01379537 
| 29> H   -3.56058820   1.15490211  -1.53792679 
| 30> H   -2.54498474   2.42827428  -0.83371887 
| 31> C   -3.12409527  -0.78137179   0.37280629 
| 32> H   -2.04020327   0.90780780   1.11084838 
| 33> H   -4.04625199  -0.54039396   0.89944034 
| 34> H   -3.39473724  -1.25636087  -0.57116816 
| 35> H   -2.58408968  -1.50316008   0.98405648 
| 36> C   -0.82503484   0.36388155  -1.74865336 
| 37> C    0.52686476   0.15861689  -2.22087729 
| 38> H   -1.60627026   0.71348006  -2.41799294 
| 39> C    1.63658103   0.54922129  -1.48299152 
| 40> C    2.83349784   0.15474367  -2.14541734 
| 41> S    0.93756864  -0.60826234  -3.69530045 
| 42> C    2.60941317  -0.46718416  -3.33454537 
| 43> H    1.54423065   1.41753536  -0.64699758 
| 44> H    3.82460323   0.37472306  -1.77580215 
| 45> H    3.34069323  -0.83492599  -4.03852696 
| 46> H   -0.88194930  -3.16917443  -0.13679342 
| 47> H   -0.70278956  -2.41739487   2.47148071 
| 48> H    1.84508312  -1.65172372   2.92983002 
| 49> O    1.33396402   2.42187359   0.26289746 
| 50> O    0.53893411   0.90492857   1.69351541 
| 51> C    0.92581042   2.09418411   1.37712371 
| 52> C    0.88030837   3.08899373   2.50148377 
| 53> H    0.83712698   4.10380314   2.11551384 
| 54> H    1.79201445   2.99646618   3.09505263 
| 55> H    0.04066396   2.90629802   3.16865628 
| 56> H    3.22009409  -1.92232354   0.65004573 
| 57> H    1.53332303  -2.85390927  -1.25289850 
| 58> *
| 59> 
| 60>                          ****END OF INPUT****
================================================================================

                       *****************************
                       * Geometry Optimization Run *
                       *****************************

Geometry optimization settings:
Update method            Update   .... BFGS
Choice of coordinates    CoordSys .... Z-matrix Internals
Initial Hessian          InHess   .... Almoef's Model

Convergence Tolerances:
Energy Change            TolE     ....  5.0000e-06 Eh
Max. Gradient            TolMAXG  ....  3.0000e-04 Eh/bohr
RMS Gradient             TolRMSG  ....  1.0000e-04 Eh/bohr
Max. Displacement        TolMAXD  ....  4.0000e-03 bohr
RMS Displacement         TolRMSD  ....  2.0000e-03 bohr
Strict Convergence                ....  False
------------------------------------------------------------------------------
                        ORCA OPTIMIZATION COORDINATE SETUP
------------------------------------------------------------------------------

The optimization will be done in new redundant internal coordinates
Making redundant internal coordinates   ...  (new redundants) done
Evaluating the initial hessian          ...  (Almloef) done
Evaluating the coordinates              ...  done
Calculating the B-matrix                .... done
Calculating the G-matrix                .... done
Diagonalizing the G-matrix              .... done
Imposing constraints:
 Iter   0:  RMS(Cart)=    0.0221869329 RMS(Int)=    0.0076468975
 Iter   1:  RMS(Cart)=    0.0029116549 RMS(Int)=    0.0011242538
 Iter   2:  RMS(Cart)=    0.0004244392 RMS(Int)=    0.0001674054
 Iter   3:  RMS(Cart)=    0.0000629612 RMS(Int)=    0.0000249582
 Iter   4:  RMS(Cart)=    0.0000093760 RMS(Int)=    0.0000037216
 Iter   5:  RMS(Cart)=    0.0000013976 RMS(Int)=    0.0000005550
 Iter   6:  RMS(Cart)=    0.0000002084 RMS(Int)=    0.0000000828
 Iter   7:  RMS(Cart)=    0.0000000311 RMS(Int)=    0.0000000123
CONVERGED
Small eigenvalue found = 1.310e-02
Small eigenvalue found = 2.494e-02
Small eigenvalue found = 2.600e-02
The first mode is                       ....  234
The number of degrees of freedom        ....  111
Storing new coordinates                 .... done

    -----------------------------------------------------------------
                    Redundant Internal Coordinates


    -----------------------------------------------------------------
         Definition                    Initial Value    Approx d2E/dq
    -----------------------------------------------------------------
      1. B(C   1,Ir  0)                  2.1532         0.088057   
      2. B(C   2,C   1)                  1.4436         0.513423   
      3. B(C   2,Ir  0)                  2.1049         0.105204   
      4. B(C   3,Ir  0)                  2.1641         0.084630   
      5. B(C   4,Ir  0)                  2.1619         0.085314   
      6. B(C   4,C   1)                  1.4062         0.589732   
      7. B(C   4,C   3)                  1.4462         0.508376   
      8. B(C   5,C   3)                  1.4052         0.591512   
      9. B(C   5,C   2)                  1.4365         0.526930   
     10. B(C   5,Ir  0)                  2.1641         0.084613   
     11. B(N   6,Ir  0)                  2.0985         0.096137   
     12. B(C   7,N   6)                  1.4722         0.413792   
     13. B(C   8,C   7)                  1.5203         0.387184   
     14. B(H   9,C   8)                  1.0891         0.361276   
     15. B(H  10,C   8)                  1.0912         0.358541   
     16. B(H  11,C   8)                  1.0905         0.359483   
     17. B(C  12,C   7)                  1.5237         0.382362   
     18. B(H  13,C   7)                  1.0915         0.358154   
     19. B(H  14,C  12)                  1.0889         0.361507   
     20. B(H  15,C  12)                  1.0908         0.358980   
     21. B(H  16,C  12)                  1.0891         0.361248   
     22. B(C  17,N   6)                  1.2740         0.846093   
     23. B(C  18,C  17)                  1.4445         0.507430   
     24. B(H  19,C  17)                  1.0866         0.364710   
     25. B(C  20,C  18)                  1.3888         0.627763   
     26. B(C  20,Ir  0)                  2.5571         0.017069 C 
     27. B(C  21,C  20)                  1.4241         0.551965   
     28. B(S  22,C  18)                  1.7120         0.516282   
     29. B(C  23,C  21)                  1.3604         0.696243   
     30. B(C  23,S  22)                  1.7157         0.508373   
     31. B(H  24,C  20)                  1.2083         0.232682   
     32. B(H  25,C  21)                  1.0804         0.373006   
     33. B(H  26,C  23)                  1.0797         0.374087   
     34. B(H  27,C   1)                  1.0805         0.372838   
     35. B(H  28,C   2)                  1.0803         0.373203   
     36. B(H  29,C   5)                  1.0805         0.372860   
     37. B(O  30,H  24)                  1.3571         0.114699 C 
     38. B(O  31,Ir  0)                  2.0308         0.123843   
     39. B(C  32,O  30)                  1.2284         1.003412   
     40. B(C  32,O  31)                  1.2880         0.808008   
     41. B(C  33,C  32)                  1.5020         0.414099   
     42. B(H  34,C  33)                  1.0866         0.364641   
     43. B(H  35,C  33)                  1.0918         0.357687   
     44. B(H  36,C  33)                  1.0879         0.362905   
     45. B(H  37,C   3)                  1.0801         0.373509   
     46. B(H  38,C   4)                  1.0805         0.372891   
     47. A(C   4,Ir  0,N   6)          117.8760         0.250207   
     48. A(C   3,Ir  0,C   5)           37.8910         0.246456   
     49. A(C   3,Ir  0,N   6)          156.1076         0.249913   
     50. A(C   5,Ir  0,O  31)           94.8128         0.259398   
     51. A(C   1,Ir  0,C   4)           38.0364         0.248174   
     52. A(C   1,Ir  0,N   6)          100.6162         0.251366   
     53. A(C   3,Ir  0,O  31)          117.4556         0.259406   
     54. A(C   4,Ir  0,O  31)          156.4367         0.259717   
     55. A(C   2,Ir  0,C   5)           39.2973         0.254405   
     56. A(C   1,Ir  0,C   2)           39.6153         0.255906   
     57. A(C   2,Ir  0,N   6)          116.2380         0.258037   
     58. A(C   2,Ir  0,C   4)           65.4806         0.254715   
     59. A(C   3,Ir  0,C   4)           39.0623         0.246750   
     60. A(C   1,Ir  0,O  31)          144.6204         0.260944   
     61. A(N   6,Ir  0,O  31)           85.6675         0.263140   
     62. A(C   4,Ir  0,C   5)           64.5907         0.246743   
     63. A(C   1,Ir  0,C   3)           64.5811         0.247884   
     64. A(C   2,Ir  0,C   3)           65.2346         0.254413   
     65. A(C   2,Ir  0,O  31)          106.4758         0.268009   
     66. A(C   5,Ir  0,N   6)          154.4619         0.249906   
     67. A(C   1,Ir  0,C   5)           64.9971         0.247877   
     68. A(C   4,C   1,H  27)          125.9326         0.351997   
     69. A(Ir  0,C   1,C   2)           68.3859         0.314373   
     70. A(C   2,C   1,H  27)          125.8493         0.343877   
     71. A(C   2,C   1,C   4)          108.1666         0.415920   
     72. A(Ir  0,C   1,H  27)          123.9292         0.270306   
     73. A(Ir  0,C   1,C   4)           71.3144         0.321553   
     74. A(C   1,C   2,C   5)          107.2950         0.407694   
     75. A(C   5,C   2,H  28)          125.8088         0.345436   
     76. A(Ir  0,C   2,C   5)           72.5791         0.325017   
     77. A(Ir  0,C   2,C   1)           71.9988         0.323634   
     78. A(Ir  0,C   2,H  28)          126.3023         0.277797   
     79. A(C   1,C   2,H  28)          126.5193         0.343933   
     80. A(Ir  0,C   3,H  37)          124.0810         0.268757   
     81. A(Ir  0,C   3,C   5)           71.0567         0.319631   
     82. A(C   5,C   3,H  37)          126.0304         0.352284   
     83. A(C   4,C   3,H  37)          125.6754         0.343411   
     84. A(Ir  0,C   3,C   4)           70.3855         0.311858   
     85. A(C   4,C   3,C   5)          108.2936         0.415412   
     86. A(C   3,C   4,H  38)          125.7942         0.343316   
     87. A(Ir  0,C   4,C   1)           70.6492         0.319894   
     88. A(C   1,C   4,H  38)          126.3005         0.352006   
     89. A(Ir  0,C   4,H  38)          124.5539         0.269017   
     90. A(Ir  0,C   4,C   3)           70.5523         0.312265   
     91. A(C   1,C   4,C   3)          107.9048         0.415190   
     92. A(Ir  0,C   5,H  29)          122.3686         0.268678   
     93. A(C   3,C   5,H  29)          126.0425         0.352180   
     94. A(C   2,C   5,H  29)          125.5752         0.345383   
     95. A(Ir  0,C   5,C   3)           71.0524         0.319620   
     96. A(C   2,C   5,C   3)          108.1706         0.418072   
     97. A(Ir  0,C   5,C   2)           68.1236         0.313664   
     98. A(Ir  0,N   6,C  17)          113.4821         0.342470   
     99. A(C   7,N   6,C  17)          122.8429         0.421307   
    100. A(Ir  0,N   6,C   7)          123.6451         0.304585   
    101. A(N   6,C   7,C   8)          113.6305         0.369729   
    102. A(N   6,C   7,C  12)          109.7045         0.368933   
    103. A(C   8,C   7,C  12)          111.5829         0.367042   
    104. A(N   6,C   7,H  13)          104.6659         0.327554   
    105. A(C   8,C   7,H  13)          108.3287         0.325941   
    106. A(C  12,C   7,H  13)          108.5830         0.325270   
    107. A(C   7,C   8,H  11)          112.1331         0.326140   
    108. A(H   9,C   8,H  11)          107.2504         0.290910   
    109. A(H  10,C   8,H  11)          108.8537         0.290563   
    110. A(C   7,C   8,H   9)          108.8047         0.326407   
    111. A(C   7,C   8,H  10)          112.9786         0.325999   
    112. A(H   9,C   8,H  10)          106.5121         0.290790   
    113. A(C   7,C  12,H  14)          109.5872         0.325769   
    114. A(C   7,C  12,H  15)          111.3045         0.325394   
    115. A(H  14,C  12,H  15)          107.7437         0.290875   
    116. A(C   7,C  12,H  16)          112.1896         0.325731   
    117. A(H  14,C  12,H  16)          107.1641         0.291163   
    118. A(H  15,C  12,H  16)          108.6695         0.290843   
    119. A(N   6,C  17,C  18)          116.3322         0.439898   
    120. A(N   6,C  17,H  19)          122.2417         0.370629   
    121. A(C  18,C  17,H  19)          121.3889         0.341935   
    122. A(C  17,C  18,C  20)          122.2984         0.419697   
    123. A(C  17,C  18,S  22)          124.5650         0.427594   
    124. A(C  20,C  18,S  22)          113.1195         0.444301   
    125. A(C  18,C  20,C  21)          110.1931         0.426054   
    126. A(C  18,C  20,H  24)          120.7728         0.328745   
    127. A(C  21,C  20,H  24)          125.6027         0.321863   
    128. A(C  20,C  21,H  25)          123.7244         0.348113   
    129. A(C  23,C  21,H  25)          122.8638         0.362096   
    130. A(C  20,C  21,C  23)          113.3204         0.434046   
    131. A(C  18,S  22,C  23)           90.9048         0.451516   
    132. A(C  21,C  23,H  26)          127.8908         0.362275   
    133. A(S  22,C  23,H  26)          119.6642         0.361367   
    134. A(C  21,C  23,S  22)          112.4268         0.451457   
    135. L(C  20,H  24,O  30,C  18, 1) 175.3017         0.228485   
    136. L(C  20,H  24,O  30,C  18, 2) 181.2328         0.228485   
    137. A(H  24,O  30,C  32)          116.7136         0.311659   
    138. A(Ir  0,O  31,C  32)          126.7937         0.354639   
    139. A(O  30,C  32,O  31)          124.2022         0.490869   
    140. A(O  30,C  32,C  33)          120.9096         0.437308   
    141. A(O  31,C  32,C  33)          114.8663         0.420645   
    142. A(C  32,C  33,H  34)          110.7248         0.330553   
    143. A(C  32,C  33,H  35)          108.9984         0.329502   
    144. A(H  34,C  33,H  35)          107.7847         0.291105   
    145. A(C  32,C  33,H  36)          111.7923         0.330292   
    146. A(H  34,C  33,H  36)          110.1215         0.291769   
    147. A(H  35,C  33,H  36)          107.2683         0.290887   
    148. D(H  27,C   1,Ir  0,N   6)      0.8989         0.001713   
    149. D(C   2,C   1,Ir  0,C   5)     39.1289         0.001713   
    150. D(C   2,C   1,Ir  0,N   6)   -118.6184         0.001713   
    151. D(C   2,C   1,Ir  0,C   4)    119.2107         0.001713   
    152. D(H  27,C   1,Ir  0,C   2)    119.5174         0.001713   
    153. D(C   4,C   1,Ir  0,C   2)   -119.2107         0.001713   
    154. D(C   4,C   1,Ir  0,C   3)    -38.0250         0.001713   
    155. D(C   4,C   1,Ir  0,C   5)    -80.0818         0.001713   
    156. D(H  27,C   1,Ir  0,O  31)     98.4378         0.001713   
    157. D(C   4,C   1,Ir  0,N   6)    122.1709         0.001713   
    158. D(H  27,C   1,Ir  0,C   5)    158.6463         0.001713   
    159. D(H  27,C   1,Ir  0,C   4)   -121.2719         0.001713   
    160. D(C   4,C   1,Ir  0,O  31)   -140.2902         0.001713   
    161. D(C   2,C   1,Ir  0,C   3)     81.1857         0.001713   
    162. D(C   2,C   1,Ir  0,O  31)    -21.0796         0.001713   
    163. D(H  27,C   1,Ir  0,C   3)   -159.2969         0.001713   
    164. D(C   5,C   2,C   1,H  27)    178.4956         0.020903   
    165. D(C   1,C   2,Ir  0,C   5)   -115.4410         0.001803   
    166. D(C   5,C   2,Ir  0,N   6)   -170.4230         0.001803   
    167. D(C   1,C   2,Ir  0,C   3)    -79.3972         0.001803   
    168. D(H  28,C   2,Ir  0,C   4)   -158.7637         0.001803   
    169. D(C   5,C   2,Ir  0,C   1)    115.4410         0.001803   
    170. D(Ir  0,C   2,C   1,C   4)     60.4820         0.020903   
    171. D(C   5,C   2,Ir  0,C   3)     36.0438         0.001803   
    172. D(H  28,C   2,Ir  0,N   6)    -48.3918         0.001803   
    173. D(H  28,C   2,Ir  0,C   5)    122.0312         0.001803   
    174. D(C   5,C   2,C   1,C   4)     -3.9944         0.020903   
    175. D(H  28,C   2,C   1,H  27)      5.2475         0.020903   
    176. D(H  28,C   2,Ir  0,C   1)   -122.5278         0.001803   
    177. D(H  28,C   2,C   1,C   4)   -177.2424         0.020903   
    178. D(C   1,C   2,Ir  0,O  31)    167.4578         0.001803   
    179. D(C   5,C   2,Ir  0,C   4)     79.2051         0.001803   
    180. D(H  28,C   2,C   1,Ir  0)    122.2755         0.020903   
    181. D(Ir  0,C   2,C   1,H  27)   -117.0280         0.020903   
    182. D(C   1,C   2,Ir  0,N   6)     74.1360         0.001803   
    183. D(C   5,C   2,Ir  0,O  31)    -77.1012         0.001803   
    184. D(H  28,C   2,Ir  0,O  31)     44.9300         0.001803   
    185. D(H  28,C   2,Ir  0,C   3)    158.0750         0.001803   
    186. D(C   1,C   2,Ir  0,C   4)    -36.2359         0.001803   
    187. D(C   5,C   2,C   1,Ir  0)    -64.4764         0.020903   
    188. D(C   4,C   3,Ir  0,C   5)    118.3344         0.001697   
    189. D(C   4,C   3,Ir  0,O  31)    177.4238         0.001697   
    190. D(C   4,C   3,Ir  0,N   6)    -18.2692         0.001697   
    191. D(C   4,C   3,Ir  0,C   1)     37.0360         0.001697   
    192. D(C   5,C   3,Ir  0,O  31)     59.0895         0.001697   
    193. D(C   5,C   3,Ir  0,C   2)    -37.3572         0.001697   
    194. D(C   4,C   3,Ir  0,C   2)     80.9771         0.001697   
    195. D(H  37,C   3,Ir  0,C   4)    120.4241         0.001697   
    196. D(H  37,C   3,Ir  0,C   1)    157.4602         0.001697   
    197. D(C   5,C   3,Ir  0,C   1)    -81.2983         0.001697   
    198. D(C   5,C   3,Ir  0,C   4)   -118.3344         0.001697   
    199. D(H  37,C   3,Ir  0,C   5)   -121.2415         0.001697   
    200. D(H  37,C   3,Ir  0,N   6)    102.1549         0.001697   
    201. D(H  37,C   3,Ir  0,O  31)    -62.1520         0.001697   
    202. D(C   5,C   3,Ir  0,N   6)   -136.6036         0.001697   
    203. D(H  37,C   3,Ir  0,C   2)   -158.5987         0.001697   
    204. D(C   1,C   4,Ir  0,C   3)    118.0059         0.001700   
    205. D(H  38,C   4,C   3,H  37)      0.6859         0.020482   
    206. D(C   1,C   4,Ir  0,C   5)     81.2453         0.001700   
    207. D(C   1,C   4,Ir  0,N   6)    -70.2523         0.001700   
    208. D(C   1,C   4,Ir  0,O  31)    112.2799         0.001700   
    209. D(C   1,C   4,Ir  0,C   2)     37.7130         0.001700   
    210. D(C   3,C   4,Ir  0,C   1)   -118.0059         0.001700   
    211. D(H  38,C   4,C   3,C   5)   -179.5960         0.020482   
    212. D(C   3,C   4,Ir  0,C   5)    -36.7606         0.001700   
    213. D(C   3,C   4,Ir  0,N   6)    171.7418         0.001700   
    214. D(C   3,C   4,Ir  0,O  31)     -5.7260         0.001700   
    215. D(Ir  0,C   4,C   1,C   2)    -58.6526         0.027930   
    216. D(H  38,C   4,Ir  0,C   2)    159.0461         0.001700   
    217. D(H  38,C   4,Ir  0,C   3)   -120.6610         0.001700   
    218. D(H  38,C   4,C   1,C   2)   -177.8568         0.027930   
    219. D(H  38,C   4,Ir  0,N   6)     51.0808         0.001700   
    220. D(H  38,C   4,Ir  0,O  31)   -126.3870         0.001700   
    221. D(Ir  0,C   4,C   1,H  27)    118.8548         0.027930   
    222. D(C   3,C   4,C   1,Ir  0)     61.0330         0.027930   
    223. D(C   3,C   4,C   1,H  27)    179.8878         0.027930   
    224. D(H  38,C   4,C   1,Ir  0)   -119.2042         0.027930   
    225. D(H  38,C   4,Ir  0,C   5)   -157.4216         0.001700   
    226. D(H  38,C   4,C   1,H  27)     -0.3494         0.027930   
    227. D(Ir  0,C   4,C   3,C   5)     61.2631         0.020482   
    228. D(Ir  0,C   4,C   3,H  37)   -118.4550         0.020482   
    229. D(C   3,C   4,C   1,C   2)      2.3803         0.027930   
    230. D(C   1,C   4,C   3,C   5)      0.1684         0.020482   
    231. D(C   1,C   4,C   3,H  37)   -179.5497         0.020482   
    232. D(H  38,C   4,C   3,Ir  0)    119.1410         0.020482   
    233. D(H  38,C   4,Ir  0,C   1)    121.3331         0.001700   
    234. D(C   1,C   4,C   3,Ir  0)    -61.0947         0.020482   
    235. D(C   3,C   4,Ir  0,C   2)    -80.2929         0.001700   
    236. D(C   2,C   5,Ir  0,C   1)    -39.4450         0.001697   
    237. D(H  29,C   5,C   3,C   4)   -177.5963         0.028109   
    238. D(C   2,C   5,Ir  0,C   4)    -81.6631         0.001697   
    239. D(C   2,C   5,Ir  0,N   6)     20.2523         0.001697   
    240. D(C   2,C   5,Ir  0,O  31)    110.2735         0.001697   
    241. D(C   3,C   5,Ir  0,C   1)     80.1023         0.001697   
    242. D(C   3,C   5,Ir  0,C   2)    119.5473         0.001697   
    243. D(C   3,C   5,Ir  0,C   4)     37.8842         0.001697   
    244. D(H  29,C   5,C   2,C   1)    179.0588         0.022056   
    245. D(C   3,C   5,Ir  0,O  31)   -130.1792         0.001697   
    246. D(H  29,C   5,Ir  0,C   1)   -158.6372         0.001697   
    247. D(C   3,C   5,C   2,Ir  0)    -59.9967         0.022056   
    248. D(H  29,C   5,Ir  0,C   3)    121.2605         0.001697   
    249. D(H  29,C   5,Ir  0,C   4)    159.1447         0.001697   
    250. D(H  29,C   5,Ir  0,N   6)    -98.9399         0.001697   
    251. D(H  29,C   5,Ir  0,O  31)     -8.9187         0.001697   
    252. D(Ir  0,C   5,C   2,C   1)     64.0916         0.022056   
    253. D(H  29,C   5,Ir  0,C   2)   -119.1922         0.001697   
    254. D(Ir  0,C   5,C   2,H  28)   -122.5991         0.022056   
    255. D(C   3,C   5,C   2,C   1)      4.0949         0.022056   
    256. D(C   3,C   5,C   2,H  28)    177.4041         0.022056   
    257. D(C   3,C   5,Ir  0,N   6)    139.7996         0.001697   
    258. D(H  29,C   5,C   2,Ir  0)    114.9672         0.022056   
    259. D(H  29,C   5,C   2,H  28)     -7.6320         0.022056   
    260. D(Ir  0,C   5,C   3,C   4)    -60.8386         0.028109   
    261. D(Ir  0,C   5,C   3,H  37)    118.8782         0.028109   
    262. D(C   2,C   5,C   3,Ir  0)     58.1764         0.028109   
    263. D(C   2,C   5,C   3,C   4)     -2.6623         0.028109   
    264. D(C   2,C   5,C   3,H  37)    177.0546         0.028109   
    265. D(C   2,C   5,Ir  0,C   3)   -119.5473         0.001697   
    266. D(H  29,C   5,C   3,Ir  0)   -116.7577         0.028109   
    267. D(H  29,C   5,C   3,H  37)      2.1205         0.028109   
    268. D(C  17,N   6,Ir  0,C   1)    -93.6133         0.001774   
    269. D(C   7,N   6,Ir  0,C   2)     45.8346         0.001774   
    270. D(C   7,N   6,Ir  0,C   3)    133.5174         0.001774   
    271. D(C   7,N   6,Ir  0,C   4)    120.6040         0.001774   
    272. D(C   7,N   6,Ir  0,C   5)     31.6871         0.001774   
    273. D(C   7,N   6,Ir  0,C   1)     84.4453         0.001774   
    274. D(C   7,N   6,Ir  0,O  31)    -60.4109         0.001774   
    275. D(C  17,N   6,Ir  0,C   2)   -132.2240         0.001774   
    276. D(C  17,N   6,Ir  0,C   3)    -44.5412         0.001774   
    277. D(C  17,N   6,Ir  0,C   4)    -57.4545         0.001774   
    278. D(C  17,N   6,Ir  0,C   5)   -146.3715         0.001774   
    279. D(C  17,N   6,Ir  0,O  31)    121.5306         0.001774   
    280. D(C   8,C   7,N   6,Ir  0)    160.1417         0.014604   
    281. D(C   8,C   7,N   6,C  17)    -21.9778         0.014604   
    282. D(C  12,C   7,N   6,Ir  0)    -74.1836         0.014604   
    283. D(C  12,C   7,N   6,C  17)    103.6969         0.014604   
    284. D(H  13,C   7,N   6,Ir  0)     42.1520         0.014604   
    285. D(H  13,C   7,N   6,C  17)   -139.9675         0.014604   
    286. D(H   9,C   8,C   7,N   6)   -170.3495         0.011926   
    287. D(H   9,C   8,C   7,C  12)     64.9801         0.011926   
    288. D(H   9,C   8,C   7,H  13)    -54.4966         0.011926   
    289. D(H  10,C   8,C   7,N   6)     71.5828         0.011926   
    290. D(H  10,C   8,C   7,C  12)    -53.0876         0.011926   
    291. D(H  10,C   8,C   7,H  13)   -172.5642         0.011926   
    292. D(H  11,C   8,C   7,N   6)    -51.8800         0.011926   
    293. D(H  11,C   8,C   7,C  12)   -176.5504         0.011926   
    294. D(H  11,C   8,C   7,H  13)     63.9730         0.011926   
    295. D(H  14,C  12,C   7,N   6)    176.9849         0.011645   
    296. D(H  14,C  12,C   7,C   8)    -56.1778         0.011645   
    297. D(H  14,C  12,C   7,H  13)     63.1483         0.011645   
    298. D(H  15,C  12,C   7,N   6)    -63.9389         0.011645   
    299. D(H  15,C  12,C   7,C   8)     62.8984         0.011645   
    300. D(H  15,C  12,C   7,H  13)   -177.7756         0.011645   
    301. D(H  16,C  12,C   7,N   6)     58.0755         0.011645   
    302. D(H  16,C  12,C   7,C   8)   -175.0872         0.011645   
    303. D(H  16,C  12,C   7,H  13)    -55.7612         0.011645   
    304. D(C  18,C  17,N   6,Ir  0)     -9.5222         0.061906   
    305. D(C  18,C  17,N   6,C   7)    172.4015         0.061906   
    306. D(H  19,C  17,N   6,Ir  0)    172.6706         0.061906   
    307. D(H  19,C  17,N   6,C   7)     -5.4057         0.061906   
    308. D(C  20,C  18,C  17,N   6)    -40.0483         0.017545   
    309. D(C  20,C  18,C  17,H  19)    137.7790         0.017545   
    310. D(S  22,C  18,C  17,N   6)    138.3465         0.017545   
    311. D(S  22,C  18,C  17,H  19)    -43.8262         0.017545   
    312. D(C  21,C  20,C  18,C  17)    176.5189         0.029682   
    313. D(C  21,C  20,C  18,S  22)     -2.0438         0.029682   
    314. D(H  24,C  20,C  18,C  17)    -23.2705         0.029682   
    315. D(H  24,C  20,C  18,S  22)    158.1668         0.029682   
    316. D(C  23,C  21,C  20,C  18)      1.4927         0.022624   
    317. D(C  23,C  21,C  20,H  24)   -157.5439         0.022624   
    318. D(H  25,C  21,C  20,C  18)    178.1013         0.022624   
    319. D(H  25,C  21,C  20,H  24)     19.0647         0.022624   
    320. D(C  23,S  22,C  18,C  17)   -176.9031         0.005463   
    321. D(C  23,S  22,C  18,C  20)      1.6216         0.005463   
    322. D(S  22,C  23,C  21,C  20)     -0.3036         0.034110   
    323. D(S  22,C  23,C  21,H  25)   -176.9455         0.034110   
    324. D(H  26,C  23,C  21,C  20)    178.1180         0.034110   
    325. D(H  26,C  23,C  21,H  25)      1.4761         0.034110   
    326. D(C  21,C  23,S  22,C  18)     -0.7350         0.005337   
    327. D(H  26,C  23,S  22,C  18)   -179.3015         0.005337   
    328. D(C  32,O  30,C  20,C  18)     85.1256         0.001503   
    329. D(C  32,O  30,C  20,C  21)   -119.0994         0.001503   
    330. D(C  32,O  31,Ir  0,C   1)   -175.0442         0.001929   
    331. D(C  32,O  31,Ir  0,C   2)    171.1193         0.001929   
    332. D(C  32,O  31,Ir  0,C   3)    100.9121         0.001929   
    333. D(C  32,O  31,Ir  0,C   4)    104.9751         0.001929   
    334. D(C  32,O  31,Ir  0,C   5)    132.8363         0.001929   
    335. D(C  32,O  31,Ir  0,N   6)    -72.7803         0.001929   
    336. D(O  31,C  32,O  30,H  24)     -8.2182         0.082563   
    337. D(C  33,C  32,O  30,H  24)    169.9941         0.082563   
    338. D(O  30,C  32,O  31,Ir  0)      2.3402         0.050439   
    339. D(C  33,C  32,O  31,Ir  0)   -175.9693         0.050439   
    340. D(H  34,C  33,C  32,O  30)     23.4547         0.012691   
    341. D(H  34,C  33,C  32,O  31)   -158.1749         0.012691   
    342. D(H  35,C  33,C  32,O  30)    -94.9474         0.012691   
    343. D(H  35,C  33,C  32,O  31)     83.4230         0.012691   
    344. D(H  36,C  33,C  32,O  30)    146.6433         0.012691   
    345. D(H  36,C  33,C  32,O  31)    -34.9862         0.012691   
    -----------------------------------------------------------------

Number of atoms                         .... 39
Number of degrees of freedom            .... 345

         *************************************************************
         *                GEOMETRY OPTIMIZATION CYCLE   1            *
         *************************************************************
---------------------------------
CARTESIAN COORDINATES (ANGSTROEM)
---------------------------------
  Ir     0.566433   -0.732724    0.488956
  C      0.014606   -2.809045    0.344891
  C      0.101367   -2.376006    1.719301
  C      2.182967   -2.144803    0.764894
  C      1.277057   -2.636118   -0.249783
  C      1.471403   -2.024635    1.970689
  N     -1.046905    0.166125   -0.507547
  C     -2.325843    0.495822    0.142767
  C     -3.139619    1.538501   -0.606763
  H     -3.975316    1.848153    0.019255
  H     -3.571086    1.156707   -1.533451
  H     -2.555717    2.431592   -0.831641
  C     -3.127125   -0.778948    0.376203
  H     -2.044012    0.911846    1.111693
  H     -4.048388   -0.539366    0.905041
  H     -3.399305   -1.254325   -0.567135
  H     -2.584577   -1.499937    0.986151
  C     -0.830074    0.366535   -1.746865
  C      0.523467    0.151830   -2.203459
  H     -1.606568    0.715175   -2.422239
  C      1.628676    0.540566   -1.457670
  C      2.828491    0.135054   -2.108912
  S      0.941969   -0.626882   -3.669587
  C      2.611151   -0.493205   -3.295763
  H      1.538982    1.416246   -0.629991
  H      3.817895    0.352056   -1.732962
  H      3.346316   -0.869343   -3.991324
  H     -0.877249   -3.163005   -0.151984
  H     -0.685768   -2.419451    2.457931
  H      1.862562   -1.648159    2.904930
  O      1.334862    2.420033    0.260281
  O      0.541817    0.907938    1.685606
  C      0.925728    2.096918    1.372596
  C      0.878910    3.092126    2.496550
  H      0.835771    4.106781    2.110170
  H      1.790107    3.000091    3.090977
  H      0.038717    2.909421    3.163031
  H      3.226065   -1.907247    0.616378
  H      1.531601   -2.837127   -1.280477

----------------------------
CARTESIAN COORDINATES (A.U.)
----------------------------
  NO LB      ZA    FRAG     MASS         X           Y           Z
   0 Ir   17.0000*   0   192.220    1.070403   -1.384648    0.923993
   1 C     6.0000    0    12.011    0.027602   -5.308325    0.651750
   2 C     6.0000    0    12.011    0.191555   -4.490001    3.249009
   3 C     6.0000    0    12.011    4.125210   -4.053090    1.445441
   4 C     6.0000    0    12.011    2.413288   -4.981540   -0.472022
   5 C     6.0000    0    12.011    2.780548   -3.826005    3.724062
   6 N     7.0000    0    14.007   -1.978363    0.313930   -0.959124
   7 C     6.0000    0    12.011   -4.395206    0.936968    0.269791
   8 C     6.0000    0    12.011   -5.933021    2.907345   -1.146617
   9 H     1.0000    0     1.008   -7.512259    3.492503    0.036387
  10 H     1.0000    0     1.008   -6.748374    2.185860   -2.897803
  11 H     1.0000    0     1.008   -4.829604    4.595043   -1.571573
  12 C     6.0000    0    12.011   -5.909410   -1.471998    0.710921
  13 H     1.0000    0     1.008   -3.862622    1.723140    2.100795
  14 H     1.0000    0     1.008   -7.650345   -1.019255    1.710280
  15 H     1.0000    0     1.008   -6.423755   -2.370332   -1.071730
  16 H     1.0000    0     1.008   -4.884142   -2.834469    1.863556
  17 C     6.0000    0    12.011   -1.568612    0.692650   -3.301097
  18 C     6.0000    0    12.011    0.989210    0.286916   -4.163934
  19 H     1.0000    0     1.008   -3.035974    1.351484   -4.577369
  20 C     6.0000    0    12.011    3.077751    1.021522   -2.754597
  21 C     6.0000    0    12.011    5.345074    0.255215   -3.985266
  22 S    16.0000    0    32.060    1.780064   -1.184636   -6.934514
  23 C     6.0000    0    12.011    4.934361   -0.932023   -6.228089
  24 H     1.0000    0     1.008    2.908254    2.676317   -1.190510
  25 H     1.0000    0     1.008    7.214775    0.665290   -3.274823
  26 H     1.0000    0     1.008    6.323621   -1.642820   -7.542509
  27 H     1.0000    0     1.008   -1.657761   -5.977213   -0.287208
  28 H     1.0000    0     1.008   -1.295913   -4.572100    4.644817
  29 H     1.0000    0     1.008    3.519732   -3.114568    5.489522
  30 O     8.0000    0    15.999    2.522524    4.573199    0.491859
  31 O     8.0000    0    15.999    1.023885    1.715754    3.185333
  32 C     6.0000    0    12.011    1.749373    3.962601    2.593830
  33 C     6.0000    0    12.011    1.660898    5.843271    4.717796
  34 H     1.0000    0     1.008    1.579378    7.760691    3.987643
  35 H     1.0000    0     1.008    3.382812    5.669350    5.841100
  36 H     1.0000    0     1.008    0.073165    5.498009    5.977262
  37 H     1.0000    0     1.008    6.096380   -3.604174    1.164786
  38 H     1.0000    0     1.008    2.894306   -5.361392   -2.419750
* core charge reduced due to ECP

--------------------------------
INTERNAL COORDINATES (ANGSTROEM)
--------------------------------
 Ir     0   0   0     0.000000000000     0.00000000     0.00000000
 C      1   0   0     2.153380357924     0.00000000     0.00000000
 C      2   1   0     1.443441838666    68.38719796     0.00000000
 C      1   2   3     2.164184953239    64.56349404    81.18047759
 C      2   1   3     1.405722300911    71.32141233   240.79196091
 C      4   1   2     1.404901752876    71.06226034   278.70020981
 N      1   2   3     2.099483140701   100.64631427   241.34086699
 C      7   1   2     1.472167544612   123.35874635    84.36542419
 C      8   7   1     1.520260100671   113.63049046   160.11247440
 H      9   8   7     1.089112725933   108.80474323   189.65047732
 H      9   8   7     1.091180864529   112.97846027    71.58272509
 H      9   8   7     1.090466686306   112.13314647   308.11980575
 C      8   7   1     1.523671229629   109.70433200   285.78712708
 H      8   7   1     1.091475290998   104.66599724    42.12287333
 H     13   8   7     1.088938360704   109.58702870   176.98494934
 H     13   8   7     1.090848048216   111.30463393   296.06122036
 H     13   8   7     1.089133218476   112.18962366    58.07558975
 C      7   1   2     1.277464883886   114.03914932   266.26666275
 C     18   7   1     1.446638015949   116.90234535   350.22884815
 H     18   7   1     1.086537331623   121.95568164   172.63946323
 C     19  18   7     1.388710699451   122.23614998   320.10858136
 C     21  19  18     1.423738181599   110.28181239   176.48768589
 S     19  18   7     1.711930222058   124.67344269   138.52810493
 C     22  21  19     1.360526970254   113.25652463     1.55200803
 H     21  19  18     1.208877075870   120.55971455   336.95735633
 H     22  21  19     1.080414834585   123.75257609   178.16208244
 H     24  22  21     1.079627092446   127.88341299   178.10903000
 H      2   1   3     1.080537584675   123.92577656   119.52216553
 H      3   2   1     1.080271172909   126.51949594   122.27270947
 H      6   4   1     1.080521002180   126.04227784   243.24528085
 O     25  21  19     1.371428568956   175.23808502   351.42513673
 O      1   2   3     2.030549175492   144.67011001   338.93329472
 C     31  25  21     1.231044228566   117.15519180    94.05720652
 C     33  31  25     1.501966098526   120.75002009   169.97609747
 H     34  33  31     1.086588955370   110.72476801    23.36719738
 H     34  33  31     1.091830259417   108.99840011   264.96511761
 H     34  33  31     1.087887685286   111.79230181   146.55583932
 H      4   1   2     1.080048067142   124.07550742   157.46311266
 H      5   2   1     1.080498969468   126.29199403   240.79567169

---------------------------
INTERNAL COORDINATES (A.U.)
---------------------------
 Ir     0   0   0     0.000000000000     0.00000000     0.00000000
 C      1   0   0     4.069299138642     0.00000000     0.00000000
 C      2   1   0     2.727709765323    68.38719796     0.00000000
 C      1   2   3     4.089716864775    64.56349404    81.18047759
 C      2   1   3     2.656430169067    71.32141233   240.79196091
 C      4   1   2     2.654879558001    71.06226034   278.70020981
 N      1   2   3     3.967448158710   100.64631427   241.34086699
 C      7   1   2     2.781993482564   123.35874635    84.36542419
 C      8   7   1     2.872875242596   113.63049046   160.11247440
 H      9   8   7     2.058124780983   108.80474323   189.65047732
 H      9   8   7     2.062032996536   112.97846027    71.58272509
 H      9   8   7     2.060683395283   112.13314647   308.11980575
 C      8   7   1     2.879321342134   109.70433200   285.78712708
 H      8   7   1     2.062589381928   104.66599724    42.12287333
 H     13   8   7     2.057795278451   109.58702870   176.98494934
 H     13   8   7     2.061404064852   111.30463393   296.06122036
 H     13   8   7     2.058163506275   112.18962366    58.07558975
 C      7   1   2     2.414058776246   114.03914932   266.26666275
 C     18   7   1     2.733749665063   116.90234535   350.22884815
 H     18   7   1     2.053257991050   121.95568164   172.63946323
 C     19  18   7     2.624282901209   122.23614998   320.10858136
 C     21  19  18     2.690475249630   110.28181239   176.48768589
 S     19  18   7     3.235079280073   124.67344269   138.52810493
 C     22  21  19     2.571023371594   113.25652463     1.55200803
 H     21  19  18     2.284446602969   120.55971455   336.95735633
 H     22  21  19     2.041688148391   123.75257609   178.16208244
 H     24  22  21     2.040199531485   127.88341299   178.10903000
 H      2   1   3     2.041920112444   123.92577656   119.52216553
 H      3   2   1     2.041416667167   126.51949594   122.27270947
 H      6   4   1     2.041888776071   126.04227784   243.24528085
 O     25  21  19     2.591624407562   175.23808502   351.42513673
 O      1   2   3     3.837181843140   144.67011001   338.93329472
 C     31  25  21     2.326336450733   117.15519180    94.05720652
 C     33  31  25     2.838304588649   120.75002009   169.97609747
 H     34  33  31     2.053355545792   110.72476801    23.36719738
 H     34  33  31     2.063260175027   108.99840011   264.96511761
 H     34  33  31     2.055809789656   111.79230181   146.55583932
 H      4   1   2     2.040995058370   124.07550742   157.46311266
 H      5   2   1     2.041847140279   126.29199403   240.79567169

---------------------
BASIS SET INFORMATION
---------------------
There are 6 groups of distinct atoms

 Group   1 Type Ir  : 7s6p5d1f contracted to 6s3p2d1f pattern {211111/411/41/1}
 Group   2 Type C   : 8s4p1d contracted to 4s2p1d pattern {5111/31/1}
 Group   3 Type N   : 8s4p1d contracted to 4s2p1d pattern {5111/31/1}
 Group   4 Type H   : 4s contracted to 2s pattern {31}
 Group   5 Type S   : 10s7p1d contracted to 4s3p1d pattern {5311/511/1}
 Group   6 Type O   : 8s4p1d contracted to 4s2p1d pattern {5111/31/1}

Atom   0Ir   basis set group =>   1
Atom   1C    basis set group =>   2
Atom   2C    basis set group =>   2
Atom   3C    basis set group =>   2
Atom   4C    basis set group =>   2
Atom   5C    basis set group =>   2
Atom   6N    basis set group =>   3
Atom   7C    basis set group =>   2
Atom   8C    basis set group =>   2
Atom   9H    basis set group =>   4
Atom  10H    basis set group =>   4
Atom  11H    basis set group =>   4
Atom  12C    basis set group =>   2
Atom  13H    basis set group =>   4
Atom  14H    basis set group =>   4
Atom  15H    basis set group =>   4
Atom  16H    basis set group =>   4
Atom  17C    basis set group =>   2
Atom  18C    basis set group =>   2
Atom  19H    basis set group =>   4
Atom  20C    basis set group =>   2
Atom  21C    basis set group =>   2
Atom  22S    basis set group =>   5
Atom  23C    basis set group =>   2
Atom  24H    basis set group =>   4
Atom  25H    basis set group =>   4
Atom  26H    basis set group =>   4
Atom  27H    basis set group =>   4
Atom  28H    basis set group =>   4
Atom  29H    basis set group =>   4
Atom  30O    basis set group =>   6
Atom  31O    basis set group =>   6
Atom  32C    basis set group =>   2
Atom  33C    basis set group =>   2
Atom  34H    basis set group =>   4
Atom  35H    basis set group =>   4
Atom  36H    basis set group =>   4
Atom  37H    basis set group =>   4
Atom  38H    basis set group =>   4
---------------------------------
AUXILIARY/J BASIS SET INFORMATION
---------------------------------
There are 6 groups of distinct atoms

 Group   1 Type Ir  : 11s5p5d3f3g contracted to 8s5p5d2f3g pattern {41111111/11111/11111/21/111}
 Group   2 Type C   : 12s5p4d2f1g contracted to 6s4p3d1f1g pattern {711111/2111/211/2/1}
 Group   3 Type N   : 12s5p4d2f1g contracted to 6s4p3d1f1g pattern {711111/2111/211/2/1}
 Group   4 Type H   : 5s2p1d contracted to 3s1p1d pattern {311/2/1}
 Group   5 Type S   : 14s5p5d2f1g contracted to 8s4p3d1f1g pattern {71111111/2111/311/2/1}
 Group   6 Type O   : 12s5p4d2f1g contracted to 6s4p3d1f1g pattern {711111/2111/211/2/1}

Atom   0Ir   basis set group =>   1
Atom   1C    basis set group =>   2
Atom   2C    basis set group =>   2
Atom   3C    basis set group =>   2
Atom   4C    basis set group =>   2
Atom   5C    basis set group =>   2
Atom   6N    basis set group =>   3
Atom   7C    basis set group =>   2
Atom   8C    basis set group =>   2
Atom   9H    basis set group =>   4
Atom  10H    basis set group =>   4
Atom  11H    basis set group =>   4
Atom  12C    basis set group =>   2
Atom  13H    basis set group =>   4
Atom  14H    basis set group =>   4
Atom  15H    basis set group =>   4
Atom  16H    basis set group =>   4
Atom  17C    basis set group =>   2
Atom  18C    basis set group =>   2
Atom  19H    basis set group =>   4
Atom  20C    basis set group =>   2
Atom  21C    basis set group =>   2
Atom  22S    basis set group =>   5
Atom  23C    basis set group =>   2
Atom  24H    basis set group =>   4
Atom  25H    basis set group =>   4
Atom  26H    basis set group =>   4
Atom  27H    basis set group =>   4
Atom  28H    basis set group =>   4
Atom  29H    basis set group =>   4
Atom  30O    basis set group =>   6
Atom  31O    basis set group =>   6
Atom  32C    basis set group =>   2
Atom  33C    basis set group =>   2
Atom  34H    basis set group =>   4
Atom  35H    basis set group =>   4
Atom  36H    basis set group =>   4
Atom  37H    basis set group =>   4
Atom  38H    basis set group =>   4
-------------------------
ECP PARAMETER INFORMATION
-------------------------

 Group 1, Type Ir ECP Def2-ECP (replacing 60 core electrons, lmax=3)

Atom   0Ir   ECP group =>   1

------------------------------------------------------------------------------
                           ORCA GTO INTEGRAL CALCULATION
                           -- RI-GTO INTEGRALS CHOSEN --
------------------------------------------------------------------------------
------------------------------------------------------------------------------
                   ___                                                        
                  /   \      - P O W E R E D   B Y -                         
                 /     \                                                     
                 |  |  |   _    _      __       _____    __    __             
                 |  |  |  | |  | |    /  \     |  _  \  |  |  /  |          
                  \  \/   | |  | |   /    \    | | | |  |  | /  /          
                 / \  \   | |__| |  /  /\  \   | |_| |  |  |/  /          
                |  |  |   |  __  | /  /__\  \  |    /   |      \           
                |  |  |   | |  | | |   __   |  |    \   |  |\   \          
                \     /   | |  | | |  |  |  |  | |\  \  |  | \   \       
                 \___/    |_|  |_| |__|  |__|  |_| \__\ |__|  \__/        
                                                                              
                      - O R C A' S   B I G   F R I E N D -                    
                                      &                                       
                       - I N T E G R A L  F E E D E R -                       
                                                                              
 v1 FN, 2020, v2 2021                                                         
------------------------------------------------------------------------------


Reading SHARK input file reaction4-IEIP_ts_guess_scan_1-10_orca.SHARKINP.tmp ... ok
----------------------
SHARK INTEGRAL PACKAGE
----------------------

Number of atoms                             ...     39
Number of basis functions                   ...    358
Number of shells                            ...    184
Maximum angular momentum                    ...      3
Integral batch strategy                     ... SHARK/LIBINT Hybrid
RI-J (if used) integral strategy            ... SPLIT-RIJ (Revised 2003 algorithm where possible)
Printlevel                                  ...      1
Contraction scheme used                     ... SEGMENTED contraction
Coulomb Range Separation                    ... NOT USED
Exchange Range Separation                   ... NOT USED
Finite Nucleus Model                        ... NOT USED
Auxiliary Coulomb fitting basis             ... AVAILABLE
   # of basis functions in Aux-J            ...   1231
   # of shells in Aux-J                     ...    405
   Maximum angular momentum in Aux-J        ...      4
Auxiliary J/K fitting basis                 ... NOT available
Auxiliary Correlation fitting basis         ... NOT available
Auxiliary 'external' fitting basis          ... NOT available
Integral threshold                          ...     2.500000e-11
Primitive cut-off                           ...     2.500000e-12
Primitive pair pre-selection threshold      ...     2.500000e-12

Calculating pre-screening integrals         ... done (  0.1 sec) Dimension = 184
Organizing shell pair data                  ... done (  0.1 sec)
Shell pair information
Total number of shell pairs                 ...     17020
Shell pairs after pre-screening             ...     12966
Total number of primitive shell pairs       ...     60705
Primitive shell pairs kept                  ...     29169
          la=0 lb=0:   4972 shell pairs
          la=1 lb=0:   4252 shell pairs
          la=1 lb=1:    856 shell pairs
          la=2 lb=0:   1743 shell pairs
          la=2 lb=1:    785 shell pairs
          la=2 lb=2:    181 shell pairs
          la=3 lb=0:    113 shell pairs
          la=3 lb=1:     42 shell pairs
          la=3 lb=2:     21 shell pairs
          la=3 lb=3:      1 shell pairs

Calculating one electron integrals          ... done (  0.1 sec)
Calculating ECP integrals                   ... done (  0.8 sec)
Calculating RI/J V-Matrix + Cholesky decomp.... done (  0.1 sec)
Calculating Nuclear repulsion               ... done (  0.0 sec) ENN=   2037.059700556484 Eh

SHARK setup successfully completed in   1.3 seconds

Maximum memory used throughout the entire GTOINT-calculation: 91.0 MB
-------------------------------------------------------------------------------
                                 ORCA SCF
-------------------------------------------------------------------------------

------------
SCF SETTINGS
------------
Hamiltonian:
 Density Functional     Method          .... DFT(GTOs)
 Exchange Functional    Exchange        .... PBE
   PBE kappa parameter   XKappa         ....  1.024500
   PBE mue parameter    XMuePBE         ....  0.123457
 Correlation Functional Correlation     .... PBE
   PBE beta parameter  CBetaPBE         ....  0.030000
 LDA part of GGA corr.  LDAOpt          .... PW91-LDA
 Gradients option       PostSCFGGA      .... off
 Hybrid DFT is turned on
   Fraction HF Exchange ScalHFX         ....  0.420000
   Scaling of DF-GGA-X  ScalDFX         ....  0.580000
   Scaling of DF-GGA-C  ScalDFC         ....  1.000000
   Scaling of DF-LDA-C  ScalLDAC        ....  1.000000
   Perturbative correction              ....  0.000000
   Density functional embedding theory  .... OFF
 RI-approximation to the Coulomb term is turned on
   Number of AuxJ basis functions       .... 1231
   RIJ-ON(X) (HFX calculated with O(N)) .... on
   Number of AuxJ basis functions       .... 1231
   RIJ-COSX (HFX calculated with COS-X)).... on


General Settings:
 Integral files         IntName         .... reaction4-IEIP_ts_guess_scan_1-10_orca
 Hartree-Fock type      HFTyp           .... RHF
 Total Charge           Charge          ....    1
 Multiplicity           Mult            ....    1
 Number of Electrons    NEL             ....  164
 Basis Dimension        Dim             ....  358
 Nuclear Repulsion      ENuc            ....   2037.0597005565 Eh

Convergence Acceleration:
 DIIS                   CNVDIIS         .... on
   Start iteration      DIISMaxIt       ....    12
   Startup error        DIISStart       ....  0.200000
   # of expansion vecs  DIISMaxEq       ....     5
   Bias factor          DIISBfac        ....   1.050
   Max. coefficient     DIISMaxC        ....  10.000
 Trust-Rad. Augm. Hess. CNVTRAH         .... auto
   Auto Start mean grad. ratio tolernc. ....  1.125000
   Auto Start start iteration           ....    20
   Auto Start num. interpolation iter.  ....    10
   Max. Number of Micro iterations      ....    16
   Max. Number of Macro iterations      .... Maxiter - #DIIS iter
   Number of Davidson start vectors     ....     2
   Converg. threshold I  (grad. norm)   ....   1.000e-05
   Converg. threshold II (energy diff.) ....   1.000e-08
   Grad. Scal. Fac. for Micro threshold ....   0.100
   Minimum threshold for Micro iter.    ....   0.010
   NR start threshold (gradient norm)   ....   0.001
   Initial trust radius                 ....   0.400
   Minimum AH scaling param. (alpha)    ....   1.000
   Maximum AH scaling param. (alpha)    .... 1000.000
   Orbital update algorithm             .... Taylor
   White noise on init. David. guess    .... on
   Maximum white noise                  ....   0.010
   Quad. conv. algorithm                .... NR
   COSX micro iterations for RIJONX calc.... off
 SOSCF                  CNVSOSCF        .... off
 Level Shifting         CNVShift        .... on
   Level shift para.    LevelShift      ....    0.2500
   Turn off err/grad.   ShiftErr        ....    0.0010
 Zerner damping         CNVZerner       .... off
 Static damping         CNVDamp         .... on
   Fraction old density DampFac         ....    0.7000
   Max. Damping (<1)    DampMax         ....    0.9800
   Min. Damping (>=0)   DampMin         ....    0.0000
   Turn off err/grad.   DampErr         ....    0.1000
 Fernandez-Rico         CNVRico         .... off

SCF Procedure:
 Maximum # iterations   MaxIter         ....   250
 SCF integral mode      SCFMode         .... Direct
   Integral package                     .... SHARK and LIBINT hybrid scheme
 Reset frequency        DirectResetFreq ....    20
 Integral Threshold     Thresh          ....  2.500e-11 Eh
 Primitive CutOff       TCut            ....  2.500e-12 Eh

Convergence Tolerance:
 Convergence Check Mode ConvCheckMode   .... Total+1el-Energy
 Convergence forced     ConvForced      .... 0
 Energy Change          TolE            ....  1.000e-08 Eh
 1-El. energy change                    ....  1.000e-05 Eh
 DIIS Error             TolErr          ....  5.000e-07


Diagonalization of the overlap matrix:
Smallest eigenvalue                        ... 1.068e-03
Time for diagonalization                   ...    0.016 sec
Threshold for overlap eigenvalues          ... 1.000e-08
Number of eigenvalues below threshold      ... 0
Time for construction of square roots      ...    0.005 sec
Total time needed                          ...    0.021 sec

--------------------
INITIAL GUESS: HCORE
--------------------
                      -----------------
                      INTIAL GUESS DONE 
                      -----------------
-------------------
DFT GRID GENERATION
-------------------

General Integration Accuracy     IntAcc      ... 4.159
Radial Grid Type                 RadialGrid  ... OptM3 with GC (2021)
Angular Grid (max. ang.)         AngularGrid ... 3 (Lebedev-194)
Angular grid pruning method      GridPruning ... 4 (adaptive)
Weight generation scheme         WeightScheme... Becke
Basis function cutoff            BFCut       ... 1.0000e-11
Integration weight cutoff        WCut        ... 1.0000e-14
Angular grids for H and He will be reduced by one unit
Partially contracted basis set               ... off
Rotationally invariant grid construction     ... off

Total number of grid points                  ...    93315
Total number of batches                      ...     1479
Average number of points per batch           ...       63
Average number of grid points per atom       ...     2393
Time for grid setup =    1.656 sec

--------------------
COSX GRID GENERATION
--------------------

GRIDX 1
-------
General Integration Accuracy     IntAcc      ... 3.816
Radial Grid Type                 RadialGrid  ... OptM3 with GC (2021)
Angular Grid (max. ang.)         AngularGrid ... 1 (Lebedev-50)
Angular grid pruning method      GridPruning ... 4 (adaptive)
Weight generation scheme         WeightScheme... Becke
Basis function cutoff            BFCut       ... 1.0000e-11
Integration weight cutoff        WCut        ... 1.0000e-14
Angular grids for H and He will be reduced by one unit
Partially contracted basis set               ... on
Rotationally invariant grid construction     ... off

Total number of grid points                  ...    23176
Total number of batches                      ...      381
Average number of points per batch           ...       60
Average number of grid points per atom       ...      594
UseSFitting                                  ... on

GRIDX 2
-------
General Integration Accuracy     IntAcc      ... 4.020
Radial Grid Type                 RadialGrid  ... OptM3 with GC (2021)
Angular Grid (max. ang.)         AngularGrid ... 2 (Lebedev-110)
Angular grid pruning method      GridPruning ... 4 (adaptive)
Weight generation scheme         WeightScheme... Becke
Basis function cutoff            BFCut       ... 1.0000e-11
Integration weight cutoff        WCut        ... 1.0000e-14
Angular grids for H and He will be reduced by one unit
Partially contracted basis set               ... on
Rotationally invariant grid construction     ... off

Total number of grid points                  ...    50318
Total number of batches                      ...      808
Average number of points per batch           ...       62
Average number of grid points per atom       ...     1290
UseSFitting                                  ... on

GRIDX 3
-------
General Integration Accuracy     IntAcc      ... 4.338
Radial Grid Type                 RadialGrid  ... OptM3 with GC (2021)
Angular Grid (max. ang.)         AngularGrid ... 3 (Lebedev-194)
Angular grid pruning method      GridPruning ... 4 (adaptive)
Weight generation scheme         WeightScheme... Becke
Basis function cutoff            BFCut       ... 1.0000e-11
Integration weight cutoff        WCut        ... 1.0000e-14
Angular grids for H and He will be reduced by one unit
Partially contracted basis set               ... on
Rotationally invariant grid construction     ... off

Total number of grid points                  ...   108819
Total number of batches                      ...     1718
Average number of points per batch           ...       63
Average number of grid points per atom       ...     2790
UseSFitting                                  ... on

Time for X-Grid setup             =    4.235 sec

--------------
SCF ITERATIONS
--------------
ITER       Energy         Delta-E        Max-DP      RMS-DP      [F,P]     Damp
               ***  Starting incremental Fock matrix formation  ***
  0   -873.1946937307   0.00000000000019.50749287  0.15025660  2.6035200 0.7000
  1  -1102.2863873284-229.091693597711 9.10866946  0.11408191  1.4877870 0.7000
  2  -1167.6977657140 -65.411378385575 5.42356462  0.06570188  1.0241156 0.7000
  3  -1192.2176427303 -24.519877016271 3.77693460  0.04506789  0.7283617 0.7000
  4  -1209.6976200854 -17.479977355091 2.65350979  0.03566692  0.4476706 0.7000
  5  -1225.3638536344 -15.666233549068 2.38128929  0.03069865  0.3388343 0.7000
  6  -1235.3712069112 -10.007353276775 1.82357489  0.02911025  0.3313871 0.7000
  7  -1242.0745500999  -6.703343188662 1.96485343  0.02564233  0.3424908 0.7000
  8  -1246.7706501215  -4.696100021616 1.58256364  0.02479753  0.4081190 0.7000
  9  -1250.5005134770  -3.729863355523 1.70166040  0.02411458  0.3674691 0.7000
 10  -1252.8748200628  -2.374306585815 1.48791710  0.02403191  0.4322233 0.7000
 11  -1254.7275954668  -1.852775403979 1.59555344  0.02375503  0.3820314 0.7000
                               ***Turning on DIIS***
 12  -1255.9431321482  -1.215536681445 1.48354382  0.02382004  0.4454536 0.7000
 13  -1256.8486156795  -0.905483531278 1.43589826  0.02028145  0.3888488 0.7000
 14  -1267.5380851503 -10.689469470786 0.99433801  0.01432894  0.2561937 0.7000
 15  -1274.0311386957  -6.493053545408 0.69223184  0.01016746  0.1671447 0.7000
 16  -1278.1489383561  -4.117799660349 0.48295232  0.00718895  0.1147883 0.7000
 17  -1280.9219392262  -2.773000870088 0.33421591  0.00508922  0.1500379 0.7000
 18  -1282.9552077518  -2.033268525638 0.23191973  0.00362609  0.1485249 0.7000
 19  -1284.4519042520  -1.496696500194 0.15803529  0.00267884  0.1380843 0.7000
               *** Restarting incremental Fock matrix formation ***
                                   *** Resetting DIIS ***
 20  -1285.5856328727  -1.133728620696 0.12061156  0.00233600  0.1183838 0.7000
 21  -1286.4624576887  -0.876824816013 0.28206776  0.00531970  0.0439990 0.0000
 22  -1288.4033328587  -1.940875170015 0.03361880  0.00079266  0.0432054 0.0000
 23  -1288.4313214155  -0.027988556807 0.03218217  0.00055733  0.0154981 0.0000
 24  -1288.4354186225  -0.004097207018 0.01947335  0.00022926  0.0139321 0.0000
 25  -1288.4375752889  -0.002156666411 0.00573163  0.00011111  0.0031636 0.0000
 26  -1288.4380087032  -0.000433414292 0.00319368  0.00006386  0.0019375 0.0000
 27  -1288.4381716837  -0.000162980510 0.00270533  0.00004935  0.0012072 0.0000
 28  -1288.4382480437  -0.000076359968 0.00294217  0.00006040  0.0007206 0.0000
               *** Restarting incremental Fock matrix formation ***
                                   *** Resetting DIIS ***
 29  -1288.4392769315  -0.001028887810 0.00470933  0.00008263  0.0007793 0.0000
 30  -1288.4392957312  -0.000018799672 0.00067624  0.00001285  0.0004173 0.0000
 31  -1288.4392960299  -0.000000298719 0.00033194  0.00000676  0.0004601 0.0000
 32  -1288.4392977342  -0.000001704328 0.00025785  0.00000233  0.0000732 0.0000
 33  -1288.4392978241  -0.000000089881 0.00020229  0.00000165  0.0000894 0.0000
 34  -1288.4392978515  -0.000000027375 0.00011310  0.00000088  0.0000556 0.0000
 35  -1288.4392978689  -0.000000017356 0.00007052  0.00000064  0.0000186 0.0000
 36  -1288.4392978674   0.000000001443 0.00002534  0.00000025  0.0000088 0.0000
 37  -1288.4392978560   0.000000011412 0.00001125  0.00000011  0.0000032 0.0000
 38  -1288.4392978463   0.000000009669 0.00000311  0.00000005  0.0000023 0.0000
 39  -1288.4392978414   0.000000004971 0.00000311  0.00000003  0.0000011 0.0000
 40  -1288.4392978505  -0.000000009092 0.00000245  0.00000002  0.0000017 0.0000
                            ***DIIS convergence achieved***

               *****************************************************
               *                     SUCCESS                       *
               *           SCF CONVERGED AFTER  41 CYCLES          *
               *****************************************************

Old exchange energy                            =    -59.662062512 Eh
New exchange energy                            =    -59.662030545 Eh
Exchange energy change after final integration =      0.000031966 Eh
Total energy after final integration           =  -1288.439265876 Eh
Final COS-X integration done in                =    56.074 sec

----------------
TOTAL SCF ENERGY
----------------

Total Energy       :        -1288.43926588 Eh          -35060.21485 eV

Components:
Nuclear Repulsion  :         2037.05970056 Eh           55431.21252 eV
Electronic Energy  :        -3325.49896643 Eh          -90491.42737 eV
One Electron Energy:        -5829.58654484 Eh         -158631.11454 eV
Two Electron Energy:         2504.08757841 Eh           68139.68716 eV
Max COSX asymmetry :            0.00001617 Eh               0.00044 eV

Virial components:
Potential Energy   :        -2501.59852136 Eh          -68071.95648 eV
Kinetic Energy     :         1213.15925549 Eh           33011.74163 eV
Virial Ratio       :            2.06205287


DFT components:
N(Alpha)           :       82.000343006131 electrons
N(Beta)            :       82.000343006131 electrons
N(Total)           :      164.000686012263 electrons
E(X)               :      -79.596022155523 Eh       
E(C)               :       -7.454179730931 Eh       
E(XC)              :      -87.050201886453 Eh       
DFET-embed. en.    :        0.000000000000 Eh       

---------------
SCF CONVERGENCE
---------------

  Last Energy change         ...    8.4235e-09  Tolerance :   1.0000e-08
  Last MAX-Density change    ...    0.0000e+00  Tolerance :   1.0000e-07
  Last RMS-Density change    ...    0.0000e+00  Tolerance :   5.0000e-09
  Last DIIS Error            ...    4.9830e-07  Tolerance :   5.0000e-07

             **** THE GBW FILE WAS UPDATED (reaction4-IEIP_ts_guess_scan_1-10_orca.gbw) ****
             **** DENSITY reaction4-IEIP_ts_guess_scan_1-10_orca.scfp WAS UPDATED ****
             **** ENERGY FILE WAS UPDATED (reaction4-IEIP_ts_guess_scan_1-10_orca.en.tmp) ****
             **** THE GBW FILE WAS UPDATED (reaction4-IEIP_ts_guess_scan_1-10_orca.gbw) ****
             **** DENSITY reaction4-IEIP_ts_guess_scan_1-10_orca.scfp WAS UPDATED ****
----------------
ORBITAL ENERGIES
----------------

  NO   OCC          E(Eh)            E(eV) 
   0   2.0000     -89.757071     -2442.4141 
   1   2.0000     -19.626062      -534.0523 
   2   2.0000     -19.591038      -533.0992 
   3   2.0000     -14.839926      -403.8149 
   4   2.0000     -10.684217      -290.7323 
   5   2.0000     -10.660715      -290.0928 
   6   2.0000     -10.638680      -289.4932 
   7   2.0000     -10.636051      -289.4217 
   8   2.0000     -10.634991      -289.3928 
   9   2.0000     -10.633935      -289.3641 
  10   2.0000     -10.632838      -289.3342 
  11   2.0000     -10.627418      -289.1867 
  12   2.0000     -10.616644      -288.8936 
  13   2.0000     -10.606732      -288.6238 
  14   2.0000     -10.579307      -287.8776 
  15   2.0000     -10.576240      -287.7941 
  16   2.0000     -10.557382      -287.2810 
  17   2.0000     -10.552342      -287.1438 
  18   2.0000     -10.534716      -286.6642 
  19   2.0000      -8.396393      -228.4775 
  20   2.0000      -6.286493      -171.0642 
  21   2.0000      -6.282870      -170.9656 
  22   2.0000      -6.281077      -170.9168 
  23   2.0000      -4.031649      -109.7067 
  24   2.0000      -2.351180       -63.9789 
  25   2.0000      -2.316783       -63.0429 
  26   2.0000      -2.314850       -62.9903 
  27   2.0000      -1.311156       -35.6784 
  28   2.0000      -1.214912       -33.0594 
  29   2.0000      -1.212327       -32.9891 
  30   2.0000      -1.175378       -31.9837 
  31   2.0000      -1.121857       -30.5273 
  32   2.0000      -1.026529       -27.9333 
  33   2.0000      -0.990448       -26.9515 
  34   2.0000      -0.980297       -26.6752 
  35   2.0000      -0.961941       -26.1757 
  36   2.0000      -0.956112       -26.0171 
  37   2.0000      -0.929579       -25.2951 
  38   2.0000      -0.903663       -24.5899 
  39   2.0000      -0.872009       -23.7286 
  40   2.0000      -0.796745       -21.6805 
  41   2.0000      -0.791241       -21.5308 
  42   2.0000      -0.789437       -21.4817 
  43   2.0000      -0.779477       -21.2106 
  44   2.0000      -0.773486       -21.0476 
  45   2.0000      -0.760479       -20.6937 
  46   2.0000      -0.744405       -20.2563 
  47   2.0000      -0.723594       -19.6900 
  48   2.0000      -0.694984       -18.9115 
  49   2.0000      -0.674737       -18.3605 
  50   2.0000      -0.665204       -18.1011 
  51   2.0000      -0.652705       -17.7610 
  52   2.0000      -0.650279       -17.6950 
  53   2.0000      -0.641604       -17.4589 
  54   2.0000      -0.639374       -17.3982 
  55   2.0000      -0.632735       -17.2176 
  56   2.0000      -0.623986       -16.9795 
  57   2.0000      -0.611854       -16.6494 
  58   2.0000      -0.610698       -16.6179 
  59   2.0000      -0.608406       -16.5556 
  60   2.0000      -0.595537       -16.2054 
  61   2.0000      -0.586431       -15.9576 
  62   2.0000      -0.574859       -15.6427 
  63   2.0000      -0.568950       -15.4819 
  64   2.0000      -0.562811       -15.3149 
  65   2.0000      -0.555698       -15.1213 
  66   2.0000      -0.553025       -15.0486 
  67   2.0000      -0.548618       -14.9287 
  68   2.0000      -0.540076       -14.6962 
  69   2.0000      -0.534496       -14.5444 
  70   2.0000      -0.527747       -14.3607 
  71   2.0000      -0.521689       -14.1959 
  72   2.0000      -0.516648       -14.0587 
  73   2.0000      -0.508630       -13.8405 
  74   2.0000      -0.492159       -13.3923 
  75   2.0000      -0.480803       -13.0833 
  76   2.0000      -0.462947       -12.5974 
  77   2.0000      -0.452810       -12.3216 
  78   2.0000      -0.441873       -12.0240 
  79   2.0000      -0.421559       -11.4712 
  80   2.0000      -0.416596       -11.3362 
  81   2.0000      -0.403043       -10.9674 
  82   0.0000      -0.199235        -5.4215 
  83   0.0000      -0.165360        -4.4997 
  84   0.0000      -0.141360        -3.8466 
  85   0.0000      -0.098984        -2.6935 
  86   0.0000      -0.076218        -2.0740 
  87   0.0000      -0.069207        -1.8832 
  88   0.0000      -0.058630        -1.5954 
  89   0.0000      -0.053822        -1.4646 
  90   0.0000      -0.043259        -1.1771 
  91   0.0000      -0.036121        -0.9829 
  92   0.0000      -0.004868        -0.1325 
  93   0.0000      -0.002645        -0.0720 
  94   0.0000       0.009643         0.2624 
  95   0.0000       0.021515         0.5854 
  96   0.0000       0.029687         0.8078 
  97   0.0000       0.036833         1.0023 
  98   0.0000       0.044012         1.1976 
  99   0.0000       0.054724         1.4891 
 100   0.0000       0.068369         1.8604 
 101   0.0000       0.070425         1.9164 
 102   0.0000       0.073045         1.9877 
 103   0.0000       0.077443         2.1073 
 104   0.0000       0.081900         2.2286 
 105   0.0000       0.087916         2.3923 
 106   0.0000       0.093158         2.5350 
 107   0.0000       0.100125         2.7245 
 108   0.0000       0.107543         2.9264 
 109   0.0000       0.113338         3.0841 
 110   0.0000       0.115154         3.1335 
 111   0.0000       0.119725         3.2579 
 112   0.0000       0.122737         3.3398 
 113   0.0000       0.125472         3.4143 
 114   0.0000       0.131329         3.5736 
 115   0.0000       0.136795         3.7224 
 116   0.0000       0.141731         3.8567 
 117   0.0000       0.151759         4.1296 
 118   0.0000       0.157022         4.2728 
 119   0.0000       0.158675         4.3178 
 120   0.0000       0.165932         4.5152 
 121   0.0000       0.177416         4.8277 
 122   0.0000       0.187592         5.1046 
 123   0.0000       0.202169         5.5013 
 124   0.0000       0.223838         6.0909 
 125   0.0000       0.231257         6.2928 
 126   0.0000       0.259916         7.0727 
 127   0.0000       0.273087         7.4311 
 128   0.0000       0.280583         7.6350 
 129   0.0000       0.295884         8.0514 
 130   0.0000       0.300875         8.1872 
 131   0.0000       0.310800         8.4573 
 132   0.0000       0.322432         8.7738 
 133   0.0000       0.338371         9.2075 
 134   0.0000       0.344075         9.3628 
 135   0.0000       0.359106         9.7718 
 136   0.0000       0.363357         9.8874 
 137   0.0000       0.372758        10.1433 
 138   0.0000       0.384015        10.4496 
 139   0.0000       0.397118        10.8061 
 140   0.0000       0.400719        10.9041 
 141   0.0000       0.416679        11.3384 
 142   0.0000       0.422360        11.4930 
 143   0.0000       0.436585        11.8801 
 144   0.0000       0.443994        12.0817 
 145   0.0000       0.448251        12.1975 
[...]

----------------------
LOEWDIN ATOMIC CHARGES
----------------------
   0 Ir:   -0.208927
   1 C :   -0.040286
   2 C :   -0.057114
   3 C :   -0.047926
   4 C :   -0.051897
   5 C :   -0.026351
   6 N :   -0.012589
   7 C :   -0.068536
   8 C :   -0.364369
   9 H :    0.157108
  10 H :    0.133815
  11 H :    0.146719
  12 C :   -0.343714
  13 H :    0.155538
  14 H :    0.152974
  15 H :    0.137351
  16 H :    0.133434
  17 C :    0.037031
  18 C :   -0.197053
  19 H :    0.161855
  20 C :   -0.193806
  21 C :   -0.147705
  22 S :    0.455593
  23 C :   -0.261719
  24 H :    0.295546
  25 H :    0.160387
  26 H :    0.166854
  27 H :    0.186087
  28 H :    0.186530
  29 H :    0.193736
  30 O :   -0.277360
  31 O :   -0.203967
  32 C :    0.160152
  33 C :   -0.375462
  34 H :    0.160533
  35 H :    0.168064
  36 H :    0.153591
  37 H :    0.188421
  38 H :    0.187465

-------------------------------
LOEWDIN REDUCED ORBITAL CHARGES
-------------------------------
  0 Irs       :     2.455681  s :     2.455681
      pz      :     2.236316  p :     6.739578
      px      :     2.234707
      py      :     2.268555
      dz2     :     1.850029  d :     7.924447
      dxz     :     1.741461
      dyz     :     1.260782
      dx2y2   :     1.644789
      dxy     :     1.427385
      f0      :     0.011524  f :     0.089221
      f+1     :     0.003102
      f-1     :     0.012605
      f+2     :     0.017484
      f-2     :     0.016310
      f+3     :     0.011292
      f-3     :     0.016904
  1 C s       :     2.875423  s :     2.875423
      pz      :     1.047757  p :     3.060535
      px      :     1.088050
      py      :     0.924727
      dz2     :     0.026516  d :     0.104329
      dxz     :     0.027109
      dyz     :     0.017366
      dx2y2   :     0.018465
      dxy     :     0.014873
  2 C s       :     2.874665  s :     2.874665
      pz      :     1.045903  p :     3.079371
      px      :     1.075475
      py      :     0.957992
      dz2     :     0.025785  d :     0.103078
      dxz     :     0.027825
      dyz     :     0.017764
      dx2y2   :     0.018425
      dxy     :     0.013279
  3 C s       :     2.875712  s :     2.875712
      pz      :     1.036079  p :     3.070035
      px      :     1.076986
      py      :     0.956970
      dz2     :     0.024213  d :     0.102179
      dxz     :     0.032343
      dyz     :     0.016250
      dx2y2   :     0.015033
      dxy     :     0.014340
  4 C s       :     2.874534  s :     2.874534
      pz      :     1.093699  p :     3.075002
      px      :     1.035406
      py      :     0.945898
      dz2     :     0.022731  d :     0.102360
      dxz     :     0.031836
      dyz     :     0.012864
      dx2y2   :     0.017629
      dxy     :     0.017301
  5 C s       :     2.877333  s :     2.877333
      pz      :     1.065773  p :     3.045005
      px      :     1.032558
      py      :     0.946674
      dz2     :     0.025309  d :     0.104014
      dxz     :     0.030254
      dyz     :     0.015514
      dx2y2   :     0.015510
      dxy     :     0.017428
  6 N s       :     3.122324  s :     3.122324
      pz      :     1.271234  p :     3.792310
      px      :     1.290264
      py      :     1.230812
      dz2     :     0.029928  d :     0.097956
      dxz     :     0.027684
      dyz     :     0.018762
      dx2y2   :     0.011514
      dxy     :     0.010069
  7 C s       :     2.862319  s :     2.862319
      pz      :     1.063267  p :     3.071909
      px      :     0.934712
      py      :     1.073930
      dz2     :     0.023764  d :     0.134309
      dxz     :     0.028156
      dyz     :     0.020094
      dx2y2   :     0.029350
      dxy     :     0.032945
  8 C s       :     2.953244  s :     2.953244
      pz      :     1.129167  p :     3.343677
      px      :     1.124318
      py      :     1.090191
      dz2     :     0.011649  d :     0.067449
      dxz     :     0.017758
      dyz     :     0.011031
      dx2y2   :     0.008684
      dxy     :     0.018327
  9 H s       :     0.842892  s :     0.842892
 10 H s       :     0.866185  s :     0.866185
 11 H s       :     0.853281  s :     0.853281
 12 C s       :     2.952980  s :     2.952980
      pz      :     1.139216  p :     3.322805
      px      :     1.111944
      py      :     1.071645
      dz2     :     0.009805  d :     0.067929
      dxz     :     0.013130
      dyz     :     0.016404
      dx2y2   :     0.011068
      dxy     :     0.017523
 13 H s       :     0.844462  s :     0.844462
 14 H s       :     0.847026  s :     0.847026
 15 H s       :     0.862649  s :     0.862649
 16 H s       :     0.866566  s :     0.866566
 17 C s       :     2.878792  s :     2.878792
      pz      :     1.022956  p :     2.943155
      px      :     1.065963
      py      :     0.854236
      dz2     :     0.040703  d :     0.141021
      dxz     :     0.051736
      dyz     :     0.024436
      dx2y2   :     0.011639
      dxy     :     0.012507
 18 C s       :     2.896575  s :     2.896575
      pz      :     1.040493  p :     3.188923
      px      :     1.088307
      py      :     1.060122
      dz2     :     0.030442  d :     0.111556
      dxz     :     0.028822
      dyz     :     0.016623
      dx2y2   :     0.021945
      dxy     :     0.013725
 19 H s       :     0.838145  s :     0.838145
 20 C s       :     2.931930  s :     2.931930
      pz      :     1.099240  p :     3.174028
      px      :     1.044166
      py      :     1.030621
      dz2     :     0.010315  d :     0.087848
      dxz     :     0.032547
      dyz     :     0.008710
      dx2y2   :     0.016729
      dxy     :     0.019548
 21 C s       :     2.899283  s :     2.899283
      pz      :     1.065075  p :     3.154191
      px      :     1.091038
      py      :     0.998078
      dz2     :     0.024115  d :     0.094231
      dxz     :     0.027318
      dyz     :     0.014627
      dx2y2   :     0.017274
      dxy     :     0.010897
 22 S s       :     5.506542  s :     5.506542
      pz      :     3.290734  p :     9.885963
      px      :     3.085524
      py      :     3.509705
      dz2     :     0.039206  d :     0.151903
      dxz     :     0.030290
      dyz     :     0.024036
      dx2y2   :     0.033423
      dxy     :     0.024948
 23 C s       :     2.965767  s :     2.965767
      pz      :     1.115820  p :     3.209859
      px      :     1.022226
      py      :     1.071812
      dz2     :     0.020490  d :     0.086093
      dxz     :     0.026529
      dyz     :     0.012356
      dx2y2   :     0.014621
      dxy     :     0.012098
 24 H s       :     0.704454  s :     0.704454
 25 H s       :     0.839613  s :     0.839613
 26 H s       :     0.833146  s :     0.833146
 27 H s       :     0.813913  s :     0.813913
 28 H s       :     0.813470  s :     0.813470
 29 H s       :     0.806264  s :     0.806264
 30 O s       :     3.503790  s :     3.503790
      pz      :     1.456481  p :     4.718756
      px      :     1.534090
      py      :     1.728185
      dz2     :     0.017692  d :     0.054814
      dxz     :     0.012730
      dyz     :     0.016951
      dx2y2   :     0.004068
      dxy     :     0.003372
 31 O s       :     3.444197  s :     3.444197
      pz      :     1.697741  p :     4.700645
      px      :     1.622941
      py      :     1.379963
      dz2     :     0.009309  d :     0.059126
      dxz     :     0.003603
      dyz     :     0.016501
      dx2y2   :     0.015481
      dxy     :     0.014232
 32 C s       :     2.813000  s :     2.813000
      pz      :     1.001908  p :     2.704428
      px      :     0.751450
      py      :     0.951069
      dz2     :     0.076332  d :     0.322420
      dxz     :     0.045490
      dyz     :     0.108457
      dx2y2   :     0.044718
      dxy     :     0.047423
 33 C s       :     2.959499  s :     2.959499
      pz      :     1.096658  p :     3.353270
      px      :     1.150283
      py      :     1.106329
      dz2     :     0.005761  d :     0.062693
      dxz     :     0.017061
      dyz     :     0.019519
      dx2y2   :     0.018095
      dxy     :     0.002258
 34 H s       :     0.839467  s :     0.839467
 35 H s       :     0.831936  s :     0.831936
 36 H s       :     0.846409  s :     0.846409
 37 H s       :     0.811579  s :     0.811579
 38 H s       :     0.812535  s :     0.812535


                      *****************************
                      * MAYER POPULATION ANALYSIS *
                      *****************************

  NA   - Mulliken gross atomic population
  ZA   - Total nuclear charge
  QA   - Mulliken gross atomic charge
  VA   - Mayer's total valence
  BVA  - Mayer's bonded valence
  FA   - Mayer's free valence

  ATOM       NA         ZA         QA         VA         BVA        FA
  0 Ir    16.3786    17.0000     0.6214     3.7561     3.7561    -0.0000
  1 C      6.2091     6.0000    -0.2091     3.6952     3.6952    -0.0000
  2 C      6.2958     6.0000    -0.2958     3.7427     3.7427    -0.0000
  3 C      6.2315     6.0000    -0.2315     3.7291     3.7291    -0.0000
  4 C      6.2432     6.0000    -0.2432     3.7218     3.7218    -0.0000
  5 C      6.1675     6.0000    -0.1675     3.6896     3.6896     0.0000
  6 N      7.4328     7.0000    -0.4328     3.2155     3.2155    -0.0000
  7 C      6.1197     6.0000    -0.1197     3.7005     3.7005     0.0000
  8 C      6.6922     6.0000    -0.6922     3.6872     3.6872    -0.0000
  9 H      0.7281     1.0000     0.2719     0.8966     0.8966    -0.0000
 10 H      0.7739     1.0000     0.2261     0.9096     0.9096     0.0000
 11 H      0.7397     1.0000     0.2603     0.8976     0.8976    -0.0000
 12 C      6.6380     6.0000    -0.6380     3.6735     3.6735     0.0000
 13 H      0.7202     1.0000     0.2798     0.8753     0.8753     0.0000
 14 H      0.7355     1.0000     0.2645     0.8966     0.8966    -0.0000
 15 H      0.7689     1.0000     0.2311     0.9095     0.9095    -0.0000
 16 H      0.7687     1.0000     0.2313     0.9058     0.9058    -0.0000
 17 C      5.9321     6.0000     0.0679     3.6400     3.6400    -0.0000
 18 C      6.2128     6.0000    -0.2128     3.7117     3.7117     0.0000
 19 H      0.7101     1.0000     0.2899     0.8866     0.8866    -0.0000
 20 C      6.4041     6.0000    -0.4041     3.4477     3.4477     0.0000
 21 C      6.1499     6.0000    -0.1499     3.7603     3.7603    -0.0000
 22 S     15.7060    16.0000     0.2940     2.5577     2.5577     0.0000
 23 C      6.4263     6.0000    -0.4263     3.7438     3.7438     0.0000
 24 H      0.4979     1.0000     0.5021     0.7277     0.7277    -0.0000
 25 H      0.7365     1.0000     0.2635     0.9037     0.9037    -0.0000
 26 H      0.7048     1.0000     0.2952     0.8983     0.8983    -0.0000
 27 H      0.7070     1.0000     0.2930     0.9012     0.9012    -0.0000
 28 H      0.7059     1.0000     0.2941     0.9040     0.9040    -0.0000
 29 H      0.6933     1.0000     0.3067     0.8918     0.8918     0.0000
 30 O      8.4909     8.0000    -0.4909     2.0973     2.0973    -0.0000
 31 O      8.5390     8.0000    -0.5390     2.0787     2.0787     0.0000
 32 C      5.3799     6.0000     0.6201     3.9122     3.9122     0.0000
 33 C      6.7462     6.0000    -0.7462     3.6667     3.6667    -0.0000
 34 H      0.7297     1.0000     0.2703     0.8949     0.8949    -0.0000
 35 H      0.7324     1.0000     0.2676     0.8948     0.8948    -0.0000
 36 H      0.7457     1.0000     0.2543     0.9005     0.9005     0.0000
 37 H      0.7035     1.0000     0.2965     0.8995     0.8995     0.0000
 38 H      0.7027     1.0000     0.2973     0.9016     0.9016    -0.0000

  Mayer bond orders larger than 0.100000
B(  0-Ir,  1-C ) :   0.4231 B(  0-Ir,  2-C ) :   0.5541 B(  0-Ir,  3-C ) :   0.4617 
B(  0-Ir,  4-C ) :   0.4563 B(  0-Ir,  5-C ) :   0.4041 B(  0-Ir,  6-N ) :   0.4691 
B(  0-Ir, 20-C ) :   0.2254 B(  0-Ir, 31-O ) :   0.5780 B(  1-C ,  2-C ) :   1.1126 
B(  1-C ,  4-C ) :   1.2435 B(  1-C , 27-H ) :   0.9027 B(  2-C ,  5-C ) :   1.1287 
B(  2-C , 28-H ) :   0.9064 B(  3-C ,  4-C ) :   1.1045 B(  3-C ,  5-C ) :   1.2359 
B(  3-C , 37-H ) :   0.9028 B(  4-C , 38-H ) :   0.8982 B(  5-C , 29-H ) :   0.8978 
B(  6-N ,  7-C ) :   0.8910 B(  6-N , 17-C ) :   1.6868 B(  7-C ,  8-C ) :   0.9923 
B(  7-C , 12-C ) :   0.9692 B(  7-C , 13-H ) :   0.8738 B(  8-C ,  9-H ) :   0.9036 
B(  8-C , 10-H ) :   0.9125 B(  8-C , 11-H ) :   0.9084 B( 12-C , 14-H ) :   0.9064 
B( 12-C , 15-H ) :   0.9154 B( 12-C , 16-H ) :   0.9117 B( 17-C , 18-C ) :   1.0618 
B( 17-C , 19-H ) :   0.8742 B( 18-C , 20-C ) :   1.3078 B( 18-C , 22-S ) :   1.2076 
B( 20-C , 21-C ) :   1.2758 B( 20-C , 24-H ) :   0.4651 B( 21-C , 23-C ) :   1.5424 
B( 21-C , 25-H ) :   0.9052 B( 22-S , 23-C ) :   1.2065 B( 23-C , 26-H ) :   0.8930 
B( 24-H , 30-O ) :   0.2380 B( 30-O , 32-C ) :   1.6708 B( 31-O , 32-C ) :   1.2879 
B( 32-C , 33-C ) :   0.9482 B( 33-C , 34-H ) :   0.9043 B( 33-C , 35-H ) :   0.8976 
B( 33-C , 36-H ) :   0.9092 


------------------
HIRSHFELD ANALYSIS
------------------

Total integrated alpha density =     82.000297185
Total integrated beta density  =     82.000297185

  ATOM     CHARGE      SPIN    
   0 Ir   0.209124    0.000000
   1 C    0.007690    0.000000
   2 C    0.003340    0.000000
   3 C    0.004863    0.000000
   4 C   -0.001353    0.000000
   5 C    0.018131    0.000000
   6 N   -0.070657    0.000000
   7 C    0.053809    0.000000
   8 C   -0.070964    0.000000
   9 H    0.053794    0.000000
  10 H    0.038001    0.000000
  11 H    0.043750    0.000000
  12 C   -0.070629    0.000000
  13 H    0.046403    0.000000
  14 H    0.051519    0.000000
  15 H    0.036706    0.000000
  16 H    0.030317    0.000000
  17 C    0.101317    0.000000
  18 C   -0.013175    0.000000
  19 H    0.077249    0.000000
  20 C   -0.070875    0.000000
  21 C   -0.038027    0.000000
  22 S    0.112304    0.000000
  23 C   -0.027537    0.000000
  24 H    0.062584    0.000000
  25 H    0.067514    0.000000
  26 H    0.076699    0.000000
  27 H    0.084705    0.000000
  28 H    0.086197    0.000000
  29 H    0.095047    0.000000
  30 O   -0.248746    0.000000
  31 O   -0.257004    0.000000
  32 C    0.245433    0.000000
  33 C   -0.067287    0.000000
  34 H    0.054955    0.000000
  35 H    0.060005    0.000000
  36 H    0.048615    0.000000
  37 H    0.087012    0.000000
  38 H    0.078577    0.000000

  TOTAL   0.999406    0.000000

-------
TIMINGS
-------

Total SCF time: 0 days 0 hours 4 min 14 sec 

Total time                  ....     254.957 sec
Sum of individual times     ....     254.349 sec  ( 99.8%)

Fock matrix formation       ....     246.981 sec  ( 96.9%)
  Split-RI-J                ....      19.362 sec  (  7.8% of F)
  Chain of spheres X        ....     215.761 sec  ( 87.4% of F)
  XC integration            ....      11.843 sec  (  4.8% of F)
    Basis function eval.    ....       5.478 sec  ( 46.3% of XC)
    Density eval.           ....       3.154 sec  ( 26.6% of XC)
    XC-Functional eval.     ....       0.879 sec  (  7.4% of XC)
    XC-Potential eval.      ....       1.851 sec  ( 15.6% of XC)
Diagonalization             ....       0.183 sec  (  0.1%)
Density matrix formation    ....       0.029 sec  (  0.0%)
Population analysis         ....       1.098 sec  (  0.4%)
Initial guess               ....       0.027 sec  (  0.0%)
Orbital Transformation      ....       0.000 sec  (  0.0%)
Orbital Orthonormalization  ....       0.020 sec  (  0.0%)
DIIS solution               ....       0.077 sec  (  0.0%)
Grid generation             ....       5.953 sec  (  2.3%)

Maximum memory used throughout the entire SCF-calculation: 173.2 MB


-------------------------------------------------------------------------------
                          DFT DISPERSION CORRECTION                            
                                                                               
                              DFTD3 V3.1  Rev 1                                
                          USING Becke-Johnson damping                          
-------------------------------------------------------------------------------
The PBEh-3c composite method is recognized
Using three-body term ABC
Active option DFTDOPT                   ...         4   

molecular C6(AA) [au] = 19585.120003 


            DFT-D V3
 parameters
 s6 scaling factor         :     1.0000 
 a1 scaling factor         :     0.4860 
 s8 scaling factor         :     0.0000 
 a2 scaling factor         :     4.5000 
 Damping factor alpha9(ATM):    16.0000 
 ad hoc parameters k1-k3   :    16.0000     1.3333    -4.0000 

 Edisp/kcal,au: -19.281244636129  -0.030726615894 
 E6   /kcal   : -19.628184834 
 E8   /kcal   :  -0.000000000 
 E6(ABC)      :   0.346940198 
 % E8         :   0.000000000 
 % E6(ABC)    :  -1.799366195 

-------------------------   ----------------
Dispersion correction           -0.030726616
-------------------------   ----------------

 ** NOTE ** -> element ir will be treated as co
NOTIFICATION: Different basis set in ORCA and otool_gcp:
ORCA: 358  gCP: 357 
If you are NOT using ECPs, check your basis set inputs!
------------------   -----------------
gCP correction             0.076983438
------------------   -----------------

-------------------------   --------------------
FINAL SINGLE POINT ENERGY     -1288.393429763699
-------------------------   --------------------

                                *** OPTIMIZATION RUN DONE ***

                            ***************************************
                            *     ORCA property calculations      *
                            ***************************************

                                    ---------------------
                                    Active property flags
                                    ---------------------
   (+) Dipole Moment


------------------------------------------------------------------------------
                       ORCA ELECTRIC PROPERTIES CALCULATION
------------------------------------------------------------------------------

Dipole Moment Calculation                       ... on
Quadrupole Moment Calculation                   ... off
Polarizability Calculation                      ... off
GBWName                                         ... reaction4-IEIP_ts_guess_scan_1-10_orca.gbw
Electron density                                ... reaction4-IEIP_ts_guess_scan_1-10_orca.scfp
The origin for moment calculation is the CENTER OF MASS  = ( 0.835896, -0.640908 -0.094596)

-------------
DIPOLE MOMENT
-------------
                                X             Y             Z
Electronic contribution:     33.43147     -69.24831      78.10507
Nuclear contribution   :    -34.06289      68.06679     -78.21069
                        -----------------------------------------
Total Dipole Moment    :     -0.63142      -1.18152      -0.10562
                        -----------------------------------------
Magnitude (a.u.)       :      1.34382
Magnitude (Debye)      :      3.41571



--------------------
Rotational spectrum 
--------------------
 
Rotational constants in cm-1:     0.010617     0.008956     0.008185 
Rotational constants in MHz :   318.281416   268.484801   245.382907 

 Dipole components along the rotational axes: 
x,y,z [a.u.] :    -0.030219    -0.529595     1.234689 
x,y,z [Debye]:    -0.076810    -1.346124     3.138330 

 

Timings for individual modules:

Sum of individual times         ...     5405.813 sec (=  90.097 min)
GTO integral calculation        ...       18.507 sec (=   0.308 min)   0.3 %
SCF iterations                  ...     4268.078 sec (=  71.135 min)  79.0 %
SCF Gradient evaluation         ...     1116.430 sec (=  18.607 min)  20.7 %
Geometry relaxation             ...        2.797 sec (=   0.047 min)   0.1 %
                             ****ORCA TERMINATED NORMALLY****
TOTAL RUN TIME: 0 days 1 hours 30 minutes 9 seconds 872 msec
