
                                 *****************
                                 * O   R   C   A *
                                 *****************

                                            #,                                       
                                            ###                                      
                                            ####                                     
                                            #####                                    
                                            ######                                   
                                           ########,                                 
                                     ,,################,,,,,                         
                               ,,#################################,,                 
                          ,,##########################################,,             
                       ,#########################################, ''#####,          
                    ,#############################################,,   '####,        
                  ,##################################################,,,,####,       
                ,###########''''           ''''###############################       
              ,#####''   ,,,,##########,,,,          '''####'''          '####       
            ,##' ,,,,###########################,,,                        '##       
           ' ,,###''''                  '''############,,,                           
         ,,##''                                '''############,,,,        ,,,,,,###''
      ,#''                                            '''#######################'''  
     '                                                          ''''####''''         
             ,#######,   #######,   ,#######,      ##                                
            ,#'     '#,  ##    ##  ,#'     '#,    #''#        ######   ,####,        
            ##       ##  ##   ,#'  ##            #'  '#       #        #'  '#        
            ##       ##  #######   ##           ,######,      #####,   #    #        
            '#,     ,#'  ##    ##  '#,     ,#' ,#      #,         ##   #,  ,#        
             '#######'   ##     ##  '#######'  #'      '#     #####' # '####'        



                  #######################################################
                  #                        -***-                        #
                  #          Department of theory and spectroscopy      #
                  #    Directorship and core code : Frank Neese         #
                  #        Max Planck Institute fuer Kohlenforschung    #
                  #                Kaiser Wilhelm Platz 1               #
                  #                 D-45470 Muelheim/Ruhr               #
                  #                      Germany                        #
                  #                                                     #
                  #                  All rights reserved                #
                  #                        -***-                        #
                  #######################################################


                         Program Version 5.0.3 -  RELEASE  -


 With contributions from (in alphabetic order):
   Daniel Aravena         : Magnetic Suceptibility
   Michael Atanasov       : Ab Initio Ligand Field Theory (pilot matlab implementation)
   Alexander A. Auer      : GIAO ZORA, VPT2 properties, NMR spectrum
   Ute Becker             : Parallelization
   Giovanni Bistoni       : ED, misc. LED, open-shell LED, HFLD
   Martin Brehm           : Molecular dynamics
   Dmytro Bykov           : SCF Hessian
   Vijay G. Chilkuri      : MRCI spin determinant printing, contributions to CSF-ICE
   Dipayan Datta          : RHF DLPNO-CCSD density
   Achintya Kumar Dutta   : EOM-CC, STEOM-CC
   Dmitry Ganyushin       : Spin-Orbit,Spin-Spin,Magnetic field MRCI
   Miquel Garcia          : C-PCM and meta-GGA Hessian, CC/C-PCM, Gaussian charge scheme
   Yang Guo               : DLPNO-NEVPT2, F12-NEVPT2, CIM, IAO-localization
   Andreas Hansen         : Spin unrestricted coupled pair/coupled cluster methods
   Benjamin Helmich-Paris : MC-RPA, TRAH-SCF, COSX integrals
   Lee Huntington         : MR-EOM, pCC
   Robert Izsak           : Overlap fitted RIJCOSX, COSX-SCS-MP3, EOM
   Marcus Kettner         : VPT2
   Christian Kollmar      : KDIIS, OOCD, Brueckner-CCSD(T), CCSD density, CASPT2, CASPT2-K
   Simone Kossmann        : Meta GGA functionals, TD-DFT gradient, OOMP2, MP2 Hessian
   Martin Krupicka        : Initial AUTO-CI
   Lucas Lang             : DCDCAS
   Marvin Lechner         : AUTO-CI (C++ implementation), FIC-MRCC
   Dagmar Lenk            : GEPOL surface, SMD
   Dimitrios Liakos       : Extrapolation schemes; Compound Job, initial MDCI parallelization
   Dimitrios Manganas     : Further ROCIS development; embedding schemes
   Dimitrios Pantazis     : SARC Basis sets
   Anastasios Papadopoulos: AUTO-CI, single reference methods and gradients
   Taras Petrenko         : DFT Hessian,TD-DFT gradient, ASA, ECA, R-Raman, ABS, FL, XAS/XES, NRVS
   Peter Pinski           : DLPNO-MP2, DLPNO-MP2 Gradient
   Christoph Reimann      : Effective Core Potentials
   Marius Retegan         : Local ZFS, SOC
   Christoph Riplinger    : Optimizer, TS searches, QM/MM, DLPNO-CCSD(T), (RO)-DLPNO pert. Triples
   Tobias Risthaus        : Range-separated hybrids, TD-DFT gradient, RPA, STAB
   Michael Roemelt        : Original ROCIS implementation
   Masaaki Saitow         : Open-shell DLPNO-CCSD energy and density
   Barbara Sandhoefer     : DKH picture change effects
   Avijit Sen             : IP-ROCIS
   Kantharuban Sivalingam : CASSCF convergence, NEVPT2, FIC-MRCI
   Bernardo de Souza      : ESD, SOC TD-DFT
   Georgi Stoychev        : AutoAux, RI-MP2 NMR, DLPNO-MP2 response
   Willem Van den Heuvel  : Paramagnetic NMR
   Boris Wezisla          : Elementary symmetry handling
   Frank Wennmohs         : Technical directorship


 We gratefully acknowledge several colleagues who have allowed us to
 interface, adapt or use parts of their codes:
   Stefan Grimme, W. Hujo, H. Kruse, P. Pracht,  : VdW corrections, initial TS optimization,
                  C. Bannwarth, S. Ehlert          DFT functionals, gCP, sTDA/sTD-DF
   Ed Valeev, F. Pavosevic, A. Kumar             : LibInt (2-el integral package), F12 methods
   Garnet Chan, S. Sharma, J. Yang, R. Olivares  : DMRG
   Ulf Ekstrom                                   : XCFun DFT Library
   Mihaly Kallay                                 : mrcc  (arbitrary order and MRCC methods)
   Jiri Pittner, Ondrej Demel                    : Mk-CCSD
   Frank Weinhold                                : gennbo (NPA and NBO analysis)
   Christopher J. Cramer and Donald G. Truhlar   : smd solvation model
   Lars Goerigk                                  : TD-DFT with DH, B97 family of functionals
   V. Asgeirsson, H. Jonsson                     : NEB implementation
   FAccTs GmbH                                   : IRC, NEB, NEB-TS, DLPNO-Multilevel, CI-OPT
                                                   MM, QMMM, 2- and 3-layer-ONIOM, Crystal-QMMM,
                                                   LR-CPCM, SF, NACMEs, symmetry and pop. for TD-DFT,
                                                   nearIR, NL-DFT gradient (VV10), updates on ESD,
                                                   ML-optimized integration grids
   S Lehtola, MJT Oliveira, MAL Marques          : LibXC Library
   Liviu Ungur et al                             : ANISO software


 Your calculation uses the libint2 library for the computation of 2-el integrals
 For citations please refer to: http://libint.valeyev.net

 Your ORCA version has been built with support for libXC version: 5.1.0
 For citations please refer to: https://tddft.org/programs/libxc/

 This ORCA versions uses:
   CBLAS   interface :  Fast vector & matrix operations
   LAPACKE interface :  Fast linear algebra routines
   SCALAPACK package :  Parallel linear algebra routines
   Shared memory     :  Shared parallel matrices
   BLAS/LAPACK       :  OpenBLAS 0.3.15  USE64BITINT DYNAMIC_ARCH NO_AFFINITY SkylakeX SINGLE_THREADED
        Core in use  :  SkylakeX
   Copyright (c) 2011-2014, The OpenBLAS Project


Your calculation utilizes the geometrical counterpoise correction gCP
Please cite in your paper:
H.Kruse, S. Grimme J.Chem.Phys., 136, (2012), 154101 
   

Your calculation utilizes the atom-pairwise dispersion correction
with the Becke-Johnson damping scheme (D3BJ)
Cite in your paper:
S.Grimme, S.Ehrlich, L.Goerigk, J Comput Chem, (2011), 32, 1456–1465 
S.Grimme, J.Antony, S.Ehrlich and H.Krieg, J.Chem.Phys., 132, (2010), 154104 
   

Your calculation employs the composite approach PBEh-3c.
Please cite in your paper:
S. Grimme, J. G. Brandenburg, C. Bannwarth, A. Hansen J.Chem.Phys., 143, (2015), 054107 
   

================================================================================

cite the ECPs for Ir [Def2-ECP] as follows:
Ce-Yb(ecp-28): M. Dolg, H. Stoll, H.Preuss, J. Chem. Phys., 1989, 90, 1730-1734.
Y-Cd(ecp-28), Hf-Hg(ecp-46): D. Andrae,U. Haeussermann, M. Dolg, H. Stoll, H. Preuss, Theor. Chim. Acta, 1990, 77, 123-141.
In-Sb(ecp-28), Tl-Bi(ecp-46): B. Metz, H. Stoll, M. Dolg, J. Chem. Phys., 2000, 113, 2563-2569.
Te-Xe(ecp-28), Po-Rn(ecp-46): K. A. Peterson, D. Figgen, E. Goll, H. Stoll, M. Dolg, J. Chem. Phys., 2003, 119, 11113-11123.
Rb(ecp-28), Cs(ecp-46): T. Leininger, A. Nicklass, W. Kuechle, H. Stoll, M. Dolg, A. Bergner, Chem. Phys. Lett., 1996, 255, 274-280.
Sr(ecp-28), Ba(ecp-46): M. Kaupp, P. V. Schleyer, H. Stoll and H. Preuss, J. Chem. Phys., 1991, 94, 1360-1366.
La(ecp-46): M. Dolg, H. Stoll, A. Savin, H. Preuss, Theor. Chim. Acta, 1989, 75, 173-194.
Lu(ecp-28): X. Cao, M. Dolg, J. Chem. Phys., 2001, 115, 7348-7355.

ECP parameters for Ir [Def2-ECP] have been obtained from:
TURBOMOLE (7.0.2)

----- Orbital basis set information -----
Your calculation utilizes the basis: def2-mSVP

----- AuxJ basis set information -----
Your calculation utilizes the auxiliary basis: def2/J
   F. Weigend, Phys. Chem. Chem. Phys. 8, 1057 (2006).

================================================================================
                                        WARNINGS
                       Please study these warnings very carefully!
================================================================================


WARNING: Geometry Optimization
  ===> : Switching off AutoStart
         For restart on a previous wavefunction, please use MOREAD

WARNING: No Hueckel Guess possible with ECP basis!
  ===> : Switching to HCORE guess!

INFO   : the flag for use of the SHARK integral package has been found!

================================================================================
                                       INPUT FILE
================================================================================
NAME = reaction4-IEIP_ts_guess_scan_7-13_orca.inp
|  1> ! Opt PBEh-3c
|  2> %geom Constraints
|  3> { B 0 20 2.3 C }
|  4> { B 24 30 1.3142857142857143 C }
|  5>     end
|  6> end
|  7> %output 
|  8> xyzfile=True 
|  9> end 
| 10> %scf 
| 11> maxiter 250 
| 12> end
| 13> %output
| 14> Print[P_Hirshfeld] = 1
| 15> end
| 16> % maxcore
| 17> 4000
| 18> *xyz 1 1
| 19> Ir   0.59613293  -0.73641292   0.48810072 
| 20> C    0.09353580  -2.83536038   0.37522547 
| 21> C   -0.05582288  -2.36526053   1.72871866 
| 22> C    2.15757053  -2.10484152   1.11527717 
| 23> C    1.44005434  -2.66415944  -0.00369785 
| 24> C    1.23509612  -1.95191623   2.17428754 
| 25> N   -1.04937794   0.11617274  -0.50145539 
| 26> C   -2.33396006   0.34507459   0.18182783 
| 27> C   -3.11636571   1.52977616  -0.36706244 
| 28> H   -3.95247315   1.73851070   0.29879442 
| 29> H   -3.54455791   1.33682342  -1.35156820 
| 30> H   -2.50722456   2.43236445  -0.41964670 
| 31> C   -3.16294306  -0.93379810   0.14803452 
| 32> H   -2.06889990   0.56505487   1.21695737 
| 33> H   -4.07972707  -0.79691158   0.72005682 
| 34> H   -3.44337893  -1.19374650  -0.87355289 
| 35> H   -2.63075477  -1.77916787   0.58129757 
| 36> C   -0.88433543   0.41197527  -1.73734026 
| 37> C    0.43795023   0.25806125  -2.27436261 
| 38> H   -1.69983039   0.79367526  -2.34475782 
| 39> C    1.53596467   0.23453142  -1.42578617 
| 40> C    2.72290235  -0.04217847  -2.15932862 
| 41> S    0.84706683  -0.00740640  -3.90711513 
| 42> C    2.49917306  -0.18501989  -3.49682926 
| 43> H    1.63346909   1.20642109  -0.56640114 
| 44> H    3.71085370  -0.07529649  -1.72363265 
| 45> H    3.22667530  -0.36619489  -4.27350042 
| 46> H   -0.69050356  -3.23970456  -0.24841768 
| 47> H   -0.95109804  -2.40373235   2.33096193 
| 48> H    1.45410822  -1.52027357   3.14079502 
| 49> O    1.68634448   2.29324574   0.19591008 
| 50> O    0.53787747   0.99706964   1.59488346 
| 51> C    1.09335696   2.09782255   1.27229941 
| 52> C    1.03949329   3.20046511   2.28734247 
| 53> H    0.95776173   4.16818428   1.79821372 
| 54> H    1.97165720   3.20237665   2.85523694 
| 55> H    0.21954167   3.06298770   2.98696810 
| 56> H    3.21282663  -1.88194981   1.15207180 
| 57> H    1.86121079  -2.90807135  -0.96806559 
| 58> *
| 59> 
| 60>                          ****END OF INPUT****
================================================================================

                       *****************************
                       * Geometry Optimization Run *
                       *****************************

Geometry optimization settings:
Update method            Update   .... BFGS
Choice of coordinates    CoordSys .... Z-matrix Internals
Initial Hessian          InHess   .... Almoef's Model

Convergence Tolerances:
Energy Change            TolE     ....  5.0000e-06 Eh
Max. Gradient            TolMAXG  ....  3.0000e-04 Eh/bohr
RMS Gradient             TolRMSG  ....  1.0000e-04 Eh/bohr
Max. Displacement        TolMAXD  ....  4.0000e-03 bohr
RMS Displacement         TolRMSD  ....  2.0000e-03 bohr
Strict Convergence                ....  False
------------------------------------------------------------------------------
                        ORCA OPTIMIZATION COORDINATE SETUP
------------------------------------------------------------------------------

The optimization will be done in new redundant internal coordinates
Making redundant internal coordinates   ...  (new redundants) done
Evaluating the initial hessian          ...  (Almloef) done
Evaluating the coordinates              ...  done
Calculating the B-matrix                .... done
Calculating the G-matrix                .... done
Diagonalizing the G-matrix              .... done
Imposing constraints:
 Iter   0:  RMS(Cart)=    0.0220852244 RMS(Int)=    0.0067541944
 Iter   1:  RMS(Cart)=    0.0025650705 RMS(Int)=    0.0008517460
 Iter   2:  RMS(Cart)=    0.0003217560 RMS(Int)=    0.0001093968
 Iter   3:  RMS(Cart)=    0.0000411243 RMS(Int)=    0.0000140941
 Iter   4:  RMS(Cart)=    0.0000052864 RMS(Int)=    0.0000018170
 Iter   5:  RMS(Cart)=    0.0000006809 RMS(Int)=    0.0000002343
 Iter   6:  RMS(Cart)=    0.0000000878 RMS(Int)=    0.0000000302
CONVERGED
Small eigenvalue found = 1.406e-02
Small eigenvalue found = 2.239e-02
Small eigenvalue found = 2.767e-02
The first mode is                       ....  234
The number of degrees of freedom        ....  111
Storing new coordinates                 .... done

    -----------------------------------------------------------------
                    Redundant Internal Coordinates


    -----------------------------------------------------------------
         Definition                    Initial Value    Approx d2E/dq
    -----------------------------------------------------------------
      1. B(C   1,Ir  0)                  2.1611         0.085553   
      2. B(C   2,C   1)                  1.4407         0.518866   
      3. B(C   2,Ir  0)                  2.1487         0.089553   
      4. B(C   3,Ir  0)                  2.1688         0.083184   
      5. B(C   4,Ir  0)                  2.1610         0.085601   
      6. B(C   4,C   1)                  1.4096         0.582124   
      7. B(C   4,C   3)                  1.4422         0.515882   
      8. B(C   5,C   3)                  1.4131         0.574712   
      9. B(C   5,C   2)                  1.4269         0.545722   
     10. B(C   5,Ir  0)                  2.1746         0.081449   
     11. B(N   6,Ir  0)                  2.1004         0.095634   
     12. B(C   7,N   6)                  1.4729         0.412686   
     13. B(C   8,C   7)                  1.5222         0.384497   
     14. B(H   9,C   8)                  1.0890         0.361370   
     15. B(H  10,C   8)                  1.0908         0.359052   
     16. B(H  11,C   8)                  1.0902         0.359867   
     17. B(C  12,C   7)                  1.5244         0.381305   
     18. B(H  13,C   7)                  1.0909         0.358864   
     19. B(H  14,C  12)                  1.0892         0.361109   
     20. B(H  15,C  12)                  1.0908         0.359035   
     21. B(H  16,C  12)                  1.0889         0.361626   
     22. B(C  17,N   6)                  1.2787         0.833754   
     23. B(C  18,C  17)                  1.4336         0.528717   
     24. B(H  19,C  17)                  1.0862         0.365253   
     25. B(C  20,C  18)                  1.3886         0.629631   
     26. B(C  20,Ir  0)                  2.3000         0.043900 C 
     27. B(C  21,C  20)                  1.4227         0.554504   
     28. B(S  22,C  18)                  1.7041         0.531479   
     29. B(C  23,C  21)                  1.3636         0.688463   
     30. B(C  23,S  22)                  1.7115         0.517041   
     31. B(H  24,C  20)                  1.3006         0.165873   
     32. B(H  25,C  21)                  1.0803         0.373209   
     33. B(H  26,C  23)                  1.0796         0.374273   
     34. B(H  27,C   1)                  1.0803         0.373103   
     35. B(H  28,C   2)                  1.0797         0.374023   
     36. B(H  29,C   5)                  1.0809         0.372295   
     37. B(O  30,H  24)                  1.3143         0.134256 C 
     38. B(O  31,Ir  0)                  2.0577         0.112167   
     39. B(C  32,O  30)                  1.2417         0.955500   
     40. B(C  32,O  31)                  1.2724         0.855452   
     41. B(C  33,C  32)                  1.4997         0.417594   
     42. B(H  34,C  33)                  1.0874         0.363575   
     43. B(H  35,C  33)                  1.0915         0.358082   
     44. B(H  36,C  33)                  1.0866         0.364628   
     45. B(H  37,C   3)                  1.0792         0.374721   
     46. B(H  38,C   4)                  1.0802         0.373276   
     47. A(C   4,Ir  0,N   6)          124.1128         0.250138   
     48. A(C   1,Ir  0,C   2)           39.0572         0.248883   
     49. A(C   5,Ir  0,N   6)          145.2782         0.248335   
     50. A(N   6,Ir  0,O  31)           83.6358         0.259078   
     51. A(C   1,Ir  0,C   3)           64.5294         0.246236   
     52. A(C   4,Ir  0,C   5)           64.1062         0.245507   
     53. A(C   3,Ir  0,N   6)          162.9758         0.249096   
     54. A(C   1,Ir  0,N   6)          100.7896         0.250118   
     55. A(C   3,Ir  0,O  31)          113.3480         0.254980   
     56. A(C   2,Ir  0,C   4)           64.7815         0.248903   
     57. A(C   2,Ir  0,N   6)          109.9697         0.251792   
     58. A(C   1,Ir  0,C   4)           38.0691         0.247258   
     59. A(C   1,Ir  0,O  31)          147.0650         0.256039   
     60. A(C   4,Ir  0,O  31)          152.2513         0.256060   
     61. A(C   5,Ir  0,O  31)           93.5264         0.254191   
     62. A(C   2,Ir  0,C   5)           38.5391         0.247114   
     63. A(C   2,Ir  0,C   3)           64.7490         0.247870   
     64. A(C   3,Ir  0,C   4)           38.9109         0.246255   
     65. A(C   1,Ir  0,C   5)           64.2873         0.245487   
     66. A(C   2,Ir  0,O  31)          108.5796         0.257775   
     67. A(C   3,Ir  0,C   5)           37.9716         0.244496   
     68. A(C   2,C   1,H  27)          126.1032         0.344527   
     69. A(Ir  0,C   1,C   2)           70.0072         0.313441   
     70. A(Ir  0,C   1,H  27)          124.2245         0.269155   
     71. A(C   2,C   1,C   4)          108.1823         0.415740   
     72. A(C   4,C   1,H  27)          125.7114         0.351268   
     73. A(Ir  0,C   1,C   4)           70.9611         0.319362   
     74. A(C   1,C   2,C   5)          107.1058         0.410999   
     75. A(Ir  0,C   2,H  28)          126.9202         0.271129   
     76. A(Ir  0,C   2,C   5)           71.7090         0.318379   
     77. A(Ir  0,C   2,C   1)           70.9356         0.315774   
     78. A(C   1,C   2,H  28)          126.7583         0.344670   
     79. A(C   5,C   2,H  28)          125.8979         0.347606   
     80. A(C   4,C   3,H  37)          126.3706         0.344444   
     81. A(C   4,C   3,C   5)          107.3834         0.414368   
     82. A(Ir  0,C   3,C   4)           70.2517         0.311728   
     83. A(Ir  0,C   3,H  37)          125.7028         0.268188   
     84. A(Ir  0,C   3,C   5)           71.2338         0.317239   
     85. A(C   5,C   3,H  37)          126.2018         0.350764   
     86. A(C   3,C   4,H  38)          125.8861         0.344220   
     87. A(Ir  0,C   4,C   1)           70.9698         0.319391   
     88. A(C   1,C   4,H  38)          125.8227         0.351295   
     89. A(Ir  0,C   4,H  38)          123.8407         0.269196   
     90. A(Ir  0,C   4,C   3)           70.8374         0.313177   
     91. A(C   1,C   4,C   3)          108.2910         0.415313   
     92. A(Ir  0,C   5,H  29)          121.9853         0.267074   
     93. A(C   3,C   5,H  29)          125.5366         0.350380   
     94. A(C   2,C   5,H  29)          125.3215         0.347336   
     95. A(Ir  0,C   5,C   3)           70.7945         0.316153   
     96. A(C   2,C   5,C   3)          108.9857         0.418536   
     97. A(Ir  0,C   5,C   2)           69.7518         0.313508   
     98. A(Ir  0,N   6,C  17)          116.0652         0.341329   
     99. A(C   7,N   6,C  17)          121.8325         0.420004   
    100. A(Ir  0,N   6,C   7)          122.0957         0.304199   
    101. A(N   6,C   7,C   8)          113.7011         0.369117   
    102. A(N   6,C   7,C  12)          109.4884         0.368589   
    103. A(C   8,C   7,C  12)          111.4336         0.366430   
    104. A(N   6,C   7,H  13)          105.0469         0.327516   
    105. A(C   8,C   7,H  13)          108.0655         0.325674   
    106. A(C  12,C   7,H  13)          108.8032         0.325228   
    107. A(C   7,C   8,H  11)          111.9976         0.325824   
    108. A(H   9,C   8,H  11)          107.4449         0.290971   
    109. A(H  10,C   8,H  11)          108.7994         0.290677   
    110. A(C   7,C   8,H   9)          108.8644         0.326048   
    111. A(C   7,C   8,H  10)          112.9275         0.325702   
    112. A(H   9,C   8,H  10)          106.5208         0.290867   
    113. A(C   7,C  12,H  14)          109.9155         0.325562   
    114. A(C   7,C  12,H  15)          111.1300         0.325254   
    115. A(H  14,C  12,H  15)          107.7820         0.290832   
    116. A(C   7,C  12,H  16)          112.1306         0.325639   
    117. A(H  14,C  12,H  16)          107.4566         0.291161   
    118. A(H  15,C  12,H  16)          108.2581         0.290897   
    119. A(N   6,C  17,C  18)          116.4839         0.442001   
    120. A(N   6,C  17,H  19)          121.8696         0.369789   
    121. A(C  18,C  17,H  19)          121.6235         0.344385   
    122. A(C  17,C  18,C  20)          120.1247         0.423012   
    123. A(C  17,C  18,S  22)          126.5661         0.433009   
    124. A(C  20,C  18,S  22)          113.1915         0.446882   
    125. A(C  18,C  20,C  21)          110.3065         0.426632   
    126. A(C  18,C  20,H  24)          116.8727         0.311215   
    127. A(C  21,C  20,H  24)          114.8367         0.304915   
    128. A(C  20,C  21,H  25)          124.1152         0.348415   
    129. A(C  23,C  21,H  25)          122.8276         0.361436   
    130. A(C  20,C  21,C  23)          112.9470         0.433527   
    131. A(C  18,S  22,C  23)           91.0363         0.455303   
    132. A(C  21,C  23,H  26)          127.7843         0.361612   
    133. A(S  22,C  23,H  26)          119.6995         0.362442   
    134. A(C  21,C  23,S  22)          112.5008         0.451923   
    135. A(C  20,H  24,O  30)          173.1426         0.222886   
    136. A(H  24,O  30,C  32)          110.0656         0.317195   
    137. A(Ir  0,O  31,C  32)          125.2833         0.352128   
    138. A(O  30,C  32,O  31)          123.8496         0.491609   
    139. A(O  30,C  32,C  33)          119.3303         0.434128   
    140. A(O  31,C  32,C  33)          116.8031         0.425596   
    141. A(C  32,C  33,H  34)          110.6453         0.330852   
    142. A(C  32,C  33,H  35)          108.8298         0.330020   
    143. A(H  34,C  33,H  35)          107.2572         0.291022   
    144. A(C  32,C  33,H  36)          111.7078         0.331011   
    145. A(H  34,C  33,H  36)          110.2126         0.291852   
    146. A(H  35,C  33,H  36)          108.0389         0.291154   
    147. D(H  27,C   1,Ir  0,C   5)    159.0597         0.001702   
    148. D(C   2,C   1,Ir  0,C   5)     38.3386         0.001702   
    149. D(C   4,C   1,Ir  0,C   5)    -80.1393         0.001702   
    150. D(C   2,C   1,Ir  0,O  31)    -13.5065         0.001702   
    151. D(H  27,C   1,Ir  0,C   2)    120.7211         0.001702   
    152. D(C   2,C   1,Ir  0,C   4)    118.4779         0.001702   
    153. D(C   2,C   1,Ir  0,N   6)   -108.4765         0.001702   
    154. D(C   4,C   1,Ir  0,O  31)   -131.9844         0.001702   
    155. D(C   4,C   1,Ir  0,C   3)    -37.8509         0.001702   
    156. D(H  27,C   1,Ir  0,C   3)   -158.6520         0.001702   
    157. D(C   2,C   1,Ir  0,C   3)     80.6269         0.001702   
    158. D(H  27,C   1,Ir  0,O  31)    107.2146         0.001702   
    159. D(C   4,C   1,Ir  0,C   2)   -118.4779         0.001702   
    160. D(H  27,C   1,Ir  0,N   6)     12.2446         0.001702   
    161. D(C   4,C   1,Ir  0,N   6)    133.0456         0.001702   
    162. D(H  27,C   1,Ir  0,C   4)   -120.8010         0.001702   
    163. D(C   5,C   2,Ir  0,N   6)   -161.3366         0.001720   
    164. D(C   5,C   2,C   1,H  27)    178.5993         0.021363   
    165. D(H  28,C   2,Ir  0,C   4)   -158.9680         0.001720   
    166. D(C   5,C   2,Ir  0,C   3)     36.2149         0.001720   
    167. D(C   5,C   2,Ir  0,O  31)    -71.4673         0.001720   
    168. D(C   5,C   2,Ir  0,C   1)    116.2314         0.001720   
    169. D(H  28,C   2,Ir  0,N   6)    -39.7304         0.001720   
    170. D(C   1,C   2,Ir  0,C   3)    -80.0166         0.001720   
    171. D(C   5,C   2,Ir  0,C   4)     79.4258         0.001720   
    172. D(H  28,C   2,C   1,H  27)      3.9674         0.021363   
    173. D(C   5,C   2,C   1,C   4)     -2.0175         0.021363   
    174. D(Ir  0,C   2,C   1,C   4)     60.9961         0.021363   
    175. D(H  28,C   2,Ir  0,C   1)   -122.1624         0.001720   
    176. D(H  28,C   2,C   1,C   4)   -176.6494         0.021363   
    177. D(C   1,C   2,Ir  0,O  31)    172.3013         0.001720   
    178. D(H  28,C   2,Ir  0,C   5)    121.6062         0.001720   
    179. D(H  28,C   2,C   1,Ir  0)    122.3545         0.021363   
    180. D(Ir  0,C   2,C   1,H  27)   -118.3871         0.021363   
    181. D(C   1,C   2,Ir  0,N   6)     82.4319         0.001720   
    182. D(H  28,C   2,Ir  0,C   3)    157.8211         0.001720   
    183. D(H  28,C   2,Ir  0,O  31)     50.1390         0.001720   
    184. D(C   1,C   2,Ir  0,C   5)   -116.2314         0.001720   
    185. D(C   1,C   2,Ir  0,C   4)    -36.8057         0.001720   
    186. D(C   5,C   2,C   1,Ir  0)    -63.0136         0.021363   
    187. D(C   5,C   3,Ir  0,C   4)   -117.2088         0.001691   
    188. D(C   4,C   3,Ir  0,C   5)    117.2088         0.001691   
    189. D(C   4,C   3,Ir  0,O  31)   -179.1621         0.001691   
    190. D(C   4,C   3,Ir  0,N   6)      4.9772         0.001691   
    191. D(C   4,C   3,Ir  0,C   1)     37.0401         0.001691   
    192. D(C   5,C   3,Ir  0,O  31)     63.6290         0.001691   
    193. D(H  37,C   3,Ir  0,C   4)    121.1908         0.001691   
    194. D(C   4,C   3,Ir  0,C   2)     80.4618         0.001691   
    195. D(H  37,C   3,Ir  0,C   1)    158.2309         0.001691   
    196. D(C   5,C   3,Ir  0,C   1)    -80.1687         0.001691   
    197. D(C   5,C   3,Ir  0,N   6)   -112.2316         0.001691   
    198. D(H  37,C   3,Ir  0,C   2)   -158.3474         0.001691   
    199. D(H  37,C   3,Ir  0,O  31)    -57.9714         0.001691   
    200. D(C   5,C   3,Ir  0,C   2)    -36.7470         0.001691   
    201. D(H  37,C   3,Ir  0,C   5)   -121.6004         0.001691   
    202. D(H  37,C   3,Ir  0,N   6)    126.1680         0.001691   
    203. D(C   1,C   4,Ir  0,C   3)    118.1202         0.001702   
    204. D(H  38,C   4,C   3,H  37)     -1.9343         0.021110   
    205. D(C   1,C   4,Ir  0,C   5)     80.6567         0.001702   
    206. D(C   1,C   4,Ir  0,N   6)    -60.1217         0.001702   
    207. D(C   1,C   4,Ir  0,O  31)    119.7725         0.001702   
    208. D(C   1,C   4,Ir  0,C   2)     37.7491         0.001702   
    209. D(C   3,C   4,Ir  0,C   1)   -118.1202         0.001702   
    210. D(H  38,C   4,C   3,C   5)   -179.6296         0.021110   
    211. D(C   3,C   4,Ir  0,C   5)    -37.4634         0.001702   
    212. D(C   3,C   4,Ir  0,N   6)   -178.2419         0.001702   
    213. D(C   3,C   4,Ir  0,O  31)      1.6523         0.001702   
    214. D(Ir  0,C   4,C   1,C   2)    -60.3938         0.027172   
    215. D(H  38,C   4,Ir  0,C   2)    158.6888         0.001702   
    216. D(H  38,C   4,Ir  0,C   3)   -120.9401         0.001702   
    217. D(H  38,C   4,C   1,C   2)   -178.9189         0.027172   
    218. D(H  38,C   4,Ir  0,N   6)     60.8180         0.001702   
    219. D(H  38,C   4,Ir  0,O  31)   -119.2877         0.001702   
    220. D(Ir  0,C   4,C   1,H  27)    118.9925         0.027172   
    221. D(C   3,C   4,C   1,Ir  0)     61.3332         0.027172   
    222. D(C   3,C   4,C   1,H  27)   -179.6743         0.027172   
    223. D(H  38,C   4,C   1,Ir  0)   -118.5251         0.027172   
    224. D(H  38,C   4,Ir  0,C   5)   -158.4035         0.001702   
    225. D(H  38,C   4,C   1,H  27)      0.4673         0.027172   
    226. D(Ir  0,C   4,C   3,C   5)     61.9294         0.021110   
    227. D(Ir  0,C   4,C   3,H  37)   -120.3753         0.021110   
    228. D(C   3,C   4,C   1,C   2)      0.9394         0.027172   
    229. D(C   1,C   4,C   3,C   5)      0.5122         0.021110   
    230. D(C   1,C   4,C   3,H  37)    178.2075         0.021110   
    231. D(H  38,C   4,C   3,Ir  0)    118.4410         0.021110   
    232. D(H  38,C   4,Ir  0,C   1)    120.9398         0.001702   
    233. D(C   1,C   4,C   3,Ir  0)    -61.4172         0.021110   
    234. D(C   3,C   4,Ir  0,C   2)    -80.3711         0.001702   
    235. D(C   2,C   5,Ir  0,C   1)    -38.8529         0.001683   
    236. D(H  29,C   5,C   3,C   4)   -177.4302         0.026446   
    237. D(C   2,C   5,Ir  0,C   4)    -81.3302         0.001683   
    238. D(C   2,C   5,Ir  0,N   6)     31.8730         0.001683   
    239. D(C   2,C   5,Ir  0,O  31)    115.7851         0.001683   
    240. D(C   3,C   5,Ir  0,C   1)     80.8627         0.001683   
    241. D(C   3,C   5,Ir  0,C   2)    119.7156         0.001683   
    242. D(C   3,C   5,Ir  0,C   4)     38.3854         0.001683   
    243. D(H  29,C   5,C   2,C   1)    178.0100         0.023724   
    244. D(C   3,C   5,Ir  0,O  31)   -124.4993         0.001683   
    245. D(H  29,C   5,Ir  0,C   1)   -158.6002         0.001683   
    246. D(C   3,C   5,C   2,Ir  0)    -60.1514         0.023724   
    247. D(H  29,C   5,Ir  0,C   3)    120.5370         0.001683   
    248. D(H  29,C   5,Ir  0,C   4)    158.9225         0.001683   
    249. D(H  29,C   5,Ir  0,N   6)    -87.8744         0.001683   
    250. D(H  29,C   5,Ir  0,O  31)     -3.9622         0.001683   
    251. D(Ir  0,C   5,C   2,C   1)     62.5058         0.023724   
    252. D(H  29,C   5,Ir  0,C   2)   -119.7473         0.001683   
    253. D(Ir  0,C   5,C   2,H  28)   -122.8032         0.023724   
    254. D(C   3,C   5,C   2,C   1)      2.3544         0.023724   
    255. D(C   3,C   5,C   2,H  28)    177.0454         0.023724   
    256. D(C   3,C   5,Ir  0,N   6)    151.5886         0.001683   
    257. D(H  29,C   5,C   2,Ir  0)    115.5042         0.023724   
    258. D(H  29,C   5,C   2,H  28)     -7.2990         0.023724   
    259. D(Ir  0,C   5,C   3,C   4)    -61.2945         0.026446   
    260. D(Ir  0,C   5,C   3,H  37)    121.0052         0.026446   
    261. D(C   2,C   5,C   3,Ir  0)     59.5082         0.026446   
    262. D(C   2,C   5,C   3,C   4)     -1.7863         0.026446   
    263. D(C   2,C   5,C   3,H  37)   -179.4866         0.026446   
    264. D(C   2,C   5,Ir  0,C   3)   -119.7156         0.001683   
    265. D(H  29,C   5,C   3,Ir  0)   -116.1357         0.026446   
    266. D(H  29,C   5,C   3,H  37)      4.8695         0.026446   
    267. D(C  17,N   6,Ir  0,C   1)    -97.7288         0.001771   
    268. D(C   7,N   6,Ir  0,C   2)     41.8682         0.001771   
    269. D(C   7,N   6,Ir  0,C   3)    110.5524         0.001771   
    270. D(C   7,N   6,Ir  0,C   4)    114.3263         0.001771   
    271. D(C   7,N   6,Ir  0,C   5)     21.3784         0.001771   
    272. D(C   7,N   6,Ir  0,C   1)     81.3511         0.001771   
    273. D(C   7,N   6,Ir  0,O  31)    -65.6241         0.001771   
    274. D(C  17,N   6,Ir  0,C   2)   -137.2117         0.001771   
    275. D(C  17,N   6,Ir  0,C   3)    -68.5275         0.001771   
    276. D(C  17,N   6,Ir  0,C   4)    -64.7536         0.001771   
    277. D(C  17,N   6,Ir  0,C   5)   -157.7015         0.001771   
    278. D(C  17,N   6,Ir  0,O  31)    115.2959         0.001771   
    279. D(C   8,C   7,N   6,Ir  0)    150.4114         0.014527   
    280. D(C   8,C   7,N   6,C  17)    -30.5615         0.014527   
    281. D(C  12,C   7,N   6,Ir  0)    -84.2300         0.014527   
    282. D(C  12,C   7,N   6,C  17)     94.7971         0.014527   
    283. D(H  13,C   7,N   6,Ir  0)     32.4611         0.014527   
    284. D(H  13,C   7,N   6,C  17)   -148.5118         0.014527   
    285. D(H   9,C   8,C   7,N   6)   -169.9006         0.011769   
    286. D(H   9,C   8,C   7,C  12)     65.7837         0.011769   
    287. D(H   9,C   8,C   7,H  13)    -53.7063         0.011769   
    288. D(H  10,C   8,C   7,N   6)     72.0127         0.011769   
    289. D(H  10,C   8,C   7,C  12)    -52.3030         0.011769   
    290. D(H  10,C   8,C   7,H  13)   -171.7930         0.011769   
    291. D(H  11,C   8,C   7,N   6)    -51.2341         0.011769   
    292. D(H  11,C   8,C   7,C  12)   -175.5498         0.011769   
    293. D(H  11,C   8,C   7,H  13)     64.9602         0.011769   
    294. D(H  14,C  12,C   7,N   6)    175.4816         0.011584   
    295. D(H  14,C  12,C   7,C   8)    -57.8630         0.011584   
    296. D(H  14,C  12,C   7,H  13)     61.1883         0.011584   
    297. D(H  15,C  12,C   7,N   6)    -65.2925         0.011584   
    298. D(H  15,C  12,C   7,C   8)     61.3629         0.011584   
    299. D(H  15,C  12,C   7,H  13)   -179.5859         0.011584   
    300. D(H  16,C  12,C   7,N   6)     56.0239         0.011584   
    301. D(H  16,C  12,C   7,C   8)   -177.3207         0.011584   
    302. D(H  16,C  12,C   7,H  13)    -58.2695         0.011584   
    303. D(C  18,C  17,N   6,Ir  0)     -5.9261         0.059884   
    304. D(C  18,C  17,N   6,C   7)    174.9913         0.059884   
    305. D(H  19,C  17,N   6,Ir  0)    175.7906         0.059884   
    306. D(H  19,C  17,N   6,C   7)     -3.2919         0.059884   
    307. D(C  20,C  18,C  17,N   6)    -21.0728         0.019079   
    308. D(C  20,C  18,C  17,H  19)    157.2150         0.019079   
    309. D(S  22,C  18,C  17,N   6)    154.7017         0.019079   
    310. D(S  22,C  18,C  17,H  19)    -27.0105         0.019079   
    311. D(C  21,C  20,C  18,C  17)    174.8837         0.029871   
    312. D(C  21,C  20,C  18,S  22)     -1.4249         0.029871   
    313. D(H  24,C  20,C  18,C  17)    -51.5179         0.029871   
    314. D(H  24,C  20,C  18,S  22)    132.1735         0.029871   
    315. D(C  23,C  21,C  20,C  18)      1.3097         0.022841   
    316. D(C  23,C  21,C  20,H  24)   -133.3066         0.022841   
    317. D(H  25,C  21,C  20,C  18)    177.5800         0.022841   
    318. D(H  25,C  21,C  20,H  24)     42.9637         0.022841   
    319. D(C  23,S  22,C  18,C  17)   -175.0961         0.005713   
    320. D(C  23,S  22,C  18,C  20)      0.9282         0.005713   
    321. D(S  22,C  23,C  21,C  20)     -0.6389         0.033291   
    322. D(S  22,C  23,C  21,H  25)   -176.9643         0.033291   
    323. D(H  26,C  23,C  21,C  20)    177.9091         0.033291   
    324. D(H  26,C  23,C  21,H  25)      1.5837         0.033291   
    325. D(C  21,C  23,S  22,C  18)     -0.1529         0.005476   
    326. D(H  26,C  23,S  22,C  18)   -178.8318         0.005476   
    327. D(O  30,H  24,C  20,C  18)    -40.7803         0.020472   
    328. D(O  30,H  24,C  20,C  21)     90.7674         0.020472   
    329. D(C  32,O  30,H  24,C  20)    131.2965         0.012854   
    330. D(C  32,O  31,Ir  0,C   1)    174.3652         0.001852   
    331. D(C  32,O  31,Ir  0,C   2)    165.4337         0.001852   
    332. D(C  32,O  31,Ir  0,C   3)     95.6203         0.001852   
    333. D(C  32,O  31,Ir  0,C   4)     94.4900         0.001852   
    334. D(C  32,O  31,Ir  0,C   5)    129.1446         0.001852   
    335. D(C  32,O  31,Ir  0,N   6)    -85.5981         0.001852   
    336. D(O  31,C  32,O  30,H  24)      1.0998         0.073773   
    337. D(C  33,C  32,O  30,H  24)    179.5489         0.073773   
    338. D(O  30,C  32,O  31,Ir  0)      4.0203         0.057350   
    339. D(C  33,C  32,O  31,Ir  0)   -174.4648         0.057350   
    340. D(H  34,C  33,C  32,O  30)     35.6141         0.012899   
    341. D(H  34,C  33,C  32,O  31)   -145.8290         0.012899   
    342. D(H  35,C  33,C  32,O  30)    -81.9946         0.012899   
    343. D(H  35,C  33,C  32,O  31)     96.5623         0.012899   
    344. D(H  36,C  33,C  32,O  30)    158.8025         0.012899   
    345. D(H  36,C  33,C  32,O  31)    -22.6405         0.012899   
    -----------------------------------------------------------------

Number of atoms                         .... 39
Number of degrees of freedom            .... 345

         *************************************************************
         *                GEOMETRY OPTIMIZATION CYCLE   1            *
         *************************************************************
---------------------------------
CARTESIAN COORDINATES (ANGSTROEM)
---------------------------------
  Ir     0.597506   -0.729065    0.474166
  C      0.100046   -2.828824    0.355921
  C     -0.043546   -2.364194    1.712095
  C      2.166185   -2.095221    1.087889
  C      1.444413   -2.652353   -0.029478
  C      1.248630   -1.948858    2.152504
  N     -1.055665    0.122282   -0.502518
  C     -2.338963    0.348726    0.184002
  C     -3.124244    1.532957   -0.361805
  H     -3.959081    1.739857    0.306222
  H     -3.554471    1.340474   -1.345518
  H     -2.516442    2.436422   -0.414849
  C     -3.166302   -0.931227    0.150781
  H     -2.071787    0.567963    1.218748
  H     -4.081937   -0.796184    0.725085
  H     -3.448768   -1.190467   -0.870429
  H     -2.631965   -1.776341    0.581905
  C     -0.889321    0.416753   -1.735695
  C      0.435161    0.252724   -2.259104
  H     -1.700677    0.798512   -2.348632
  C      1.525818    0.227715   -1.400083
  C      2.716890   -0.061183   -2.122624
  S      0.856311   -0.025714   -3.886671
  C      2.503590   -0.211302   -3.461080
  H      1.626688    1.206311   -0.549416
  H      3.701138   -0.097314   -1.678759
  H      3.236589   -0.401929   -4.230398
  H     -0.686150   -3.232976   -0.265136
  H     -0.935568   -2.407396    2.318872
  H      1.471420   -1.520191    3.119484
  O      1.682772    2.289385    0.192981
  O      0.539176    0.999460    1.589077
  C      1.091308    2.099960    1.268217
  C      1.037023    3.204411    2.281273
  H      0.954810    4.171209    1.790403
  H      1.969232    3.207774    2.849088
  H      0.217191    3.067822    2.981213
  H      3.220999   -1.869453    1.119942
  H      1.861362   -2.891334   -0.996931

----------------------------
CARTESIAN COORDINATES (A.U.)
----------------------------
  NO LB      ZA    FRAG     MASS         X           Y           Z
   0 Ir   17.0000*   0   192.220    1.129122   -1.377734    0.896044
   1 C     6.0000    0    12.011    0.189060   -5.345704    0.672593
   2 C     6.0000    0    12.011   -0.082290   -4.467678    3.235391
   3 C     6.0000    0    12.011    4.093496   -3.959394    2.055812
   4 C     6.0000    0    12.011    2.729544   -5.012221   -0.055706
   5 C     6.0000    0    12.011    2.359569   -3.682808    4.067643
   6 N     7.0000    0    14.007   -1.994918    0.231079   -0.949622
   7 C     6.0000    0    12.011   -4.420000    0.658997    0.347714
   8 C     6.0000    0    12.011   -5.903966    2.896870   -0.683713
   9 H     1.0000    0     1.008   -7.481579    3.287854    0.578676
  10 H     1.0000    0     1.008   -6.716976    2.533130   -2.542661
  11 H     1.0000    0     1.008   -4.755385    4.604171   -0.783952
  12 C     6.0000    0    12.011   -5.983443   -1.759765    0.284935
  13 H     1.0000    0     1.008   -3.915110    1.073295    2.303100
  14 H     1.0000    0     1.008   -7.713744   -1.504570    1.370212
  15 H     1.0000    0     1.008   -6.517227   -2.249657   -1.644873
  16 H     1.0000    0     1.008   -4.973693   -3.356798    1.099641
  17 C     6.0000    0    12.011   -1.680573    0.787550   -3.279988
  18 C     6.0000    0    12.011    0.822335    0.477579   -4.269087
  19 H     1.0000    0     1.008   -3.213815    1.508968   -4.438272
  20 C     6.0000    0    12.011    2.883377    0.430319   -2.645773
  21 C     6.0000    0    12.011    5.134178   -0.115619   -4.011179
  22 S    16.0000    0    32.060    1.618193   -0.048592   -7.344744
  23 C     6.0000    0    12.011    4.731100   -0.399304   -6.540494
  24 H     1.0000    0     1.008    3.073994    2.279597   -1.038246
  25 H     1.0000    0     1.008    6.994136   -0.183897   -3.172394
  26 H     1.0000    0     1.008    6.116268   -0.759536   -7.994293
  27 H     1.0000    0     1.008   -1.296636   -6.109439   -0.501034
  28 H     1.0000    0     1.008   -1.767967   -4.549319    4.382033
  29 H     1.0000    0     1.008    2.780581   -2.872745    5.894971
  30 O     8.0000    0    15.999    3.179977    4.326310    0.364680
  31 O     8.0000    0    15.999    1.018895    1.888705    3.002921
  32 C     6.0000    0    12.011    2.062274    3.968349    2.396583
  33 C     6.0000    0    12.011    1.959690    6.055459    4.310981
  34 H     1.0000    0     1.008    1.804329    7.882443    3.383372
  35 H     1.0000    0     1.008    3.721310    6.061814    5.383997
  36 H     1.0000    0     1.008    0.410432    5.797344    5.633677
  37 H     1.0000    0     1.008    6.086805   -3.532754    2.116383
  38 H     1.0000    0     1.008    3.517465   -5.463830   -1.883926
* core charge reduced due to ECP

--------------------------------
INTERNAL COORDINATES (ANGSTROEM)
--------------------------------
 Ir     0   0   0     0.000000000000     0.00000000     0.00000000
 C      1   0   0     2.161232319069     0.00000000     0.00000000
 C      2   1   0     1.440571310154    70.00832613     0.00000000
 C      1   2   3     2.168878629944    64.51769214    80.62108336
 C      2   1   3     1.409256833533    70.96549889   241.52479021
 C      4   1   2     1.412744897423    71.23907017   279.83090782
 N      1   2   3     2.100911617790   100.79988860   251.49577977
 C      7   1   2     1.472896207711   121.84750872    81.27784124
 C      8   7   1     1.522155359881   113.70110427   150.38337242
 H      9   8   7     1.089041375441   108.86442953   190.09939997
 H      9   8   7     1.090793707118   112.92732462    72.01278116
 H      9   8   7     1.090175979495   111.99764081   308.76581663
 C      8   7   1     1.524424533822   109.48828133   275.74194990
 H      8   7   1     1.090936009392   105.04686418    32.43326726
 H     13   8   7     1.089238427548   109.91541964   175.48158457
 H     13   8   7     1.090806254161   111.13024907   294.70751010
 H     13   8   7     1.088848609559   112.13060626    56.02389981
 C      7   1   2     1.281463842157   116.55524447   262.15111313
 C     18   7   1     1.435451809220   117.04534013   353.82587181
 H     18   7   1     1.086132130244   121.58601444   175.80166399
 C     19  18   7     1.387901775297   120.12204029   339.13863356
 C     21  19  18     1.422488645079   110.37343277   174.94481901
 S     19  18   7     1.704033525832   126.60735795   154.98662645
 C     22  21  19     1.363585871323   112.90988801     1.32378351
 H     21  19  18     1.301007022410   116.77549914   308.83704654
 H     22  21  19     1.080266472445   124.13080253   177.61771053
 H     24  22  21     1.079491537996   127.78656981   177.91602433
 H      2   1   3     1.080343793647   124.22234941   120.72351933
 H      3   2   1     1.079673399370   126.75742982   122.35281916
 H      6   4   1     1.080934038124   125.53389204   243.86602590
 O     25  21  19     1.328571421811   173.26365640   318.93028899
 O      1   2   3     2.057504196352   147.11335990   346.51207449
 C     31  25  21     1.244362652848   110.41961974   130.82727197
 C     33  31  25     1.499678073362   119.15161420   179.67677734
 H     34  33  31     1.087385568215   110.64526769    35.56501807
 H     34  33  31     1.091529815510   108.82975349   277.95642414
 H     34  33  31     1.086598692965   111.70783830   158.75346291
 H      4   1   2     1.079166342957   125.69868937   158.23161678
 H      5   2   1     1.080217993356   125.81274818   241.47458796

---------------------------
INTERNAL COORDINATES (A.U.)
---------------------------
 Ir     0   0   0     0.000000000000     0.00000000     0.00000000
 C      1   0   0     4.084137194819     0.00000000     0.00000000
 C      2   1   0     2.722285252574    70.00832613     0.00000000
 C      1   2   3     4.098586628308    64.51769214    80.62108336
 C      2   1   3     2.663109467735    70.96549889   241.52479021
 C      4   1   2     2.669700953224    71.23907017   279.83090782
 N      1   2   3     3.970147589196   100.79988860   251.49577977
 C      7   1   2     2.783370456266   121.84750872    81.27784124
 C      8   7   1     2.876456763455   113.70110427   150.38337242
 H      9   8   7     2.057989948092   108.86442953   190.09939997
 H      9   8   7     2.061301375057   112.92732462    72.01278116
 H      9   8   7     2.060134039025   111.99764081   308.76581663
 C      8   7   1     2.880744880754   109.48828133   275.74194990
 H      8   7   1     2.061570287384   105.04686418    32.43326726
 H     13   8   7     2.058362322608   109.91541964   175.48158457
 H     13   8   7     2.061325085532   111.13024907   294.70751010
 H     13   8   7     2.057625673367   112.13060626    56.02389981
 C      7   1   2     2.421615712200   116.55524447   262.15111313
 C     18   7   1     2.712610797868   117.04534013   353.82587181
 H     18   7   1     2.052492271413   121.58601444   175.80166399
 C     19  18   7     2.622754256094   120.12204029   339.13863356
 C     21  19  18     2.688113967813   110.37343277   174.94481901
 S     19  18   7     3.220156686842   126.60735795   154.98662645
 C     22  21  19     2.576803856885   112.90988801     1.32378351
 H     21  19  18     2.458546970663   116.77549914   308.83704654
 H     22  21  19     2.041407784579   124.13080253   177.61771053
 H     24  22  21     2.039943370699   127.78656981   177.91602433
 H      2   1   3     2.041553900474   124.22234941   120.72351933
 H      3   2   1     2.040287038889   126.75742982   122.35281916
 H      6   4   1     2.042669300887   125.53389204   243.86602590
 O     25  21  19     2.510636136577   173.26365640   318.93028899
 O      1   2   3     3.888119450499   147.11335990   346.51207449
 C     31  25  21     2.351504625163   110.41961974   130.82727197
 C     33  31  25     2.833980847701   119.15161420   179.67677734
 H     34  33  31     2.054860925905   110.64526769    35.56501807
 H     34  33  31     2.062692418324   108.82975349   277.95642414
 H     34  33  31     2.053373947181   111.70783830   158.75346291
 H      4   1   2     2.039328841134   125.69868937   158.23161678
 H      5   2   1     2.041316172376   125.81274818   241.47458796

---------------------
BASIS SET INFORMATION
---------------------
There are 6 groups of distinct atoms

 Group   1 Type Ir  : 7s6p5d1f contracted to 6s3p2d1f pattern {211111/411/41/1}
 Group   2 Type C   : 8s4p1d contracted to 4s2p1d pattern {5111/31/1}
 Group   3 Type N   : 8s4p1d contracted to 4s2p1d pattern {5111/31/1}
 Group   4 Type H   : 4s contracted to 2s pattern {31}
 Group   5 Type S   : 10s7p1d contracted to 4s3p1d pattern {5311/511/1}
 Group   6 Type O   : 8s4p1d contracted to 4s2p1d pattern {5111/31/1}

Atom   0Ir   basis set group =>   1
Atom   1C    basis set group =>   2
Atom   2C    basis set group =>   2
Atom   3C    basis set group =>   2
Atom   4C    basis set group =>   2
Atom   5C    basis set group =>   2
Atom   6N    basis set group =>   3
Atom   7C    basis set group =>   2
Atom   8C    basis set group =>   2
Atom   9H    basis set group =>   4
Atom  10H    basis set group =>   4
Atom  11H    basis set group =>   4
Atom  12C    basis set group =>   2
Atom  13H    basis set group =>   4
Atom  14H    basis set group =>   4
Atom  15H    basis set group =>   4
Atom  16H    basis set group =>   4
Atom  17C    basis set group =>   2
Atom  18C    basis set group =>   2
Atom  19H    basis set group =>   4
Atom  20C    basis set group =>   2
Atom  21C    basis set group =>   2
Atom  22S    basis set group =>   5
Atom  23C    basis set group =>   2
Atom  24H    basis set group =>   4
Atom  25H    basis set group =>   4
Atom  26H    basis set group =>   4
Atom  27H    basis set group =>   4
Atom  28H    basis set group =>   4
Atom  29H    basis set group =>   4
Atom  30O    basis set group =>   6
Atom  31O    basis set group =>   6
Atom  32C    basis set group =>   2
Atom  33C    basis set group =>   2
Atom  34H    basis set group =>   4
Atom  35H    basis set group =>   4
Atom  36H    basis set group =>   4
Atom  37H    basis set group =>   4
Atom  38H    basis set group =>   4
---------------------------------
AUXILIARY/J BASIS SET INFORMATION
---------------------------------
There are 6 groups of distinct atoms

 Group   1 Type Ir  : 11s5p5d3f3g contracted to 8s5p5d2f3g pattern {41111111/11111/11111/21/111}
 Group   2 Type C   : 12s5p4d2f1g contracted to 6s4p3d1f1g pattern {711111/2111/211/2/1}
 Group   3 Type N   : 12s5p4d2f1g contracted to 6s4p3d1f1g pattern {711111/2111/211/2/1}
 Group   4 Type H   : 5s2p1d contracted to 3s1p1d pattern {311/2/1}
 Group   5 Type S   : 14s5p5d2f1g contracted to 8s4p3d1f1g pattern {71111111/2111/311/2/1}
 Group   6 Type O   : 12s5p4d2f1g contracted to 6s4p3d1f1g pattern {711111/2111/211/2/1}

Atom   0Ir   basis set group =>   1
Atom   1C    basis set group =>   2
Atom   2C    basis set group =>   2
Atom   3C    basis set group =>   2
Atom   4C    basis set group =>   2
Atom   5C    basis set group =>   2
Atom   6N    basis set group =>   3
Atom   7C    basis set group =>   2
Atom   8C    basis set group =>   2
Atom   9H    basis set group =>   4
Atom  10H    basis set group =>   4
Atom  11H    basis set group =>   4
Atom  12C    basis set group =>   2
Atom  13H    basis set group =>   4
Atom  14H    basis set group =>   4
Atom  15H    basis set group =>   4
Atom  16H    basis set group =>   4
Atom  17C    basis set group =>   2
Atom  18C    basis set group =>   2
Atom  19H    basis set group =>   4
Atom  20C    basis set group =>   2
Atom  21C    basis set group =>   2
Atom  22S    basis set group =>   5
Atom  23C    basis set group =>   2
Atom  24H    basis set group =>   4
Atom  25H    basis set group =>   4
Atom  26H    basis set group =>   4
Atom  27H    basis set group =>   4
Atom  28H    basis set group =>   4
Atom  29H    basis set group =>   4
Atom  30O    basis set group =>   6
Atom  31O    basis set group =>   6
Atom  32C    basis set group =>   2
Atom  33C    basis set group =>   2
Atom  34H    basis set group =>   4
Atom  35H    basis set group =>   4
Atom  36H    basis set group =>   4
Atom  37H    basis set group =>   4
Atom  38H    basis set group =>   4
-------------------------
ECP PARAMETER INFORMATION
-------------------------

 Group 1, Type Ir ECP Def2-ECP (replacing 60 core electrons, lmax=3)

Atom   0Ir   ECP group =>   1

------------------------------------------------------------------------------
                           ORCA GTO INTEGRAL CALCULATION
                           -- RI-GTO INTEGRALS CHOSEN --
------------------------------------------------------------------------------
------------------------------------------------------------------------------
                   ___                                                        
                  /   \      - P O W E R E D   B Y -                         
                 /     \                                                     
                 |  |  |   _    _      __       _____    __    __             
                 |  |  |  | |  | |    /  \     |  _  \  |  |  /  |          
                  \  \/   | |  | |   /    \    | | | |  |  | /  /          
                 / \  \   | |__| |  /  /\  \   | |_| |  |  |/  /          
                |  |  |   |  __  | /  /__\  \  |    /   |      \           
                |  |  |   | |  | | |   __   |  |    \   |  |\   \          
                \     /   | |  | | |  |  |  |  | |\  \  |  | \   \       
                 \___/    |_|  |_| |__|  |__|  |_| \__\ |__|  \__/        
                                                                              
                      - O R C A' S   B I G   F R I E N D -                    
                                      &                                       
                       - I N T E G R A L  F E E D E R -                       
                                                                              
 v1 FN, 2020, v2 2021                                                         
------------------------------------------------------------------------------


Reading SHARK input file reaction4-IEIP_ts_guess_scan_7-13_orca.SHARKINP.tmp ... ok
----------------------
SHARK INTEGRAL PACKAGE
----------------------

Number of atoms                             ...     39
Number of basis functions                   ...    358
Number of shells                            ...    184
Maximum angular momentum                    ...      3
Integral batch strategy                     ... SHARK/LIBINT Hybrid
RI-J (if used) integral strategy            ... SPLIT-RIJ (Revised 2003 algorithm where possible)
Printlevel                                  ...      1
Contraction scheme used                     ... SEGMENTED contraction
Coulomb Range Separation                    ... NOT USED
Exchange Range Separation                   ... NOT USED
Finite Nucleus Model                        ... NOT USED
Auxiliary Coulomb fitting basis             ... AVAILABLE
   # of basis functions in Aux-J            ...   1231
   # of shells in Aux-J                     ...    405
   Maximum angular momentum in Aux-J        ...      4
Auxiliary J/K fitting basis                 ... NOT available
Auxiliary Correlation fitting basis         ... NOT available
Auxiliary 'external' fitting basis          ... NOT available
Integral threshold                          ...     2.500000e-11
Primitive cut-off                           ...     2.500000e-12
Primitive pair pre-selection threshold      ...     2.500000e-12

Calculating pre-screening integrals         ... done (  0.1 sec) Dimension = 184
Organizing shell pair data                  ... done (  0.1 sec)
Shell pair information
Total number of shell pairs                 ...     17020
Shell pairs after pre-screening             ...     12947
Total number of primitive shell pairs       ...     60705
Primitive shell pairs kept                  ...     29109
          la=0 lb=0:   4959 shell pairs
          la=1 lb=0:   4253 shell pairs
          la=1 lb=1:    857 shell pairs
          la=2 lb=0:   1746 shell pairs
          la=2 lb=1:    783 shell pairs
          la=2 lb=2:    175 shell pairs
          la=3 lb=0:    111 shell pairs
          la=3 lb=1:     41 shell pairs
          la=3 lb=2:     21 shell pairs
          la=3 lb=3:      1 shell pairs

Calculating one electron integrals          ... done (  0.1 sec)
Calculating ECP integrals                   ... done (  0.7 sec)
Calculating RI/J V-Matrix + Cholesky decomp.... done (  0.1 sec)
Calculating Nuclear repulsion               ... done (  0.0 sec) ENN=   2030.599910987690 Eh

SHARK setup successfully completed in   1.4 seconds

Maximum memory used throughout the entire GTOINT-calculation: 90.4 MB
-------------------------------------------------------------------------------
                                 ORCA SCF
-------------------------------------------------------------------------------

------------
SCF SETTINGS
------------
Hamiltonian:
 Density Functional     Method          .... DFT(GTOs)
 Exchange Functional    Exchange        .... PBE
   PBE kappa parameter   XKappa         ....  1.024500
   PBE mue parameter    XMuePBE         ....  0.123457
 Correlation Functional Correlation     .... PBE
   PBE beta parameter  CBetaPBE         ....  0.030000
 LDA part of GGA corr.  LDAOpt          .... PW91-LDA
 Gradients option       PostSCFGGA      .... off
 Hybrid DFT is turned on
   Fraction HF Exchange ScalHFX         ....  0.420000
   Scaling of DF-GGA-X  ScalDFX         ....  0.580000
   Scaling of DF-GGA-C  ScalDFC         ....  1.000000
   Scaling of DF-LDA-C  ScalLDAC        ....  1.000000
   Perturbative correction              ....  0.000000
   Density functional embedding theory  .... OFF
 RI-approximation to the Coulomb term is turned on
   Number of AuxJ basis functions       .... 1231
   RIJ-ON(X) (HFX calculated with O(N)) .... on
   Number of AuxJ basis functions       .... 1231
   RIJ-COSX (HFX calculated with COS-X)).... on


General Settings:
 Integral files         IntName         .... reaction4-IEIP_ts_guess_scan_7-13_orca
 Hartree-Fock type      HFTyp           .... RHF
 Total Charge           Charge          ....    1
 Multiplicity           Mult            ....    1
 Number of Electrons    NEL             ....  164
 Basis Dimension        Dim             ....  358
 Nuclear Repulsion      ENuc            ....   2030.5999109877 Eh

Convergence Acceleration:
 DIIS                   CNVDIIS         .... on
   Start iteration      DIISMaxIt       ....    12
   Startup error        DIISStart       ....  0.200000
   # of expansion vecs  DIISMaxEq       ....     5
   Bias factor          DIISBfac        ....   1.050
   Max. coefficient     DIISMaxC        ....  10.000
 Trust-Rad. Augm. Hess. CNVTRAH         .... auto
   Auto Start mean grad. ratio tolernc. ....  1.125000
   Auto Start start iteration           ....    20
   Auto Start num. interpolation iter.  ....    10
   Max. Number of Micro iterations      ....    16
   Max. Number of Macro iterations      .... Maxiter - #DIIS iter
   Number of Davidson start vectors     ....     2
   Converg. threshold I  (grad. norm)   ....   1.000e-05
   Converg. threshold II (energy diff.) ....   1.000e-08
   Grad. Scal. Fac. for Micro threshold ....   0.100
   Minimum threshold for Micro iter.    ....   0.010
   NR start threshold (gradient norm)   ....   0.001
   Initial trust radius                 ....   0.400
   Minimum AH scaling param. (alpha)    ....   1.000
   Maximum AH scaling param. (alpha)    .... 1000.000
   Orbital update algorithm             .... Taylor
   White noise on init. David. guess    .... on
   Maximum white noise                  ....   0.010
   Quad. conv. algorithm                .... NR
   COSX micro iterations for RIJONX calc.... off
 SOSCF                  CNVSOSCF        .... off
 Level Shifting         CNVShift        .... on
   Level shift para.    LevelShift      ....    0.2500
   Turn off err/grad.   ShiftErr        ....    0.0010
 Zerner damping         CNVZerner       .... off
 Static damping         CNVDamp         .... on
   Fraction old density DampFac         ....    0.7000
   Max. Damping (<1)    DampMax         ....    0.9800
   Min. Damping (>=0)   DampMin         ....    0.0000
   Turn off err/grad.   DampErr         ....    0.1000
 Fernandez-Rico         CNVRico         .... off

SCF Procedure:
 Maximum # iterations   MaxIter         ....   250
 SCF integral mode      SCFMode         .... Direct
   Integral package                     .... SHARK and LIBINT hybrid scheme
 Reset frequency        DirectResetFreq ....    20
 Integral Threshold     Thresh          ....  2.500e-11 Eh
 Primitive CutOff       TCut            ....  2.500e-12 Eh

Convergence Tolerance:
 Convergence Check Mode ConvCheckMode   .... Total+1el-Energy
 Convergence forced     ConvForced      .... 0
 Energy Change          TolE            ....  1.000e-08 Eh
 1-El. energy change                    ....  1.000e-05 Eh
 DIIS Error             TolErr          ....  5.000e-07


Diagonalization of the overlap matrix:
Smallest eigenvalue                        ... 1.228e-03
Time for diagonalization                   ...    0.017 sec
Threshold for overlap eigenvalues          ... 1.000e-08
Number of eigenvalues below threshold      ... 0
Time for construction of square roots      ...    0.006 sec
Total time needed                          ...    0.024 sec

--------------------
INITIAL GUESS: HCORE
--------------------
                      -----------------
                      INTIAL GUESS DONE 
                      -----------------
-------------------
DFT GRID GENERATION
-------------------

General Integration Accuracy     IntAcc      ... 4.159
Radial Grid Type                 RadialGrid  ... OptM3 with GC (2021)
Angular Grid (max. ang.)         AngularGrid ... 3 (Lebedev-194)
Angular grid pruning method      GridPruning ... 4 (adaptive)
Weight generation scheme         WeightScheme... Becke
Basis function cutoff            BFCut       ... 1.0000e-11
Integration weight cutoff        WCut        ... 1.0000e-14
Angular grids for H and He will be reduced by one unit
Partially contracted basis set               ... off
Rotationally invariant grid construction     ... off

Total number of grid points                  ...    93328
Total number of batches                      ...     1478
Average number of points per batch           ...       63
Average number of grid points per atom       ...     2393
Time for grid setup =    1.708 sec

--------------------
COSX GRID GENERATION
--------------------

GRIDX 1
-------
General Integration Accuracy     IntAcc      ... 3.816
Radial Grid Type                 RadialGrid  ... OptM3 with GC (2021)
Angular Grid (max. ang.)         AngularGrid ... 1 (Lebedev-50)
Angular grid pruning method      GridPruning ... 4 (adaptive)
Weight generation scheme         WeightScheme... Becke
Basis function cutoff            BFCut       ... 1.0000e-11
Integration weight cutoff        WCut        ... 1.0000e-14
Angular grids for H and He will be reduced by one unit
Partially contracted basis set               ... on
Rotationally invariant grid construction     ... off

Total number of grid points                  ...    23214
Total number of batches                      ...      382
Average number of points per batch           ...       60
Average number of grid points per atom       ...      595
UseSFitting                                  ... on

GRIDX 2
-------
General Integration Accuracy     IntAcc      ... 4.020
Radial Grid Type                 RadialGrid  ... OptM3 with GC (2021)
Angular Grid (max. ang.)         AngularGrid ... 2 (Lebedev-110)
Angular grid pruning method      GridPruning ... 4 (adaptive)
Weight generation scheme         WeightScheme... Becke
Basis function cutoff            BFCut       ... 1.0000e-11
Integration weight cutoff        WCut        ... 1.0000e-14
Angular grids for H and He will be reduced by one unit
Partially contracted basis set               ... on
Rotationally invariant grid construction     ... off

Total number of grid points                  ...    50357
Total number of batches                      ...      808
Average number of points per batch           ...       62
Average number of grid points per atom       ...     1291
UseSFitting                                  ... on

GRIDX 3
-------
General Integration Accuracy     IntAcc      ... 4.338
Radial Grid Type                 RadialGrid  ... OptM3 with GC (2021)
Angular Grid (max. ang.)         AngularGrid ... 3 (Lebedev-194)
Angular grid pruning method      GridPruning ... 4 (adaptive)
Weight generation scheme         WeightScheme... Becke
Basis function cutoff            BFCut       ... 1.0000e-11
Integration weight cutoff        WCut        ... 1.0000e-14
Angular grids for H and He will be reduced by one unit
Partially contracted basis set               ... on
Rotationally invariant grid construction     ... off

Total number of grid points                  ...   108828
Total number of batches                      ...     1718
Average number of points per batch           ...       63
Average number of grid points per atom       ...     2790
UseSFitting                                  ... on

Time for X-Grid setup             =    4.576 sec

--------------
SCF ITERATIONS
--------------
ITER       Energy         Delta-E        Max-DP      RMS-DP      [F,P]     Damp
               ***  Starting incremental Fock matrix formation  ***
  0   -859.5205238537   0.00000000000013.23879019  0.14504565  2.8098344 0.7000
  1  -1097.4083134651-237.887789611389 8.52849241  0.11179216  1.4879988 0.7000
  2  -1167.2776047712 -69.869291306169 5.35358720  0.06645912  1.0272601 0.7000
  3  -1194.2472595028 -26.969654731539 3.71684969  0.04304220  0.7253150 0.7000
  4  -1213.6179510504 -19.370691547677 2.62430849  0.03565814  0.4458971 0.7000
  5  -1228.0313614152 -14.413410364776 1.82725441  0.02929606  0.3322219 0.7000
  6  -1239.8361136167 -11.804752201443 1.54276144  0.02657502  0.2547885 0.7000
  7  -1245.3455457823  -5.509432165631 1.52981672  0.02447258  0.2989672 0.7000
  8  -1251.5298867231  -6.184340940808 1.41489010  0.02336018  0.2947569 0.7000
  9  -1254.0949091040  -2.565022380936 1.44037685  0.02334013  0.3193212 0.7000
 10  -1257.6210639974  -3.526154893389 1.40068600  0.02255289  0.3102663 0.7000
 11  -1258.4919929936  -0.870928996138 1.40365414  0.02288220  0.3325886 0.7000
                               ***Turning on DIIS***
 12  -1260.6963641358  -2.204371142213 1.40154443  0.02239351  0.3175852 0.7000
 13  -1260.6912644723   0.005099663457 1.23196639  0.01897562  0.3396491 0.7000
 14  -1268.0608464486  -7.369581976318 0.86481270  0.01356470  0.2708036 0.7000
 15  -1274.5656587747  -6.504812326069 0.61085075  0.00959036  0.1990462 0.7000
 16  -1279.0327735634  -4.467114788717 0.43241711  0.00676681  0.1359600 0.7000
 17  -1282.0122285344  -2.979454970981 1.01120887  0.01589804  0.0886710 0.0000
 18  -1288.4233142723  -6.411085737882 0.04562892  0.00062328  0.0272915 0.0000
 19  -1288.4404404315  -0.017126159232 0.03712872  0.00045786  0.0221633 0.0000
               *** Restarting incremental Fock matrix formation ***
                                   *** Resetting DIIS ***
 20  -1288.4449195753  -0.004479143783 0.04258579  0.00055921  0.0176550 0.0000
 21  -1288.4459962673  -0.001076692037 0.02119972  0.00023173  0.0231648 0.0000
 22  -1288.4487457880  -0.002749520684 0.00306387  0.00007973  0.0033606 0.0000
 23  -1288.4489524403  -0.000206652267 0.00374546  0.00004081  0.0025683 0.0000
 24  -1288.4490019838  -0.000049543549 0.00332108  0.00003672  0.0007747 0.0000
               *** Restarting incremental Fock matrix formation ***
                                   *** Resetting DIIS ***
 25  -1288.4498219506  -0.000819966717 0.00536804  0.00009252  0.0007550 0.0000
 26  -1288.4498395738  -0.000017623232 0.00153042  0.00001461  0.0005632 0.0000
 27  -1288.4498397641  -0.000000190284 0.00099114  0.00000838  0.0006268 0.0000
 28  -1288.4498423651  -0.000002601041 0.00034772  0.00000313  0.0001541 0.0000
 29  -1288.4498425057  -0.000000140587 0.00027253  0.00000189  0.0001005 0.0000
 30  -1288.4498425973  -0.000000091578 0.00010414  0.00000086  0.0000388 0.0000
 31  -1288.4498426245  -0.000000027245 0.00006015  0.00000052  0.0000162 0.0000
 32  -1288.4498426289  -0.000000004389 0.00002969  0.00000026  0.0000079 0.0000
 33  -1288.4498426329  -0.000000003968 0.00001414  0.00000012  0.0000033 0.0000
 34  -1288.4498426498  -0.000000016882 0.00000609  0.00000004  0.0000022 0.0000
 35  -1288.4498426466   0.000000003136 0.00000392  0.00000003  0.0000021 0.0000
 36  -1288.4498426473  -0.000000000707 0.00000306  0.00000002  0.0000015 0.0000
                 **** Energy Check signals convergence ****

               *****************************************************
               *                     SUCCESS                       *
               *           SCF CONVERGED AFTER  37 CYCLES          *
               *****************************************************

Old exchange energy                            =    -59.648723158 Eh
New exchange energy                            =    -59.648724305 Eh
Exchange energy change after final integration =     -0.000001148 Eh
Total energy after final integration           =  -1288.449843791 Eh
Final COS-X integration done in                =    57.900 sec

----------------
TOTAL SCF ENERGY
----------------

Total Energy       :        -1288.44984379 Eh          -35060.50269 eV

Components:
Nuclear Repulsion  :         2030.59991099 Eh           55255.43271 eV
Electronic Energy  :        -3319.04975478 Eh          -90315.93540 eV
One Electron Energy:        -5816.84312464 Eh         -158284.34844 eV
Two Electron Energy:         2497.79336986 Eh           67968.41304 eV
Max COSX asymmetry :            0.00002173 Eh               0.00059 eV

Virial components:
Potential Energy   :        -2501.50167241 Eh          -68069.32108 eV
Kinetic Energy     :         1213.05182862 Eh           33008.81839 eV
Virial Ratio       :            2.06215564


DFT components:
N(Alpha)           :       82.000004901326 electrons
N(Beta)            :       82.000004901326 electrons
N(Total)           :      164.000009802652 electrons
E(X)               :      -79.586005491326 Eh       
E(C)               :       -7.456731523731 Eh       
E(XC)              :      -87.042737015057 Eh       
DFET-embed. en.    :        0.000000000000 Eh       

---------------
SCF CONVERGENCE
---------------

  Last Energy change         ...    4.2442e-09  Tolerance :   1.0000e-08
  Last MAX-Density change    ...    0.0000e+00  Tolerance :   1.0000e-07
  Last RMS-Density change    ...    0.0000e+00  Tolerance :   5.0000e-09
  Last DIIS Error            ...    3.6034e-07  Tolerance :   5.0000e-07

             **** THE GBW FILE WAS UPDATED (reaction4-IEIP_ts_guess_scan_7-13_orca.gbw) ****
             **** DENSITY reaction4-IEIP_ts_guess_scan_7-13_orca.scfp WAS UPDATED ****
             **** ENERGY FILE WAS UPDATED (reaction4-IEIP_ts_guess_scan_7-13_orca.en.tmp) ****
             **** THE GBW FILE WAS UPDATED (reaction4-IEIP_ts_guess_scan_7-13_orca.gbw) ****
             **** DENSITY reaction4-IEIP_ts_guess_scan_7-13_orca.scfp WAS UPDATED ****
----------------
ORBITAL ENERGIES
----------------

  NO   OCC          E(Eh)            E(eV) 
   0   2.0000     -89.758027     -2442.4401 
   1   2.0000     -19.634650      -534.2860 
   2   2.0000     -19.616756      -533.7991 
   3   2.0000     -14.833375      -403.6367 
   4   2.0000     -10.696401      -291.0639 
   5   2.0000     -10.654865      -289.9336 
   6   2.0000     -10.630365      -289.2669 
   7   2.0000     -10.628589      -289.2186 
   8   2.0000     -10.627261      -289.1825 
   9   2.0000     -10.622281      -289.0470 
  10   2.0000     -10.621341      -289.0214 
  11   2.0000     -10.619769      -288.9786 
  12   2.0000     -10.613108      -288.7973 
  13   2.0000     -10.606624      -288.6209 
  14   2.0000     -10.583267      -287.9853 
  15   2.0000     -10.582672      -287.9691 
  16   2.0000     -10.554158      -287.1932 
  17   2.0000     -10.550402      -287.0910 
  18   2.0000     -10.543742      -286.9098 
  19   2.0000      -8.397499      -228.5076 
  20   2.0000      -6.287422      -171.0895 
  21   2.0000      -6.283868      -170.9927 
  22   2.0000      -6.282406      -170.9530 
  23   2.0000      -4.024359      -109.5084 
  24   2.0000      -2.342570       -63.7446 
  25   2.0000      -2.309696       -62.8500 
  26   2.0000      -2.307229       -62.7829 
  27   2.0000      -1.327280       -36.1171 
  28   2.0000      -1.227703       -33.4075 
  29   2.0000      -1.206714       -32.8364 
  30   2.0000      -1.166126       -31.7319 
  31   2.0000      -1.122564       -30.5465 
  32   2.0000      -1.022992       -27.8370 
  33   2.0000      -0.979814       -26.6621 
  34   2.0000      -0.971672       -26.4406 
  35   2.0000      -0.963077       -26.2067 
  36   2.0000      -0.956299       -26.0222 
  37   2.0000      -0.939452       -25.5638 
  38   2.0000      -0.900218       -24.4962 
  39   2.0000      -0.870031       -23.6748 
  40   2.0000      -0.796157       -21.6645 
  41   2.0000      -0.782111       -21.2823 
  42   2.0000      -0.781383       -21.2625 
  43   2.0000      -0.778469       -21.1832 
  44   2.0000      -0.766513       -20.8579 
  45   2.0000      -0.765486       -20.8299 
  46   2.0000      -0.741861       -20.1871 
  47   2.0000      -0.723340       -19.6831 
  48   2.0000      -0.691602       -18.8194 
  49   2.0000      -0.681818       -18.5532 
  50   2.0000      -0.662704       -18.0331 
  51   2.0000      -0.659715       -17.9517 
  52   2.0000      -0.648815       -17.6551 
  53   2.0000      -0.639846       -17.4111 
  54   2.0000      -0.634899       -17.2765 
  55   2.0000      -0.632706       -17.2168 
  56   2.0000      -0.621379       -16.9086 
  57   2.0000      -0.608281       -16.5522 
  58   2.0000      -0.602055       -16.3827 
  59   2.0000      -0.601281       -16.3617 
  60   2.0000      -0.595864       -16.2143 
  61   2.0000      -0.588879       -16.0242 
  62   2.0000      -0.576836       -15.6965 
  63   2.0000      -0.568211       -15.4618 
  64   2.0000      -0.563674       -15.3384 
  65   2.0000      -0.561471       -15.2784 
  66   2.0000      -0.555069       -15.1042 
  67   2.0000      -0.547129       -14.8881 
  68   2.0000      -0.541423       -14.7329 
  69   2.0000      -0.534510       -14.5448 
  70   2.0000      -0.528249       -14.3744 
  71   2.0000      -0.518362       -14.1053 
  72   2.0000      -0.513759       -13.9801 
  73   2.0000      -0.503030       -13.6882 
  74   2.0000      -0.497014       -13.5244 
  75   2.0000      -0.479928       -13.0595 
  76   2.0000      -0.473818       -12.8933 
  77   2.0000      -0.447849       -12.1866 
  78   2.0000      -0.446650       -12.1540 
  79   2.0000      -0.418039       -11.3754 
  80   2.0000      -0.416409       -11.3311 
  81   2.0000      -0.398063       -10.8318 
  82   0.0000      -0.198458        -5.4003 
  83   0.0000      -0.147131        -4.0036 
  84   0.0000      -0.141114        -3.8399 
  85   0.0000      -0.086492        -2.3536 
  86   0.0000      -0.071840        -1.9549 
  87   0.0000      -0.065343        -1.7781 
  88   0.0000      -0.061970        -1.6863 
  89   0.0000      -0.053331        -1.4512 
  90   0.0000      -0.043620        -1.1869 
  91   0.0000      -0.031227        -0.8497 
  92   0.0000      -0.004514        -0.1228 
  93   0.0000      -0.001847        -0.0503 
  94   0.0000       0.013937         0.3792 
  95   0.0000       0.021222         0.5775 
  96   0.0000       0.022675         0.6170 
  97   0.0000       0.036978         1.0062 
  98   0.0000       0.046647         1.2693 
  99   0.0000       0.063159         1.7186 
 100   0.0000       0.071335         1.9411 
 101   0.0000       0.076458         2.0805 
 102   0.0000       0.077607         2.1118 
 103   0.0000       0.083808         2.2805 
 104   0.0000       0.086620         2.3570 
 105   0.0000       0.092072         2.5054 
 106   0.0000       0.097568         2.6550 
 107   0.0000       0.104669         2.8482 
 108   0.0000       0.106967         2.9107 
 109   0.0000       0.108708         2.9581 
 110   0.0000       0.113586         3.0908 
 111   0.0000       0.117055         3.1852 
 112   0.0000       0.125528         3.4158 
 113   0.0000       0.126671         3.4469 
 114   0.0000       0.127127         3.4593 
 115   0.0000       0.136345         3.7101 
 116   0.0000       0.148783         4.0486 
 117   0.0000       0.150048         4.0830 
 118   0.0000       0.154109         4.1935 
 119   0.0000       0.167921         4.5694 
 120   0.0000       0.170264         4.6331 
 121   0.0000       0.186409         5.0725 
 122   0.0000       0.196250         5.3402 
 123   0.0000       0.204316         5.5597 
 124   0.0000       0.224434         6.1072 
 125   0.0000       0.241631         6.5751 
 126   0.0000       0.250383         6.8133 
 127   0.0000       0.254096         6.9143 
 128   0.0000       0.278988         7.5916 
 129   0.0000       0.290893         7.9156 
 130   0.0000       0.309389         8.4189 
 131   0.0000       0.309868         8.4319 
 132   0.0000       0.323254         8.7962 
 133   0.0000       0.338290         9.2053 
 134   0.0000       0.345349         9.3974 
 135   0.0000       0.350689         9.5427 
 136   0.0000       0.354986         9.6597 
 137   0.0000       0.380186        10.3454 
 138   0.0000       0.382971        10.4212 
 139   0.0000       0.399025        10.8580 
 140   0.0000       0.409944        11.1551 
 141   0.0000       0.419404        11.4126 
 142   0.0000       0.429600        11.6900 
 143   0.0000       0.437946        11.9171 
 144   0.0000       0.445634        12.1263 
 145   0.0000       0.451242        12.2789 
 146   0.0000       0.459157        12.4943 
 147   0.0000       0.464212        12.6319 
 148   0.0000       0.468643        12.7524 
 149   0.0000       0.482537        13.1305 
 150   0.0000       0.487530        13.2664 
 151   0.0000       0.492401        13.3989 
 152   0.0000       0.498060        13.5529 
 153   0.0000       0.500224        13.6118 
 154   0.0000       0.507232        13.8025 
[...]

----------------------
LOEWDIN ATOMIC CHARGES
----------------------
   0 Ir:   -0.246981
   1 C :   -0.050641
   2 C :   -0.088011
   3 C :   -0.081696
   4 C :   -0.042928
   5 C :   -0.016399
   6 N :   -0.012604
   7 C :   -0.068849
   8 C :   -0.362579
   9 H :    0.155913
  10 H :    0.132941
  11 H :    0.143636
  12 C :   -0.344101
  13 H :    0.154167
  14 H :    0.150920
  15 H :    0.137807
  16 H :    0.132175
  17 C :    0.031813
  18 C :   -0.199038
  19 H :    0.159285
  20 C :   -0.215708
  21 C :   -0.137006
  22 S :    0.481734
  23 C :   -0.258358
  24 H :    0.346778
  25 H :    0.160065
  26 H :    0.167965
  27 H :    0.183374
  28 H :    0.181861
  29 H :    0.189972
  30 O :   -0.263833
  31 O :   -0.182723
  32 C :    0.169000
  33 C :   -0.371603
  34 H :    0.164887
  35 H :    0.172291
  36 H :    0.156207
  37 H :    0.183914
  38 H :    0.186353

-------------------------------
LOEWDIN REDUCED ORBITAL CHARGES
-------------------------------
  0 Irs       :     2.452547  s :     2.452547
      pz      :     2.249721  p :     6.766808
      px      :     2.250012
      py      :     2.267075
      dz2     :     1.775097  d :     7.940386
      dxz     :     1.665798
      dyz     :     1.380845
      dx2y2   :     1.626389
      dxy     :     1.492257
      f0      :     0.010260  f :     0.087240
      f+1     :     0.004340
      f-1     :     0.014569
      f+2     :     0.014646
      f-2     :     0.016324
      f+3     :     0.011071
      f-3     :     0.016029
  1 C s       :     2.874209  s :     2.874209
      pz      :     1.051276  p :     3.072580
      px      :     1.079712
      py      :     0.941593
      dz2     :     0.025724  d :     0.103852
      dxz     :     0.026027
      dyz     :     0.016738
      dx2y2   :     0.019111
      dxy     :     0.016252
  2 C s       :     2.874043  s :     2.874043
      pz      :     1.039198  p :     3.113894
      px      :     1.084790
      py      :     0.989906
      dz2     :     0.024252  d :     0.100074
      dxz     :     0.028217
      dyz     :     0.016833
      dx2y2   :     0.017790
      dxy     :     0.012982
  3 C s       :     2.872348  s :     2.872348
      pz      :     1.029316  p :     3.109447
      px      :     1.083655
      py      :     0.996476
      dz2     :     0.022621  d :     0.099902
      dxz     :     0.031576
      dyz     :     0.015297
      dx2y2   :     0.016150
      dxy     :     0.014257
  4 C s       :     2.874895  s :     2.874895
      pz      :     1.083868  p :     3.064483
      px      :     1.041198
      py      :     0.939417
      dz2     :     0.022560  d :     0.103551
      dxz     :     0.029904
      dyz     :     0.013233
      dx2y2   :     0.019119
      dxy     :     0.018735
  5 C s       :     2.878899  s :     2.878899
      pz      :     1.050980  p :     3.032415
      px      :     1.039203
      py      :     0.942231
      dz2     :     0.022574  d :     0.105085
      dxz     :     0.031204
      dyz     :     0.015913
      dx2y2   :     0.015914
      dxy     :     0.019480
  6 N s       :     3.121910  s :     3.121910
      pz      :     1.257237  p :     3.793268
      px      :     1.288907
      py      :     1.247125
      dz2     :     0.029985  d :     0.097426
      dxz     :     0.027176
      dyz     :     0.018050
      dx2y2   :     0.012248
      dxy     :     0.009966
  7 C s       :     2.862476  s :     2.862476
      pz      :     1.060700  p :     3.072011
      px      :     0.934871
      py      :     1.076439
      dz2     :     0.028102  d :     0.134363
      dxz     :     0.027702
      dyz     :     0.014447
      dx2y2   :     0.030926
      dxy     :     0.033185
  8 C s       :     2.953604  s :     2.953604
      pz      :     1.136244  p :     3.341488
      px      :     1.123964
      py      :     1.081280
      dz2     :     0.014642  d :     0.067487
      dxz     :     0.017184
      dyz     :     0.006460
      dx2y2   :     0.010470
      dxy     :     0.018730
  9 H s       :     0.844087  s :     0.844087
 10 H s       :     0.867059  s :     0.867059
 11 H s       :     0.856364  s :     0.856364
 12 C s       :     2.953242  s :     2.953242
      pz      :     1.143943  p :     3.322852
      px      :     1.110174
      py      :     1.068736
      dz2     :     0.014152  d :     0.068007
      dxz     :     0.013162
      dyz     :     0.010319
      dx2y2   :     0.012595
      dxy     :     0.017780
 13 H s       :     0.845833  s :     0.845833
 14 H s       :     0.849080  s :     0.849080
 15 H s       :     0.862193  s :     0.862193
 16 H s       :     0.867825  s :     0.867825
 17 C s       :     2.876705  s :     2.876705
      pz      :     1.010500  p :     2.950838
      px      :     1.067530
      py      :     0.872808
      dz2     :     0.038743  d :     0.140644
      dxz     :     0.049199
      dyz     :     0.026126
      dx2y2   :     0.012256
      dxy     :     0.014321
 18 C s       :     2.890622  s :     2.890622
      pz      :     1.046536  p :     3.195893
      px      :     1.089928
      py      :     1.059430
      dz2     :     0.034447  d :     0.112523
      dxz     :     0.033376
      dyz     :     0.016858
      dx2y2   :     0.016364
      dxy     :     0.011477
 19 H s       :     0.840715  s :     0.840715
 20 C s       :     2.914267  s :     2.914267
      pz      :     1.147201  p :     3.209816
      px      :     1.058928
      py      :     1.003687
      dz2     :     0.012336  d :     0.091625
      dxz     :     0.036648
      dyz     :     0.010223
      dx2y2   :     0.016391
      dxy     :     0.016027
 21 C s       :     2.896980  s :     2.896980
      pz      :     1.077254  p :     3.145222
      px      :     1.087998
      py      :     0.979970
      dz2     :     0.029047  d :     0.094804
      dxz     :     0.032173
      dyz     :     0.014062
      dx2y2   :     0.012946
      dxy     :     0.006576
 22 S s       :     5.501222  s :     5.501222
      pz      :     3.248296  p :     9.862687
      px      :     3.090275
      py      :     3.524116
      dz2     :     0.050478  d :     0.154357
      dxz     :     0.032491
      dyz     :     0.017589
      dx2y2   :     0.028486
      dxy     :     0.025312
 23 C s       :     2.964972  s :     2.964972
      pz      :     1.122331  p :     3.207488
      px      :     1.026688
      py      :     1.058469
      dz2     :     0.024418  d :     0.085898
      dxz     :     0.029885
      dyz     :     0.011418
      dx2y2   :     0.011468
      dxy     :     0.008709
 24 H s       :     0.653222  s :     0.653222
 25 H s       :     0.839935  s :     0.839935
 26 H s       :     0.832035  s :     0.832035
 27 H s       :     0.816626  s :     0.816626
 28 H s       :     0.818139  s :     0.818139
 29 H s       :     0.810028  s :     0.810028
 30 O s       :     3.509629  s :     3.509629
      pz      :     1.448661  p :     4.699104
      px      :     1.573717
      py      :     1.676726
      dz2     :     0.014909  d :     0.055099
      dxz     :     0.015395
      dyz     :     0.014253
      dx2y2   :     0.006591
      dxy     :     0.003951
 31 O s       :     3.442359  s :     3.442359
      pz      :     1.687735  p :     4.680073
      px      :     1.593638
      py      :     1.398700
      dz2     :     0.009027  d :     0.060291
      dxz     :     0.004768
      dyz     :     0.015066
      dx2y2   :     0.014353
      dxy     :     0.017077
 32 C s       :     2.812369  s :     2.812369
      pz      :     0.957013  p :     2.700063
      px      :     0.782104
      py      :     0.960947
      dz2     :     0.069630  d :     0.318567
      dxz     :     0.051772
      dyz     :     0.092412
      dx2y2   :     0.052412
      dxy     :     0.052342
 33 C s       :     2.957918  s :     2.957918
      pz      :     1.104793  p :     3.351073
      px      :     1.153606
      py      :     1.092673
      dz2     :     0.003708  d :     0.062613
      dxz     :     0.017021
      dyz     :     0.021282
      dx2y2   :     0.018537
      dxy     :     0.002065
 34 H s       :     0.835113  s :     0.835113
 35 H s       :     0.827709  s :     0.827709
 36 H s       :     0.843793  s :     0.843793
 37 H s       :     0.816086  s :     0.816086
 38 H s       :     0.813647  s :     0.813647


                      *****************************
                      * MAYER POPULATION ANALYSIS *
                      *****************************

  NA   - Mulliken gross atomic population
  ZA   - Total nuclear charge
  QA   - Mulliken gross atomic charge
  VA   - Mayer's total valence
  BVA  - Mayer's bonded valence
  FA   - Mayer's free valence

  ATOM       NA         ZA         QA         VA         BVA        FA
  0 Ir    16.3969    17.0000     0.6031     3.7544     3.7544    -0.0000
  1 C      6.2286     6.0000    -0.2286     3.7140     3.7140     0.0000
  2 C      6.2772     6.0000    -0.2772     3.7361     3.7361    -0.0000
  3 C      6.2549     6.0000    -0.2549     3.7393     3.7393    -0.0000
  4 C      6.2322     6.0000    -0.2322     3.7220     3.7220     0.0000
  5 C      6.1608     6.0000    -0.1608     3.6975     3.6975    -0.0000
  6 N      7.4405     7.0000    -0.4405     3.2145     3.2145    -0.0000
  7 C      6.1248     6.0000    -0.1248     3.7078     3.7078    -0.0000
  8 C      6.6833     6.0000    -0.6833     3.6893     3.6893     0.0000
  9 H      0.7310     1.0000     0.2690     0.8975     0.8975    -0.0000
 10 H      0.7750     1.0000     0.2250     0.9105     0.9105    -0.0000
 11 H      0.7456     1.0000     0.2544     0.9003     0.9003    -0.0000
 12 C      6.6343     6.0000    -0.6343     3.6725     3.6725     0.0000
 13 H      0.7216     1.0000     0.2784     0.8737     0.8737     0.0000
 14 H      0.7404     1.0000     0.2596     0.8984     0.8984    -0.0000
 15 H      0.7677     1.0000     0.2323     0.9096     0.9096     0.0000
 16 H      0.7689     1.0000     0.2311     0.9064     0.9064     0.0000
 17 C      5.9302     6.0000     0.0698     3.6614     3.6614    -0.0000
 18 C      6.1482     6.0000    -0.1482     3.7041     3.7041     0.0000
 19 H      0.7159     1.0000     0.2841     0.8874     0.8874    -0.0000
 20 C      6.4868     6.0000    -0.4868     3.5288     3.5288    -0.0000
 21 C      6.1308     6.0000    -0.1308     3.7733     3.7733    -0.0000
 22 S     15.6714    16.0000     0.3286     2.5838     2.5838    -0.0000
 23 C      6.4250     6.0000    -0.4250     3.7565     3.7565    -0.0000
 24 H      0.5188     1.0000     0.4812     0.7387     0.7387     0.0000
 25 H      0.7372     1.0000     0.2628     0.9044     0.9044    -0.0000
 26 H      0.7040     1.0000     0.2960     0.8977     0.8977    -0.0000
 27 H      0.7120     1.0000     0.2880     0.9042     0.9042     0.0000
 28 H      0.7146     1.0000     0.2854     0.9083     0.9083     0.0000
 29 H      0.6995     1.0000     0.3005     0.8943     0.8943    -0.0000
 30 O      8.4915     8.0000    -0.4915     2.1154     2.1154    -0.0000
 31 O      8.5124     8.0000    -0.5124     2.1120     2.1120     0.0000
 32 C      5.3660     6.0000     0.6340     3.8871     3.8871     0.0000
 33 C      6.7446     6.0000    -0.7446     3.6585     3.6585    -0.0000
 34 H      0.7260     1.0000     0.2740     0.8930     0.8930    -0.0000
 35 H      0.7248     1.0000     0.2752     0.8914     0.8914     0.0000
 36 H      0.7384     1.0000     0.2616     0.8975     0.8975    -0.0000
 37 H      0.7132     1.0000     0.2868     0.9055     0.9055     0.0000
 38 H      0.7049     1.0000     0.2951     0.9019     0.9019    -0.0000

  Mayer bond orders larger than 0.100000
B(  0-Ir,  1-C ) :   0.4309 B(  0-Ir,  2-C ) :   0.4692 B(  0-Ir,  3-C ) :   0.4609 
B(  0-Ir,  4-C ) :   0.4436 B(  0-Ir,  5-C ) :   0.3967 B(  0-Ir,  6-N ) :   0.4685 
B(  0-Ir, 20-C ) :   0.3897 B(  0-Ir, 31-O ) :   0.5258 B(  1-C ,  2-C ) :   1.1264 
B(  1-C ,  4-C ) :   1.2309 B(  1-C , 27-H ) :   0.9059 B(  2-C ,  5-C ) :   1.1688 
B(  2-C , 28-H ) :   0.9100 B(  3-C ,  4-C ) :   1.1237 B(  3-C ,  5-C ) :   1.2036 
B(  3-C , 37-H ) :   0.9099 B(  4-C , 38-H ) :   0.9006 B(  5-C , 29-H ) :   0.8999 
B(  6-N ,  7-C ) :   0.8948 B(  6-N , 17-C ) :   1.6507 B(  7-C ,  8-C ) :   0.9908 
B(  7-C , 12-C ) :   0.9674 B(  7-C , 13-H ) :   0.8776 B(  8-C ,  9-H ) :   0.9048 
B(  8-C , 10-H ) :   0.9129 B(  8-C , 11-H ) :   0.9118 B( 12-C , 14-H ) :   0.9077 
B( 12-C , 15-H ) :   0.9155 B( 12-C , 16-H ) :   0.9127 B( 17-C , 18-C ) :   1.1069 
B( 17-C , 19-H ) :   0.8762 B( 18-C , 20-C ) :   1.2668 B( 18-C , 22-S ) :   1.2199 
B( 20-C , 21-C ) :   1.2955 B( 20-C , 24-H ) :   0.3496 B( 21-C , 23-C ) :   1.5344 
B( 21-C , 25-H ) :   0.9048 B( 22-S , 23-C ) :   1.2237 B( 23-C , 26-H ) :   0.8917 
B( 24-H , 30-O ) :   0.3340 B( 30-O , 32-C ) :   1.5618 B( 31-O , 32-C ) :   1.3748 
B( 32-C , 33-C ) :   0.9476 B( 33-C , 34-H ) :   0.9000 B( 33-C , 35-H ) :   0.8932 
B( 33-C , 36-H ) :   0.9078 


------------------
HIRSHFELD ANALYSIS
------------------

Total integrated alpha density =     82.000061342
Total integrated beta density  =     82.000061342

  ATOM     CHARGE      SPIN    
   0 Ir   0.179883    0.000000
   1 C    0.001501    0.000000
   2 C   -0.012277    0.000000
   3 C   -0.012830    0.000000
   4 C    0.003069    0.000000
   5 C    0.020033    0.000000
   6 N   -0.074021    0.000000
   7 C    0.052221    0.000000
   8 C   -0.071515    0.000000
   9 H    0.052927    0.000000
  10 H    0.037592    0.000000
  11 H    0.041145    0.000000
  12 C   -0.071495    0.000000
  13 H    0.044330    0.000000
  14 H    0.049871    0.000000
  15 H    0.037145    0.000000
  16 H    0.030136    0.000000
  17 C    0.094921    0.000000
  18 C   -0.017025    0.000000
  19 H    0.075189    0.000000
  20 C   -0.086040    0.000000
  21 C   -0.033470    0.000000
  22 S    0.130233    0.000000
  23 C   -0.025003    0.000000
  24 H    0.092430    0.000000
  25 H    0.067125    0.000000
  26 H    0.078116    0.000000
  27 H    0.082193    0.000000
  28 H    0.080735    0.000000
  29 H    0.092028    0.000000
  30 O   -0.225970    0.000000
  31 O   -0.243662    0.000000
  32 C    0.253557    0.000000
  33 C   -0.062179    0.000000
  34 H    0.058787    0.000000
  35 H    0.064168    0.000000
  36 H    0.051646    0.000000
  37 H    0.082778    0.000000
  38 H    0.081605    0.000000

  TOTAL   0.999877    0.000000

-------
TIMINGS
-------

Total SCF time: 0 days 0 hours 4 min 54 sec 

Total time                  ....     294.863 sec
Sum of individual times     ....     293.355 sec  ( 99.5%)

Fock matrix formation       ....     284.950 sec  ( 96.6%)
  Split-RI-J                ....      21.505 sec  (  7.5% of F)
  Chain of spheres X        ....     247.297 sec  ( 86.8% of F)
  XC integration            ....      15.648 sec  (  5.5% of F)
    Basis function eval.    ....       7.372 sec  ( 47.1% of XC)
    Density eval.           ....       4.127 sec  ( 26.4% of XC)
    XC-Functional eval.     ....       1.194 sec  (  7.6% of XC)
    XC-Potential eval.      ....       2.382 sec  ( 15.2% of XC)
Diagonalization             ....       0.267 sec  (  0.1%)
Density matrix formation    ....       0.041 sec  (  0.0%)
Population analysis         ....       1.470 sec  (  0.5%)
Initial guess               ....       0.041 sec  (  0.0%)
Orbital Transformation      ....       0.000 sec  (  0.0%)
Orbital Orthonormalization  ....       0.030 sec  (  0.0%)
DIIS solution               ....       0.108 sec  (  0.0%)
Grid generation             ....       6.478 sec  (  2.2%)

Maximum memory used throughout the entire SCF-calculation: 172.7 MB


-------------------------------------------------------------------------------
                          DFT DISPERSION CORRECTION                            
                                                                               
                              DFTD3 V3.1  Rev 1                                
                          USING Becke-Johnson damping                          
-------------------------------------------------------------------------------
The PBEh-3c composite method is recognized
Using three-body term ABC
Active option DFTDOPT                   ...         4   

molecular C6(AA) [au] = 19536.540165 


            DFT-D V3
 parameters
 s6 scaling factor         :     1.0000 
 a1 scaling factor         :     0.4860 
 s8 scaling factor         :     0.0000 
 a2 scaling factor         :     4.5000 
 Damping factor alpha9(ATM):    16.0000 
 ad hoc parameters k1-k3   :    16.0000     1.3333    -4.0000 

 Edisp/kcal,au: -19.102939311889  -0.030442468303 
 E6   /kcal   : -19.436352066 
 E8   /kcal   :  -0.000000000 
 E6(ABC)      :   0.333412754 
 % E8         :   0.000000000 
 % E6(ABC)    :  -1.745347919 

-------------------------   ----------------
Dispersion correction           -0.030442468
-------------------------   ----------------

 ** NOTE ** -> element ir will be treated as co
NOTIFICATION: Different basis set in ORCA and otool_gcp:
ORCA: 358  gCP: 357 
If you are NOT using ECPs, check your basis set inputs!
------------------   -----------------
gCP correction             0.078952300
------------------   -----------------

-------------------------   --------------------
FINAL SINGLE POINT ENERGY     -1288.401712948383
-------------------------   --------------------

                                *** OPTIMIZATION RUN DONE ***

                            ***************************************
                            *     ORCA property calculations      *
                            ***************************************

                                    ---------------------
                                    Active property flags
                                    ---------------------
   (+) Dipole Moment


------------------------------------------------------------------------------
                       ORCA ELECTRIC PROPERTIES CALCULATION
------------------------------------------------------------------------------

Dipole Moment Calculation                       ... on
Quadrupole Moment Calculation                   ... off
Polarizability Calculation                      ... off
GBWName                                         ... reaction4-IEIP_ts_guess_scan_7-13_orca.gbw
Electron density                                ... reaction4-IEIP_ts_guess_scan_7-13_orca.scfp
The origin for moment calculation is the CENTER OF MASS  = ( 0.854087, -0.572295 -0.133388)

-------------
DIPOLE MOMENT
-------------
                                X             Y             Z
Electronic contribution:     35.92167     -73.47166      76.92628
Nuclear contribution   :    -36.51753      72.86988     -77.03213
                        -----------------------------------------
Total Dipole Moment    :     -0.59585      -0.60177      -0.10585
                        -----------------------------------------
Magnitude (a.u.)       :      0.85345
Magnitude (Debye)      :      2.16930



--------------------
Rotational spectrum 
--------------------
 
Rotational constants in cm-1:     0.010547     0.008685     0.008109 
Rotational constants in MHz :   316.202817   260.379319   243.112868 

 Dipole components along the rotational axes: 
x,y,z [a.u.] :     0.156113     0.008942     0.839004 
x,y,z [Debye]:     0.396809     0.022728     2.132579 

 

Timings for individual modules:

Sum of individual times         ...     3898.364 sec (=  64.973 min)
GTO integral calculation        ...       12.703 sec (=   0.212 min)   0.3 %
SCF iterations                  ...     3177.363 sec (=  52.956 min)  81.5 %
SCF Gradient evaluation         ...      706.569 sec (=  11.776 min)  18.1 %
Geometry relaxation             ...        1.730 sec (=   0.029 min)   0.0 %
                             ****ORCA TERMINATED NORMALLY****
TOTAL RUN TIME: 0 days 1 hours 5 minutes 0 seconds 923 msec
