
                                 *****************
                                 * O   R   C   A *
                                 *****************

                                            #,                                       
                                            ###                                      
                                            ####                                     
                                            #####                                    
                                            ######                                   
                                           ########,                                 
                                     ,,################,,,,,                         
                               ,,#################################,,                 
                          ,,##########################################,,             
                       ,#########################################, ''#####,          
                    ,#############################################,,   '####,        
                  ,##################################################,,,,####,       
                ,###########''''           ''''###############################       
              ,#####''   ,,,,##########,,,,          '''####'''          '####       
            ,##' ,,,,###########################,,,                        '##       
           ' ,,###''''                  '''############,,,                           
         ,,##''                                '''############,,,,        ,,,,,,###''
      ,#''                                            '''#######################'''  
     '                                                          ''''####''''         
             ,#######,   #######,   ,#######,      ##                                
            ,#'     '#,  ##    ##  ,#'     '#,    #''#        ######   ,####,        
            ##       ##  ##   ,#'  ##            #'  '#       #        #'  '#        
            ##       ##  #######   ##           ,######,      #####,   #    #        
            '#,     ,#'  ##    ##  '#,     ,#' ,#      #,         ##   #,  ,#        
             '#######'   ##     ##  '#######'  #'      '#     #####' # '####'        



                  #######################################################
                  #                        -***-                        #
                  #          Department of theory and spectroscopy      #
                  #    Directorship and core code : Frank Neese         #
                  #        Max Planck Institute fuer Kohlenforschung    #
                  #                Kaiser Wilhelm Platz 1               #
                  #                 D-45470 Muelheim/Ruhr               #
                  #                      Germany                        #
                  #                                                     #
                  #                  All rights reserved                #
                  #                        -***-                        #
                  #######################################################


                         Program Version 5.0.3 -  RELEASE  -


 With contributions from (in alphabetic order):
   Daniel Aravena         : Magnetic Suceptibility
   Michael Atanasov       : Ab Initio Ligand Field Theory (pilot matlab implementation)
   Alexander A. Auer      : GIAO ZORA, VPT2 properties, NMR spectrum
   Ute Becker             : Parallelization
   Giovanni Bistoni       : ED, misc. LED, open-shell LED, HFLD
   Martin Brehm           : Molecular dynamics
   Dmytro Bykov           : SCF Hessian
   Vijay G. Chilkuri      : MRCI spin determinant printing, contributions to CSF-ICE
   Dipayan Datta          : RHF DLPNO-CCSD density
   Achintya Kumar Dutta   : EOM-CC, STEOM-CC
   Dmitry Ganyushin       : Spin-Orbit,Spin-Spin,Magnetic field MRCI
   Miquel Garcia          : C-PCM and meta-GGA Hessian, CC/C-PCM, Gaussian charge scheme
   Yang Guo               : DLPNO-NEVPT2, F12-NEVPT2, CIM, IAO-localization
   Andreas Hansen         : Spin unrestricted coupled pair/coupled cluster methods
   Benjamin Helmich-Paris : MC-RPA, TRAH-SCF, COSX integrals
   Lee Huntington         : MR-EOM, pCC
   Robert Izsak           : Overlap fitted RIJCOSX, COSX-SCS-MP3, EOM
   Marcus Kettner         : VPT2
   Christian Kollmar      : KDIIS, OOCD, Brueckner-CCSD(T), CCSD density, CASPT2, CASPT2-K
   Simone Kossmann        : Meta GGA functionals, TD-DFT gradient, OOMP2, MP2 Hessian
   Martin Krupicka        : Initial AUTO-CI
   Lucas Lang             : DCDCAS
   Marvin Lechner         : AUTO-CI (C++ implementation), FIC-MRCC
   Dagmar Lenk            : GEPOL surface, SMD
   Dimitrios Liakos       : Extrapolation schemes; Compound Job, initial MDCI parallelization
   Dimitrios Manganas     : Further ROCIS development; embedding schemes
   Dimitrios Pantazis     : SARC Basis sets
   Anastasios Papadopoulos: AUTO-CI, single reference methods and gradients
   Taras Petrenko         : DFT Hessian,TD-DFT gradient, ASA, ECA, R-Raman, ABS, FL, XAS/XES, NRVS
   Peter Pinski           : DLPNO-MP2, DLPNO-MP2 Gradient
   Christoph Reimann      : Effective Core Potentials
   Marius Retegan         : Local ZFS, SOC
   Christoph Riplinger    : Optimizer, TS searches, QM/MM, DLPNO-CCSD(T), (RO)-DLPNO pert. Triples
   Tobias Risthaus        : Range-separated hybrids, TD-DFT gradient, RPA, STAB
   Michael Roemelt        : Original ROCIS implementation
   Masaaki Saitow         : Open-shell DLPNO-CCSD energy and density
   Barbara Sandhoefer     : DKH picture change effects
   Avijit Sen             : IP-ROCIS
   Kantharuban Sivalingam : CASSCF convergence, NEVPT2, FIC-MRCI
   Bernardo de Souza      : ESD, SOC TD-DFT
   Georgi Stoychev        : AutoAux, RI-MP2 NMR, DLPNO-MP2 response
   Willem Van den Heuvel  : Paramagnetic NMR
   Boris Wezisla          : Elementary symmetry handling
   Frank Wennmohs         : Technical directorship


 We gratefully acknowledge several colleagues who have allowed us to
 interface, adapt or use parts of their codes:
   Stefan Grimme, W. Hujo, H. Kruse, P. Pracht,  : VdW corrections, initial TS optimization,
                  C. Bannwarth, S. Ehlert          DFT functionals, gCP, sTDA/sTD-DF
   Ed Valeev, F. Pavosevic, A. Kumar             : LibInt (2-el integral package), F12 methods
   Garnet Chan, S. Sharma, J. Yang, R. Olivares  : DMRG
   Ulf Ekstrom                                   : XCFun DFT Library
   Mihaly Kallay                                 : mrcc  (arbitrary order and MRCC methods)
   Jiri Pittner, Ondrej Demel                    : Mk-CCSD
   Frank Weinhold                                : gennbo (NPA and NBO analysis)
   Christopher J. Cramer and Donald G. Truhlar   : smd solvation model
   Lars Goerigk                                  : TD-DFT with DH, B97 family of functionals
   V. Asgeirsson, H. Jonsson                     : NEB implementation
   FAccTs GmbH                                   : IRC, NEB, NEB-TS, DLPNO-Multilevel, CI-OPT
                                                   MM, QMMM, 2- and 3-layer-ONIOM, Crystal-QMMM,
                                                   LR-CPCM, SF, NACMEs, symmetry and pop. for TD-DFT,
                                                   nearIR, NL-DFT gradient (VV10), updates on ESD,
                                                   ML-optimized integration grids
   S Lehtola, MJT Oliveira, MAL Marques          : LibXC Library
   Liviu Ungur et al                             : ANISO software


 Your calculation uses the libint2 library for the computation of 2-el integrals
 For citations please refer to: http://libint.valeyev.net

 Your ORCA version has been built with support for libXC version: 5.1.0
 For citations please refer to: https://tddft.org/programs/libxc/

 This ORCA versions uses:
   CBLAS   interface :  Fast vector & matrix operations
   LAPACKE interface :  Fast linear algebra routines
   SCALAPACK package :  Parallel linear algebra routines
   Shared memory     :  Shared parallel matrices
   BLAS/LAPACK       :  OpenBLAS 0.3.15  USE64BITINT DYNAMIC_ARCH NO_AFFINITY SkylakeX SINGLE_THREADED
        Core in use  :  SkylakeX
   Copyright (c) 2011-2014, The OpenBLAS Project


Your calculation utilizes the geometrical counterpoise correction gCP
Please cite in your paper:
H.Kruse, S. Grimme J.Chem.Phys., 136, (2012), 154101 
   

Your calculation utilizes the atom-pairwise dispersion correction
with the Becke-Johnson damping scheme (D3BJ)
Cite in your paper:
S.Grimme, S.Ehrlich, L.Goerigk, J Comput Chem, (2011), 32, 1456–1465 
S.Grimme, J.Antony, S.Ehrlich and H.Krieg, J.Chem.Phys., 132, (2010), 154104 
   

Your calculation employs the composite approach PBEh-3c.
Please cite in your paper:
S. Grimme, J. G. Brandenburg, C. Bannwarth, A. Hansen J.Chem.Phys., 143, (2015), 054107 
   

================================================================================

cite the ECPs for Ir [Def2-ECP] as follows:
Ce-Yb(ecp-28): M. Dolg, H. Stoll, H.Preuss, J. Chem. Phys., 1989, 90, 1730-1734.
Y-Cd(ecp-28), Hf-Hg(ecp-46): D. Andrae,U. Haeussermann, M. Dolg, H. Stoll, H. Preuss, Theor. Chim. Acta, 1990, 77, 123-141.
In-Sb(ecp-28), Tl-Bi(ecp-46): B. Metz, H. Stoll, M. Dolg, J. Chem. Phys., 2000, 113, 2563-2569.
Te-Xe(ecp-28), Po-Rn(ecp-46): K. A. Peterson, D. Figgen, E. Goll, H. Stoll, M. Dolg, J. Chem. Phys., 2003, 119, 11113-11123.
Rb(ecp-28), Cs(ecp-46): T. Leininger, A. Nicklass, W. Kuechle, H. Stoll, M. Dolg, A. Bergner, Chem. Phys. Lett., 1996, 255, 274-280.
Sr(ecp-28), Ba(ecp-46): M. Kaupp, P. V. Schleyer, H. Stoll and H. Preuss, J. Chem. Phys., 1991, 94, 1360-1366.
La(ecp-46): M. Dolg, H. Stoll, A. Savin, H. Preuss, Theor. Chim. Acta, 1989, 75, 173-194.
Lu(ecp-28): X. Cao, M. Dolg, J. Chem. Phys., 2001, 115, 7348-7355.

ECP parameters for Ir [Def2-ECP] have been obtained from:
TURBOMOLE (7.0.2)

----- Orbital basis set information -----
Your calculation utilizes the basis: def2-mSVP

----- AuxJ basis set information -----
Your calculation utilizes the auxiliary basis: def2/J
   F. Weigend, Phys. Chem. Chem. Phys. 8, 1057 (2006).

================================================================================
                                        WARNINGS
                       Please study these warnings very carefully!
================================================================================


WARNING: Geometry Optimization
  ===> : Switching off AutoStart
         For restart on a previous wavefunction, please use MOREAD

WARNING: No Hueckel Guess possible with ECP basis!
  ===> : Switching to HCORE guess!

INFO   : the flag for use of the SHARK integral package has been found!

================================================================================
                                       INPUT FILE
================================================================================
NAME = reaction4-IEIP_ts_guess_scan_3-13_orca.inp
|  1> ! Opt PBEh-3c
|  2> %geom Constraints
|  3> { B 0 20 2.4714285714285715 C }
|  4> { B 24 30 1.3142857142857143 C }
|  5>     end
|  6> end
|  7> %output 
|  8> xyzfile=True 
|  9> end 
| 10> %scf 
| 11> maxiter 250 
| 12> end
| 13> %output
| 14> Print[P_Hirshfeld] = 1
| 15> end
| 16> % maxcore
| 17> 4000
| 18> *xyz 1 1
| 19> Ir   0.57810807  -0.74205784   0.51841990 
| 20> C    0.03023019  -2.82328021   0.39522574 
| 21> C    0.02688614  -2.36500823   1.76200540 
| 22> C    2.16976065  -2.15062903   0.93942169 
| 23> C    1.33009125  -2.66452263  -0.11910689 
| 24> C    1.37505403  -2.00242722   2.09071131 
| 25> N   -1.03461554   0.13059944  -0.50115731 
| 26> C   -2.32052155   0.41932314   0.15784982 
| 27> C   -3.10156364   1.54724345  -0.49914741 
| 28> H   -3.93628551   1.82023629   0.14507948 
| 29> H   -3.53255751   1.26270583  -1.46007972 
| 30> H   -2.49138535   2.44006079  -0.63757215 
| 31> C   -3.14863307  -0.85692314   0.24971530 
| 32> H   -2.05269669   0.73330205   1.16800220 
| 33> H   -4.07274923  -0.65740596   0.79037046 
| 34> H   -3.41589767  -1.22732248  -0.74088563 
| 35> H   -2.62449930  -1.64760405   0.78444982 
| 36> C   -0.84637246   0.35779035  -1.74680503 
| 37> C    0.49034369   0.19111850  -2.25731035 
| 38> H   -1.65225298   0.70105636  -2.38966114 
| 39> C    1.60300572   0.42216970  -1.46041607 
| 40> C    2.79368480   0.09173702  -2.16368826 
| 41> S    0.89273346  -0.35211268  -3.82714022 
| 42> C    2.56142499  -0.32817910  -3.43887056 
| 43> H    1.56297811   1.33398291  -0.59535357 
| 44> H    3.78794894   0.21588310  -1.75971651 
| 45> H    3.28851632  -0.60612801  -4.18695892 
| 46> H   -0.82514177  -3.19179053  -0.15250429 
| 47> H   -0.80629118  -2.39505404   2.44861736 
| 48> H    1.70298168  -1.60273443   3.03969046 
| 49> O    1.45662956   2.37510640   0.22309246 
| 50> O    0.54048435   0.94404465   1.66736273 
| 51> C    0.98631692   2.09935482   1.33436724 
| 52> C    0.94389975   3.14255949   2.41219477 
| 53> H    0.89507476   4.13994861   1.98348550 
| 54> H    1.86215694   3.07995285   2.99957667 
| 55> H    0.10969992   2.98429202   3.09159035 
| 56> H    3.22342264  -1.92816983   0.86161890 
| 57> H    1.64940058  -2.89192836  -1.12573340 
| 58> *
| 59> 
| 60>                          ****END OF INPUT****
================================================================================

                       *****************************
                       * Geometry Optimization Run *
                       *****************************

Geometry optimization settings:
Update method            Update   .... BFGS
Choice of coordinates    CoordSys .... Z-matrix Internals
Initial Hessian          InHess   .... Almoef's Model

Convergence Tolerances:
Energy Change            TolE     ....  5.0000e-06 Eh
Max. Gradient            TolMAXG  ....  3.0000e-04 Eh/bohr
RMS Gradient             TolRMSG  ....  1.0000e-04 Eh/bohr
Max. Displacement        TolMAXD  ....  4.0000e-03 bohr
RMS Displacement         TolRMSD  ....  2.0000e-03 bohr
Strict Convergence                ....  False
------------------------------------------------------------------------------
                        ORCA OPTIMIZATION COORDINATE SETUP
------------------------------------------------------------------------------

The optimization will be done in new redundant internal coordinates
Making redundant internal coordinates   ...  (new redundants) done
Evaluating the initial hessian          ...  (Almloef) done
Evaluating the coordinates              ...  done
Calculating the B-matrix                .... done
Calculating the G-matrix                .... done
Diagonalizing the G-matrix              .... done
Imposing constraints:
 Iter   0:  RMS(Cart)=    0.0227112175 RMS(Int)=    0.0068677537
 Iter   1:  RMS(Cart)=    0.0026723322 RMS(Int)=    0.0008995030
 Iter   2:  RMS(Cart)=    0.0003464595 RMS(Int)=    0.0001199264
 Iter   3:  RMS(Cart)=    0.0000459120 RMS(Int)=    0.0000160279
 Iter   4:  RMS(Cart)=    0.0000061217 RMS(Int)=    0.0000021430
 Iter   5:  RMS(Cart)=    0.0000008178 RMS(Int)=    0.0000002866
 Iter   6:  RMS(Cart)=    0.0000001093 RMS(Int)=    0.0000000383
 Iter   7:  RMS(Cart)=    0.0000000146 RMS(Int)=    0.0000000051
CONVERGED
Small eigenvalue found = 1.361e-02
Small eigenvalue found = 2.448e-02
Small eigenvalue found = 2.550e-02
The first mode is                       ....  234
The number of degrees of freedom        ....  111
Storing new coordinates                 .... done

    -----------------------------------------------------------------
                    Redundant Internal Coordinates


    -----------------------------------------------------------------
         Definition                    Initial Value    Approx d2E/dq
    -----------------------------------------------------------------
      1. B(C   1,Ir  0)                  2.1555         0.087325   
      2. B(C   2,C   1)                  1.4417         0.516974   
      3. B(C   2,Ir  0)                  2.1175         0.100419   
      4. B(C   3,Ir  0)                  2.1666         0.083846   
      5. B(C   4,Ir  0)                  2.1604         0.085782   
      6. B(C   4,C   1)                  1.4073         0.587176   
      7. B(C   4,C   3)                  1.4456         0.509463   
      8. B(C   5,C   3)                  1.4071         0.587475   
      9. B(C   5,C   2)                  1.4344         0.531059   
     10. B(C   5,Ir  0)                  2.1669         0.083769   
     11. B(N   6,Ir  0)                  2.0976         0.096633   
     12. B(C   7,N   6)                  1.4735         0.411770   
     13. B(C   8,C   7)                  1.5211         0.385930   
     14. B(H   9,C   8)                  1.0892         0.361186   
     15. B(H  10,C   8)                  1.0909         0.358884   
     16. B(H  11,C   8)                  1.0902         0.359796   
     17. B(C  12,C   7)                  1.5241         0.381700   
     18. B(H  13,C   7)                  1.0912         0.358514   
     19. B(H  14,C  12)                  1.0891         0.361313   
     20. B(H  15,C  12)                  1.0908         0.359000   
     21. B(H  16,C  12)                  1.0890         0.361479   
     22. B(C  17,N   6)                  1.2774         0.837902   
     23. B(C  18,C  17)                  1.4386         0.518893   
     24. B(H  19,C  17)                  1.0866         0.364725   
     25. B(C  20,C  18)                  1.3881         0.629489   
     26. B(C  20,Ir  0)                  2.4714         0.023386 C 
     27. B(C  21,C  20)                  1.4221         0.555924   
     28. B(S  22,C  18)                  1.7093         0.521476   
     29. B(C  23,C  21)                  1.3624         0.691254   
     30. B(C  23,S  22)                  1.7133         0.513437   
     31. B(H  24,C  20)                  1.2569         0.194611   
     32. B(H  25,C  21)                  1.0804         0.373088   
     33. B(H  26,C  23)                  1.0797         0.374113   
     34. B(H  27,C   1)                  1.0805         0.372896   
     35. B(H  28,C   2)                  1.0801         0.373496   
     36. B(H  29,C   5)                  1.0807         0.372653   
     37. B(O  30,H  24)                  1.3143         0.134256 C 
     38. B(O  31,Ir  0)                  2.0409         0.119313   
     39. B(C  32,O  30)                  1.2351         0.978793   
     40. B(C  32,O  31)                  1.2802         0.831077   
     41. B(C  33,C  32)                  1.5006         0.416189   
     42. B(H  34,C  33)                  1.0867         0.364465   
     43. B(H  35,C  33)                  1.0918         0.357663   
     44. B(H  36,C  33)                  1.0874         0.363508   
     45. B(H  37,C   3)                  1.0797         0.373991   
     46. B(H  38,C   4)                  1.0803         0.373214   
     47. A(C   4,Ir  0,N   6)          119.6260         0.250595   
     48. A(C   1,Ir  0,C   2)           39.4249         0.253845   
     49. A(C   5,Ir  0,N   6)          151.2744         0.249729   
     50. A(N   6,Ir  0,O  31)           85.1719         0.261879   
     51. A(C   1,Ir  0,C   3)           64.5570         0.247251   
     52. A(C   4,Ir  0,C   5)           64.4541         0.246580   
     53. A(C   3,Ir  0,N   6)          158.3665         0.249762   
     54. A(C   1,Ir  0,N   6)          100.2588         0.251248   
     55. A(C   3,Ir  0,O  31)          116.1750         0.257619   
     56. A(C   2,Ir  0,C   4)           65.3048         0.253181   
     57. A(C   2,Ir  0,N   6)          113.7996         0.256461   
     58. A(C   1,Ir  0,C   4)           38.0615         0.248070   
     59. A(C   1,Ir  0,O  31)          145.5610         0.259178   
     60. A(C   4,Ir  0,O  31)          155.1897         0.258492   
     61. A(C   5,Ir  0,O  31)           94.4832         0.257584   
     62. A(C   2,Ir  0,C   5)           39.0978         0.252301   
     63. A(C   2,Ir  0,C   3)           65.1085         0.252335   
     64. A(C   3,Ir  0,C   4)           39.0344         0.246613   
     65. A(C   1,Ir  0,C   5)           64.7595         0.247218   
     66. A(C   2,Ir  0,O  31)          107.2724         0.264645   
     67. A(C   3,Ir  0,C   5)           37.8935         0.245769   
     68. A(C   2,C   1,H  27)          125.9569         0.344284   
     69. A(Ir  0,C   1,C   2)           68.8670         0.314299   
     70. A(Ir  0,C   1,H  27)          124.0207         0.269970   
     71. A(C   2,C   1,C   4)          108.2313         0.416109   
     72. A(C   4,C   1,H  27)          125.7775         0.351748   
     73. A(Ir  0,C   1,C   4)           71.1574         0.320886   
     74. A(C   1,C   2,C   5)          107.1878         0.408756   
     75. A(Ir  0,C   2,H  28)          126.5497         0.275852   
     76. A(Ir  0,C   2,C   5)           72.3095         0.322956   
     77. A(Ir  0,C   2,C   1)           71.7080         0.321537   
     78. A(C   1,C   2,H  28)          126.5619         0.344377   
     79. A(C   5,C   2,H  28)          125.9044         0.345935   
     80. A(C   4,C   3,H  37)          125.9625         0.343608   
     81. A(C   4,C   3,C   5)          107.9771         0.415065   
     82. A(Ir  0,C   3,C   4)           70.2494         0.311497   
     83. A(Ir  0,C   3,H  37)          124.6804         0.268431   
     84. A(Ir  0,C   3,C   5)           71.0631         0.318789   
     85. A(C   5,C   3,H  37)          126.0584         0.351953   
     86. A(C   3,C   4,H  38)          125.8319         0.343489   
     87. A(Ir  0,C   4,C   1)           70.7810         0.319952   
     88. A(C   1,C   4,H  38)          126.1668         0.351799   
     89. A(Ir  0,C   4,H  38)          124.4175         0.269276   
     90. A(Ir  0,C   4,C   3)           70.7162         0.312649   
     91. A(C   1,C   4,C   3)          108.0002         0.415027   
     92. A(Ir  0,C   5,H  29)          122.2561         0.268249   
     93. A(C   3,C   5,H  29)          125.8893         0.351740   
     94. A(C   2,C   5,H  29)          125.4468         0.345804   
     95. A(Ir  0,C   5,C   3)           71.0434         0.318741   
     96. A(C   2,C   5,C   3)          108.4721         0.418143   
     97. A(Ir  0,C   5,C   2)           68.5928         0.313551   
     98. A(Ir  0,N   6,C  17)          115.1700         0.342208   
     99. A(C   7,N   6,C  17)          122.1759         0.420209   
    100. A(Ir  0,N   6,C   7)          122.6152         0.304597   
    101. A(N   6,C   7,C   8)          113.5914         0.369212   
    102. A(N   6,C   7,C  12)          109.6967         0.368513   
    103. A(C   8,C   7,C  12)          111.5892         0.366729   
    104. A(N   6,C   7,H  13)          104.8451         0.327343   
    105. A(C   8,C   7,H  13)          108.2100         0.325821   
    106. A(C  12,C   7,H  13)          108.5718         0.325231   
    107. A(C   7,C   8,H  11)          112.0055         0.326013   
    108. A(H   9,C   8,H  11)          107.3838         0.290938   
    109. A(H  10,C   8,H  11)          108.8364         0.290646   
    110. A(C   7,C   8,H   9)          108.8980         0.326220   
    111. A(C   7,C   8,H  10)          112.9485         0.325877   
    112. A(H   9,C   8,H  10)          106.4750         0.290822   
    113. A(C   7,C  12,H  14)          109.7278         0.325648   
    114. A(C   7,C  12,H  15)          111.2668         0.325304   
    115. A(H  14,C  12,H  15)          107.7656         0.290853   
    116. A(C   7,C  12,H  16)          112.0908         0.325672   
    117. A(H  14,C  12,H  16)          107.3167         0.291168   
    118. A(H  15,C  12,H  16)          108.5005         0.290874   
    119. A(N   6,C  17,C  18)          116.8650         0.440901   
    120. A(N   6,C  17,H  19)          121.8037         0.370012   
    121. A(C  18,C  17,H  19)          121.2968         0.343220   
    122. A(C  17,C  18,C  20)          121.4237         0.421580   
    123. A(C  17,C  18,S  22)          125.4452         0.430082   
    124. A(C  20,C  18,S  22)          113.0860         0.445329   
    125. A(C  18,C  20,C  21)          110.3406         0.426810   
    126. A(C  18,C  20,H  24)          119.5203         0.319387   
    127. A(C  21,C  20,H  24)          122.1614         0.312996   
    128. A(C  20,C  21,H  25)          123.9731         0.348546   
    129. A(C  23,C  21,H  25)          122.8128         0.361666   
    130. A(C  20,C  21,C  23)          113.1085         0.434043   
    131. A(C  18,S  22,C  23)           90.9506         0.453155   
    132. A(C  21,C  23,H  26)          127.8142         0.361835   
    133. A(S  22,C  23,H  26)          119.6916         0.361983   
    134. A(C  21,C  23,S  22)          112.4760         0.451680   
    135. A(C  20,H  24,O  30)          173.9555         0.227817   
    136. A(H  24,O  30,C  32)          113.7299         0.318443   
    137. A(Ir  0,O  31,C  32)          126.2202         0.354092   
    138. A(O  30,C  32,O  31)          124.1180         0.491170   
    139. A(O  30,C  32,C  33)          120.2183         0.435750   
    140. A(O  31,C  32,C  33)          115.6423         0.423146   
    141. A(C  32,C  33,H  34)          110.8524         0.330802   
    142. A(C  32,C  33,H  35)          108.8306         0.329773   
    143. A(H  34,C  33,H  35)          107.6163         0.291080   
    144. A(C  32,C  33,H  36)          111.6696         0.330658   
    145. A(H  34,C  33,H  36)          110.2174         0.291823   
    146. A(H  35,C  33,H  36)          107.5002         0.290960   
    147. D(H  27,C   1,Ir  0,C   5)    158.8657         0.001710   
    148. D(C   2,C   1,Ir  0,C   5)     38.9585         0.001710   
    149. D(C   4,C   1,Ir  0,C   5)    -80.1398         0.001710   
    150. D(C   2,C   1,Ir  0,O  31)    -18.7186         0.001710   
    151. D(H  27,C   1,Ir  0,C   2)    119.9071         0.001710   
    152. D(C   2,C   1,Ir  0,C   4)    119.0983         0.001710   
    153. D(C   2,C   1,Ir  0,N   6)   -115.1892         0.001710   
    154. D(C   4,C   1,Ir  0,O  31)   -137.8169         0.001710   
    155. D(C   4,C   1,Ir  0,C   3)    -38.0308         0.001710   
    156. D(H  27,C   1,Ir  0,C   3)   -159.0253         0.001710   
    157. D(C   2,C   1,Ir  0,C   3)     81.0675         0.001710   
    158. D(H  27,C   1,Ir  0,O  31)    101.1886         0.001710   
    159. D(C   4,C   1,Ir  0,C   2)   -119.0983         0.001710   
    160. D(H  27,C   1,Ir  0,N   6)      4.7180         0.001710   
    161. D(C   4,C   1,Ir  0,N   6)    125.7125         0.001710   
    162. D(H  27,C   1,Ir  0,C   4)   -120.9945         0.001710   
    163. D(C   5,C   2,Ir  0,N   6)   -167.6929         0.001777   
    164. D(C   5,C   2,C   1,H  27)    178.5004         0.021202   
    165. D(H  28,C   2,Ir  0,C   4)   -158.7719         0.001777   
    166. D(C   5,C   2,Ir  0,C   3)     36.0518         0.001777   
    167. D(C   5,C   2,Ir  0,O  31)    -75.3544         0.001777   
    168. D(C   5,C   2,Ir  0,C   1)    115.6019         0.001777   
    169. D(H  28,C   2,Ir  0,N   6)    -45.7020         0.001777   
    170. D(C   1,C   2,Ir  0,C   3)    -79.5502         0.001777   
    171. D(C   5,C   2,Ir  0,C   4)     79.2372         0.001777   
    172. D(H  28,C   2,C   1,H  27)      4.9643         0.021202   
    173. D(C   5,C   2,C   1,C   4)     -3.5348         0.021202   
    174. D(Ir  0,C   2,C   1,C   4)     60.5361         0.021202   
    175. D(H  28,C   2,Ir  0,C   1)   -122.4072         0.001777   
    176. D(H  28,C   2,C   1,C   4)   -177.0710         0.021202   
    177. D(C   1,C   2,Ir  0,O  31)    169.0437         0.001777   
    178. D(H  28,C   2,Ir  0,C   5)    121.9909         0.001777   
    179. D(H  28,C   2,C   1,Ir  0)    122.3929         0.021202   
    180. D(Ir  0,C   2,C   1,H  27)   -117.4287         0.021202   
    181. D(C   1,C   2,Ir  0,N   6)     76.7052         0.001777   
    182. D(H  28,C   2,Ir  0,C   3)    158.0426         0.001777   
    183. D(H  28,C   2,Ir  0,O  31)     46.6365         0.001777   
    184. D(C   1,C   2,Ir  0,C   5)   -115.6019         0.001777   
    185. D(C   1,C   2,Ir  0,C   4)    -36.3647         0.001777   
    186. D(C   5,C   2,C   1,Ir  0)    -64.0709         0.021202   
    187. D(C   5,C   3,Ir  0,C   4)   -118.0266         0.001694   
    188. D(C   4,C   3,Ir  0,C   5)    118.0266         0.001694   
    189. D(C   4,C   3,Ir  0,O  31)    178.7040         0.001694   
    190. D(C   4,C   3,Ir  0,N   6)    -11.2557         0.001694   
    191. D(C   4,C   3,Ir  0,C   1)     37.0919         0.001694   
    192. D(C   5,C   3,Ir  0,O  31)     60.6775         0.001694   
    193. D(H  37,C   3,Ir  0,C   4)    120.6858         0.001694   
    194. D(C   4,C   3,Ir  0,C   2)     80.8497         0.001694   
    195. D(H  37,C   3,Ir  0,C   1)    157.7776         0.001694   
    196. D(C   5,C   3,Ir  0,C   1)    -80.9347         0.001694   
    197. D(C   5,C   3,Ir  0,N   6)   -129.2823         0.001694   
    198. D(H  37,C   3,Ir  0,C   2)   -158.4646         0.001694   
    199. D(H  37,C   3,Ir  0,O  31)    -60.6102         0.001694   
    200. D(C   5,C   3,Ir  0,C   2)    -37.1769         0.001694   
    201. D(H  37,C   3,Ir  0,C   5)   -121.2877         0.001694   
    202. D(H  37,C   3,Ir  0,N   6)    109.4300         0.001694   
    203. D(C   1,C   4,Ir  0,C   3)    117.9487         0.001703   
    204. D(H  38,C   4,C   3,H  37)     -0.0296         0.020572   
    205. D(C   1,C   4,Ir  0,C   5)     81.0134         0.001703   
    206. D(C   1,C   4,Ir  0,N   6)    -66.7997         0.001703   
    207. D(C   1,C   4,Ir  0,O  31)    115.1762         0.001703   
    208. D(C   1,C   4,Ir  0,C   2)     37.6454         0.001703   
    209. D(C   3,C   4,Ir  0,C   1)   -117.9487         0.001703   
    210. D(H  38,C   4,C   3,C   5)   -179.5448         0.020572   
    211. D(C   3,C   4,Ir  0,C   5)    -36.9354         0.001703   
    212. D(C   3,C   4,Ir  0,N   6)    175.2515         0.001703   
    213. D(C   3,C   4,Ir  0,O  31)     -2.7726         0.001703   
    214. D(Ir  0,C   4,C   1,C   2)    -59.1035         0.027674   
    215. D(H  38,C   4,Ir  0,C   2)    158.8931         0.001703   
    216. D(H  38,C   4,Ir  0,C   3)   -120.8035         0.001703   
    217. D(H  38,C   4,C   1,C   2)   -178.2224         0.027674   
    218. D(H  38,C   4,Ir  0,N   6)     54.4480         0.001703   
    219. D(H  38,C   4,Ir  0,O  31)   -123.5761         0.001703   
    220. D(Ir  0,C   4,C   1,H  27)    118.8659         0.027674   
    221. D(C   3,C   4,C   1,Ir  0)     61.2487         0.027674   
    222. D(C   3,C   4,C   1,H  27)   -179.8854         0.027674   
    223. D(H  38,C   4,C   1,Ir  0)   -119.1189         0.027674   
    224. D(H  38,C   4,Ir  0,C   5)   -157.7389         0.001703   
    225. D(H  38,C   4,C   1,H  27)     -0.2530         0.027674   
    226. D(Ir  0,C   4,C   3,C   5)     61.3791         0.020572   
    227. D(Ir  0,C   4,C   3,H  37)   -119.1056         0.020572   
    228. D(C   3,C   4,C   1,C   2)      2.1452         0.027674   
    229. D(C   1,C   4,C   3,C   5)      0.0891         0.020572   
    230. D(C   1,C   4,C   3,H  37)    179.6044         0.020572   
    231. D(H  38,C   4,C   3,Ir  0)    119.0761         0.020572   
    232. D(H  38,C   4,Ir  0,C   1)    121.2477         0.001703   
    233. D(C   1,C   4,C   3,Ir  0)    -61.2900         0.020572   
    234. D(C   3,C   4,Ir  0,C   2)    -80.3034         0.001703   
    235. D(C   2,C   5,Ir  0,C   1)    -39.2841         0.001693   
    236. D(H  29,C   5,C   3,C   4)   -177.4771         0.027704   
    237. D(C   2,C   5,Ir  0,C   4)    -81.5997         0.001693   
    238. D(C   2,C   5,Ir  0,N   6)     23.9402         0.001693   
    239. D(C   2,C   5,Ir  0,O  31)    112.0719         0.001693   
    240. D(C   3,C   5,Ir  0,C   1)     80.3525         0.001693   
    241. D(C   3,C   5,Ir  0,C   2)    119.6365         0.001693   
    242. D(C   3,C   5,Ir  0,C   4)     38.0368         0.001693   
    243. D(H  29,C   5,C   2,C   1)    178.7971         0.022416   
    244. D(C   3,C   5,Ir  0,O  31)   -128.2915         0.001693   
    245. D(H  29,C   5,Ir  0,C   1)   -158.5710         0.001693   
    246. D(C   3,C   5,C   2,Ir  0)    -60.0766         0.022416   
    247. D(H  29,C   5,Ir  0,C   3)    121.0765         0.001693   
    248. D(H  29,C   5,Ir  0,C   4)    159.1134         0.001693   
    249. D(H  29,C   5,Ir  0,N   6)    -95.3467         0.001693   
    250. D(H  29,C   5,Ir  0,O  31)     -7.2150         0.001693   
    251. D(Ir  0,C   5,C   2,C   1)     63.6727         0.022416   
    252. D(H  29,C   5,Ir  0,C   2)   -119.2869         0.001693   
    253. D(Ir  0,C   5,C   2,H  28)   -122.7368         0.022416   
    254. D(C   3,C   5,C   2,C   1)      3.5961         0.022416   
    255. D(C   3,C   5,C   2,H  28)    177.1866         0.022416   
    256. D(C   3,C   5,Ir  0,N   6)    143.5768         0.001693   
    257. D(H  29,C   5,C   2,Ir  0)    115.1244         0.022416   
    258. D(H  29,C   5,C   2,H  28)     -7.6123         0.022416   
    259. D(Ir  0,C   5,C   3,C   4)    -60.8612         0.027704   
    260. D(Ir  0,C   5,C   3,H  37)    119.6242         0.027704   
    261. D(C   2,C   5,C   3,Ir  0)     58.5584         0.027704   
    262. D(C   2,C   5,C   3,C   4)     -2.3028         0.027704   
    263. D(C   2,C   5,C   3,H  37)    178.1825         0.027704   
    264. D(C   2,C   5,Ir  0,C   3)   -119.6365         0.001693   
    265. D(H  29,C   5,C   3,Ir  0)   -116.6160         0.027704   
    266. D(H  29,C   5,C   3,H  37)      3.0082         0.027704   
    267. D(C  17,N   6,Ir  0,C   1)    -94.7797         0.001776   
    268. D(C   7,N   6,Ir  0,C   2)     44.0851         0.001776   
    269. D(C   7,N   6,Ir  0,C   3)    126.2838         0.001776   
    270. D(C   7,N   6,Ir  0,C   4)    118.1541         0.001776   
    271. D(C   7,N   6,Ir  0,C   5)     27.8434         0.001776   
    272. D(C   7,N   6,Ir  0,C   1)     82.9943         0.001776   
    273. D(C   7,N   6,Ir  0,O  31)    -62.6778         0.001776   
    274. D(C  17,N   6,Ir  0,C   2)   -133.6889         0.001776   
    275. D(C  17,N   6,Ir  0,C   3)    -51.4903         0.001776   
    276. D(C  17,N   6,Ir  0,C   4)    -59.6199         0.001776   
    277. D(C  17,N   6,Ir  0,C   5)   -149.9306         0.001776   
    278. D(C  17,N   6,Ir  0,O  31)    119.5481         0.001776   
    279. D(C   8,C   7,N   6,Ir  0)    154.5379         0.014463   
    280. D(C   8,C   7,N   6,C  17)    -27.8424         0.014463   
    281. D(C  12,C   7,N   6,Ir  0)    -79.8148         0.014463   
    282. D(C  12,C   7,N   6,C  17)     97.8050         0.014463   
    283. D(H  13,C   7,N   6,Ir  0)     36.5991         0.014463   
    284. D(H  13,C   7,N   6,C  17)   -145.7811         0.014463   
    285. D(H   9,C   8,C   7,N   6)   -169.6175         0.011852   
    286. D(H   9,C   8,C   7,C  12)     65.7481         0.011852   
    287. D(H   9,C   8,C   7,H  13)    -53.6424         0.011852   
    288. D(H  10,C   8,C   7,N   6)     72.3178         0.011852   
    289. D(H  10,C   8,C   7,C  12)    -52.3166         0.011852   
    290. D(H  10,C   8,C   7,H  13)   -171.7071         0.011852   
    291. D(H  11,C   8,C   7,N   6)    -51.0001         0.011852   
    292. D(H  11,C   8,C   7,C  12)   -175.6345         0.011852   
    293. D(H  11,C   8,C   7,H  13)     64.9750         0.011852   
    294. D(H  14,C  12,C   7,N   6)    176.5750         0.011607   
    295. D(H  14,C  12,C   7,C   8)    -56.6400         0.011607   
    296. D(H  14,C  12,C   7,H  13)     62.5360         0.011607   
    297. D(H  15,C  12,C   7,N   6)    -64.2545         0.011607   
    298. D(H  15,C  12,C   7,C   8)     62.5304         0.011607   
    299. D(H  15,C  12,C   7,H  13)   -178.2936         0.011607   
    300. D(H  16,C  12,C   7,N   6)     57.4439         0.011607   
    301. D(H  16,C  12,C   7,C   8)   -175.7711         0.011607   
    302. D(H  16,C  12,C   7,H  13)    -56.5951         0.011607   
    303. D(C  18,C  17,N   6,Ir  0)     -9.1442         0.060559   
    304. D(C  18,C  17,N   6,C   7)    173.0710         0.060559   
    305. D(H  19,C  17,N   6,Ir  0)    172.9644         0.060559   
    306. D(H  19,C  17,N   6,C   7)     -4.8205         0.060559   
    307. D(C  20,C  18,C  17,N   6)    -30.8763         0.018361   
    308. D(C  20,C  18,C  17,H  19)    147.0266         0.018361   
    309. D(S  22,C  18,C  17,N   6)    146.5117         0.018361   
    310. D(S  22,C  18,C  17,H  19)    -35.5854         0.018361   
    311. D(C  21,C  20,C  18,C  17)    175.5503         0.029857   
    312. D(C  21,C  20,C  18,S  22)     -2.1367         0.029857   
    313. D(H  24,C  20,C  18,C  17)    -34.8721         0.029857   
    314. D(H  24,C  20,C  18,S  22)    147.4409         0.029857   
    315. D(C  23,C  21,C  20,C  18)      1.6918         0.022964   
    316. D(C  23,C  21,C  20,H  24)   -146.9421         0.022964   
    317. D(H  25,C  21,C  20,C  18)    178.0408         0.022964   
    318. D(H  25,C  21,C  20,H  24)     29.4068         0.022964   
    319. D(C  23,S  22,C  18,C  17)   -175.9825         0.005548   
    320. D(C  23,S  22,C  18,C  20)      1.5946         0.005548   
    321. D(S  22,C  23,C  21,C  20)     -0.5250         0.033583   
    322. D(S  22,C  23,C  21,H  25)   -176.9224         0.033583   
    323. D(H  26,C  23,C  21,C  20)    177.8966         0.033583   
    324. D(H  26,C  23,C  21,H  25)      1.4991         0.033583   
    325. D(C  21,C  23,S  22,C  18)     -0.5932         0.005418   
    326. D(H  26,C  23,S  22,C  18)   -179.1578         0.005418   
    327. D(O  30,H  24,C  20,C  18)    -41.8044         0.028974   
    328. D(O  30,H  24,C  20,C  21)    104.0805         0.028974   
    329. D(C  32,O  30,H  24,C  20)    130.7131         0.012854   
    330. D(C  32,O  31,Ir  0,C   1)   -178.0358         0.001898   
    331. D(C  32,O  31,Ir  0,C   2)    169.6407         0.001898   
    332. D(C  32,O  31,Ir  0,C   3)     99.4149         0.001898   
    333. D(C  32,O  31,Ir  0,C   4)    101.3601         0.001898   
    334. D(C  32,O  31,Ir  0,C   5)    131.9045         0.001898   
    335. D(C  32,O  31,Ir  0,N   6)    -76.9162         0.001898   
    336. D(O  31,C  32,O  30,H  24)     -4.8833         0.077970   
    337. D(C  33,C  32,O  30,H  24)    173.3593         0.077970   
    338. D(O  30,C  32,O  31,Ir  0)      3.2160         0.053731   
    339. D(C  33,C  32,O  31,Ir  0)   -175.0996         0.053731   
    340. D(H  34,C  33,C  32,O  30)     27.1991         0.012815   
    341. D(H  34,C  33,C  32,O  31)   -154.4147         0.012815   
    342. D(H  35,C  33,C  32,O  30)    -90.9694         0.012815   
    343. D(H  35,C  33,C  32,O  31)     87.4168         0.012815   
    344. D(H  36,C  33,C  32,O  30)    150.5165         0.012815   
    345. D(H  36,C  33,C  32,O  31)    -31.0973         0.012815   
    -----------------------------------------------------------------

Number of atoms                         .... 39
Number of degrees of freedom            .... 345

         *************************************************************
         *                GEOMETRY OPTIMIZATION CYCLE   1            *
         *************************************************************
---------------------------------
CARTESIAN COORDINATES (ANGSTROEM)
---------------------------------
  Ir     0.579825   -0.734634    0.503749
  C      0.036863   -2.816734    0.376158
  C      0.039947   -2.363280    1.744734
  C      2.177887   -2.139952    0.910749
  C      1.333758   -2.652448   -0.145023
  C      1.389044   -1.998055    2.067211
  N     -1.041353    0.136535   -0.502562
  C     -2.326031    0.423182    0.159750
  C     -3.110267    1.550302   -0.494824
  H     -3.943776    1.821853    0.151585
  H     -3.543240    1.265584   -1.454815
  H     -2.501673    2.444029   -0.634368
  C     -3.152140   -0.854257    0.253106
  H     -2.056146    0.737093    1.169377
  H     -4.075197   -0.656261    0.796133
  H     -3.421338   -1.224596   -0.736996
  H     -2.625584   -1.644442    0.786200
  C     -0.851764    0.361571   -1.745606
  C      0.487147    0.185077   -2.241418
  H     -1.653268    0.704248   -2.394264
  C      1.593598    0.414627   -1.435175
  C      2.788368    0.072100   -2.126208
  S      0.900279   -0.370993   -3.804030
  C      2.565304   -0.354912   -3.400636
  H      1.556010    1.334135   -0.579079
  H      3.779840    0.193158   -1.714413
  H      3.297569   -0.642146   -4.140247
  H     -0.820600   -3.185627   -0.168049
  H     -0.789298   -2.398030    2.435912
  H      1.721110   -1.600758    3.015769
  O      1.453786    2.372803    0.219711
  O      0.543159    0.946631    1.660235
  C      0.985174    2.101840    1.329870
  C      0.942210    3.145935    2.406814
  H      0.892133    4.142902    1.977265
  H      1.860826    3.084793    2.993791
  H      0.108515    2.987388    3.086764
  H      3.230475   -1.914207    0.827794
  H      1.648218   -2.875262   -1.154225

----------------------------
CARTESIAN COORDINATES (A.U.)
----------------------------
  NO LB      ZA    FRAG     MASS         X           Y           Z
   0 Ir   17.0000*   0   192.220    1.095710   -1.388257    0.951947
   1 C     6.0000    0    12.011    0.069661   -5.322857    0.710837
   2 C     6.0000    0    12.011    0.075489   -4.465951    3.297070
   3 C     6.0000    0    12.011    4.115610   -4.043923    1.721066
   4 C     6.0000    0    12.011    2.520438   -5.012401   -0.274053
   5 C     6.0000    0    12.011    2.624912   -3.775776    3.906463
   6 N     7.0000    0    14.007   -1.967872    0.258013   -0.949704
   7 C     6.0000    0    12.011   -4.395562    0.799698    0.301884
   8 C     6.0000    0    12.011   -5.877553    2.929647   -0.935082
   9 H     1.0000    0     1.008   -7.452656    3.442803    0.286455
  10 H     1.0000    0     1.008   -6.695754    2.391608   -2.749202
  11 H     1.0000    0     1.008   -4.727477    4.618545   -1.198782
  12 C     6.0000    0    12.011   -5.956682   -1.614311    0.478301
  13 H     1.0000    0     1.008   -3.885553    1.392903    2.209803
  14 H     1.0000    0     1.008   -7.701007   -1.240153    1.504473
  15 H     1.0000    0     1.008   -6.465392   -2.314150   -1.392720
  16 H     1.0000    0     1.008   -4.961635   -3.107544    1.485702
  17 C     6.0000    0    12.011   -1.609601    0.683270   -3.298718
  18 C     6.0000    0    12.011    0.920575    0.349744   -4.235666
  19 H     1.0000    0     1.008   -3.124223    1.330836   -4.524503
  20 C     6.0000    0    12.011    3.011464    0.783531   -2.712087
  21 C     6.0000    0    12.011    5.269253    0.136249   -4.017951
  22 S    16.0000    0    32.060    1.701281   -0.701076   -7.188574
  23 C     6.0000    0    12.011    4.847721   -0.670687   -6.426271
  24 H     1.0000    0     1.008    2.940432    2.521149   -1.094301
  25 H     1.0000    0     1.008    7.142862    0.365015   -3.239771
  26 H     1.0000    0     1.008    6.231502   -1.213480   -7.823932
  27 H     1.0000    0     1.008   -1.550709   -6.019963   -0.317567
  28 H     1.0000    0     1.008   -1.491557   -4.531620    4.603207
  29 H     1.0000    0     1.008    3.252427   -3.024994    5.698978
  30 O     8.0000    0    15.999    2.747258    4.483947    0.415194
  31 O     8.0000    0    15.999    1.026422    1.788873    3.137389
  32 C     6.0000    0    12.011    1.861709    3.971902    2.513089
  33 C     6.0000    0    12.011    1.780519    5.944955    4.548219
  34 H     1.0000    0     1.008    1.685888    7.828949    3.736489
  35 H     1.0000    0     1.008    3.516452    5.829413    5.657445
  36 H     1.0000    0     1.008    0.205063    5.645346    5.833138
  37 H     1.0000    0     1.008    6.104713   -3.617328    1.564303
  38 H     1.0000    0     1.008    3.114681   -5.433457   -2.181169
* core charge reduced due to ECP

--------------------------------
INTERNAL COORDINATES (ANGSTROEM)
--------------------------------
 Ir     0   0   0     0.000000000000     0.00000000     0.00000000
 C      1   0   0     2.155651531635     0.00000000     0.00000000
 C      2   1   0     1.441565478677    68.86801360     0.00000000
 C      1   2   3     2.166719464975    64.54254777    81.06380300
 C      2   1   3     1.406904687175    71.16315611   240.90371833
 C      4   1   2     1.406765857376    71.06755797   279.06487153
 N      1   2   3     2.098081470711   100.27859721   244.77964974
 C      7   1   2     1.473501285675   122.34156197    82.91612497
 C      8   7   1     1.521143100530   113.59144568   154.50705619
 H      9   8   7     1.089180415150   108.89801362   190.38251820
 H      9   8   7     1.090920839280   112.94828426    72.31778709
 H      9   8   7     1.090230139391   112.00560652   308.99973746
 C      8   7   1     1.524143209540   109.69656976   280.15438028
 H      8   7   1     1.091201513186   104.84516580    36.56847538
 H     13   8   7     1.089084837982   109.72765140   176.57503038
 H     13   8   7     1.090832819456   111.26698922   295.74553925
 H     13   8   7     1.088959832672   112.09087298    57.44391516
 C      7   1   2     1.280113045436   115.69991096   265.09989916
 C     18   7   1     1.440557271684   117.43596704   350.59389199
 H     18   7   1     1.086526090023   121.51579520   172.95288371
 C     19  18   7     1.387963235652   121.40862953   329.30855899
 C     21  19  18     1.421792601187   110.40533787   175.60280727
 S     19  18   7     1.709205506272   125.50048713   146.76739237
 C     22  21  19     1.362484519329   113.06731847     1.71049374
 H     21  19  18     1.257512889953   119.35054929   325.44119415
 H     22  21  19     1.080354850995   123.99021575   178.07924827
 H     24  22  21     1.079608073839   127.81158428   177.90113735
 H      2   1   3     1.080494901267   124.01818586   119.91084058
 H      3   2   1     1.080057026678   126.56142823   122.39107427
 H      6   4   1     1.080672150630   125.88811880   243.38687037
 O     25  21  19     1.328571428091   174.01003090   317.91015327
 O      1   2   3     2.040692720058   145.60902228   341.29006481
 C     31  25  21     1.237806345872   114.13583792   130.21617169
 C     33  31  25     1.500595676472   120.04713878   173.44739147
 H     34  33  31     1.086720099440   110.85242728    27.14822630
 H     34  33  31     1.091848595185   108.83056598   268.97972726
 H     34  33  31     1.087435654444   111.66966059   150.46558321
 H      4   1   2     1.079696697674   124.67577412   157.77866811
 H      5   2   1     1.080263275733   126.15691651   240.88057411

---------------------------
INTERNAL COORDINATES (A.U.)
---------------------------
 Ir     0   0   0     0.000000000000     0.00000000     0.00000000
 C      1   0   0     4.073591034958     0.00000000     0.00000000
 C      2   1   0     2.724163958815    68.86801360     0.00000000
 C      1   2   3     4.094506397839    64.54254777    81.06380300
 C      2   1   3     2.658664555291    71.16315611   240.90371833
 C      4   1   2     2.658402204992    71.06755797   279.06487153
 N      1   2   3     3.964799386298   100.27859721   244.77964974
 C      7   1   2     2.784513887907   122.34156197    82.91612497
 C      8   7   1     2.874543870505   113.59144568   154.50705619
 H      9   8   7     2.058252695064   108.89801362   190.38251820
 H      9   8   7     2.061541620026   112.94828426    72.31778709
 H      9   8   7     2.060236386395   112.00560652   308.99973746
 C      8   7   1     2.880213254906   109.69656976   280.15438028
 H      8   7   1     2.062072016841   104.84516580    36.56847538
 H     13   8   7     2.058072080393   109.72765140   176.57503038
 H     13   8   7     2.061375286665   111.26698922   295.74553925
 H     13   8   7     2.057835854590   112.09087298    57.44391516
 C      7   1   2     2.419063076334   115.69991096   265.09989916
 C     18   7   1     2.722258723711   117.43596704   350.59389199
 H     18   7   1     2.053236747504   121.51579520   172.95288371
 C     19  18   7     2.622870399334   121.40862953   329.30855899
 C     21  19  18     2.686798635478   110.40533787   175.60280727
 S     19  18   7     3.229930313443   125.50048713   146.76739237
 C     22  21  19     2.574722603239   113.06731847     1.71049374
 H     21  19  18     2.376354971888   119.35054929   325.44119415
 H     22  21  19     2.041574795833   123.99021575   178.07924827
 H     24  22  21     2.040163591526   127.81158428   177.90113735
 H      2   1   3     2.041839452493   124.01818586   119.91084058
 H      3   2   1     2.041011989438   126.56142823   122.39107427
 H      6   4   1     2.042174405246   125.88811880   243.38687037
 O     25  21  19     2.510636148445   174.01003090   317.91015327
 O      1   2   3     3.856350364397   145.60902228   341.29006481
 C     31  25  21     2.339115000527   114.13583792   130.21617169
 C     33  31  25     2.835714866278   120.04713878   173.44739147
 H     34  33  31     2.053603372169   110.85242728    27.14822630
 H     34  33  31     2.063294824605   108.83056598   268.97972726
 H     34  33  31     2.054955575160   111.66966059   150.46558321
 H      4   1   2     2.040331066302   124.67577412   157.77866811
 H      5   2   1     2.041401743667   126.15691651   240.88057411

---------------------
BASIS SET INFORMATION
---------------------
There are 6 groups of distinct atoms

 Group   1 Type Ir  : 7s6p5d1f contracted to 6s3p2d1f pattern {211111/411/41/1}
 Group   2 Type C   : 8s4p1d contracted to 4s2p1d pattern {5111/31/1}
 Group   3 Type N   : 8s4p1d contracted to 4s2p1d pattern {5111/31/1}
 Group   4 Type H   : 4s contracted to 2s pattern {31}
 Group   5 Type S   : 10s7p1d contracted to 4s3p1d pattern {5311/511/1}
 Group   6 Type O   : 8s4p1d contracted to 4s2p1d pattern {5111/31/1}

Atom   0Ir   basis set group =>   1
Atom   1C    basis set group =>   2
Atom   2C    basis set group =>   2
Atom   3C    basis set group =>   2
Atom   4C    basis set group =>   2
Atom   5C    basis set group =>   2
Atom   6N    basis set group =>   3
Atom   7C    basis set group =>   2
Atom   8C    basis set group =>   2
Atom   9H    basis set group =>   4
Atom  10H    basis set group =>   4
Atom  11H    basis set group =>   4
Atom  12C    basis set group =>   2
Atom  13H    basis set group =>   4
Atom  14H    basis set group =>   4
Atom  15H    basis set group =>   4
Atom  16H    basis set group =>   4
Atom  17C    basis set group =>   2
Atom  18C    basis set group =>   2
Atom  19H    basis set group =>   4
Atom  20C    basis set group =>   2
Atom  21C    basis set group =>   2
Atom  22S    basis set group =>   5
Atom  23C    basis set group =>   2
Atom  24H    basis set group =>   4
Atom  25H    basis set group =>   4
Atom  26H    basis set group =>   4
Atom  27H    basis set group =>   4
Atom  28H    basis set group =>   4
Atom  29H    basis set group =>   4
Atom  30O    basis set group =>   6
Atom  31O    basis set group =>   6
Atom  32C    basis set group =>   2
Atom  33C    basis set group =>   2
Atom  34H    basis set group =>   4
Atom  35H    basis set group =>   4
Atom  36H    basis set group =>   4
Atom  37H    basis set group =>   4
Atom  38H    basis set group =>   4
---------------------------------
AUXILIARY/J BASIS SET INFORMATION
---------------------------------
There are 6 groups of distinct atoms

 Group   1 Type Ir  : 11s5p5d3f3g contracted to 8s5p5d2f3g pattern {41111111/11111/11111/21/111}
 Group   2 Type C   : 12s5p4d2f1g contracted to 6s4p3d1f1g pattern {711111/2111/211/2/1}
 Group   3 Type N   : 12s5p4d2f1g contracted to 6s4p3d1f1g pattern {711111/2111/211/2/1}
 Group   4 Type H   : 5s2p1d contracted to 3s1p1d pattern {311/2/1}
 Group   5 Type S   : 14s5p5d2f1g contracted to 8s4p3d1f1g pattern {71111111/2111/311/2/1}
 Group   6 Type O   : 12s5p4d2f1g contracted to 6s4p3d1f1g pattern {711111/2111/211/2/1}

Atom   0Ir   basis set group =>   1
Atom   1C    basis set group =>   2
Atom   2C    basis set group =>   2
Atom   3C    basis set group =>   2
Atom   4C    basis set group =>   2
Atom   5C    basis set group =>   2
Atom   6N    basis set group =>   3
Atom   7C    basis set group =>   2
Atom   8C    basis set group =>   2
Atom   9H    basis set group =>   4
Atom  10H    basis set group =>   4
Atom  11H    basis set group =>   4
Atom  12C    basis set group =>   2
Atom  13H    basis set group =>   4
Atom  14H    basis set group =>   4
Atom  15H    basis set group =>   4
Atom  16H    basis set group =>   4
Atom  17C    basis set group =>   2
Atom  18C    basis set group =>   2
Atom  19H    basis set group =>   4
Atom  20C    basis set group =>   2
Atom  21C    basis set group =>   2
Atom  22S    basis set group =>   5
Atom  23C    basis set group =>   2
Atom  24H    basis set group =>   4
Atom  25H    basis set group =>   4
Atom  26H    basis set group =>   4
Atom  27H    basis set group =>   4
Atom  28H    basis set group =>   4
Atom  29H    basis set group =>   4
Atom  30O    basis set group =>   6
Atom  31O    basis set group =>   6
Atom  32C    basis set group =>   2
Atom  33C    basis set group =>   2
Atom  34H    basis set group =>   4
Atom  35H    basis set group =>   4
Atom  36H    basis set group =>   4
Atom  37H    basis set group =>   4
Atom  38H    basis set group =>   4
-------------------------
ECP PARAMETER INFORMATION
-------------------------

 Group 1, Type Ir ECP Def2-ECP (replacing 60 core electrons, lmax=3)

Atom   0Ir   ECP group =>   1

------------------------------------------------------------------------------
                           ORCA GTO INTEGRAL CALCULATION
                           -- RI-GTO INTEGRALS CHOSEN --
------------------------------------------------------------------------------
------------------------------------------------------------------------------
                   ___                                                        
                  /   \      - P O W E R E D   B Y -                         
                 /     \                                                     
                 |  |  |   _    _      __       _____    __    __             
                 |  |  |  | |  | |    /  \     |  _  \  |  |  /  |          
                  \  \/   | |  | |   /    \    | | | |  |  | /  /          
                 / \  \   | |__| |  /  /\  \   | |_| |  |  |/  /          
                |  |  |   |  __  | /  /__\  \  |    /   |      \           
                |  |  |   | |  | | |   __   |  |    \   |  |\   \          
                \     /   | |  | | |  |  |  |  | |\  \  |  | \   \       
                 \___/    |_|  |_| |__|  |__|  |_| \__\ |__|  \__/        
                                                                              
                      - O R C A' S   B I G   F R I E N D -                    
                                      &                                       
                       - I N T E G R A L  F E E D E R -                       
                                                                              
 v1 FN, 2020, v2 2021                                                         
------------------------------------------------------------------------------


Reading SHARK input file reaction4-IEIP_ts_guess_scan_3-13_orca.SHARKINP.tmp ... ok
----------------------
SHARK INTEGRAL PACKAGE
----------------------

Number of atoms                             ...     39
Number of basis functions                   ...    358
Number of shells                            ...    184
Maximum angular momentum                    ...      3
Integral batch strategy                     ... SHARK/LIBINT Hybrid
RI-J (if used) integral strategy            ... SPLIT-RIJ (Revised 2003 algorithm where possible)
Printlevel                                  ...      1
Contraction scheme used                     ... SEGMENTED contraction
Coulomb Range Separation                    ... NOT USED
Exchange Range Separation                   ... NOT USED
Finite Nucleus Model                        ... NOT USED
Auxiliary Coulomb fitting basis             ... AVAILABLE
   # of basis functions in Aux-J            ...   1231
   # of shells in Aux-J                     ...    405
   Maximum angular momentum in Aux-J        ...      4
Auxiliary J/K fitting basis                 ... NOT available
Auxiliary Correlation fitting basis         ... NOT available
Auxiliary 'external' fitting basis          ... NOT available
Integral threshold                          ...     2.500000e-11
Primitive cut-off                           ...     2.500000e-12
Primitive pair pre-selection threshold      ...     2.500000e-12

Calculating pre-screening integrals         ... done (  0.1 sec) Dimension = 184
Organizing shell pair data                  ... done (  0.1 sec)
Shell pair information
Total number of shell pairs                 ...     17020
Shell pairs after pre-screening             ...     12943
Total number of primitive shell pairs       ...     60705
Primitive shell pairs kept                  ...     29073
          la=0 lb=0:   4960 shell pairs
          la=1 lb=0:   4246 shell pairs
          la=1 lb=1:    855 shell pairs
          la=2 lb=0:   1741 shell pairs
          la=2 lb=1:    787 shell pairs
          la=2 lb=2:    179 shell pairs
          la=3 lb=0:    111 shell pairs
          la=3 lb=1:     42 shell pairs
          la=3 lb=2:     21 shell pairs
          la=3 lb=3:      1 shell pairs

Calculating one electron integrals          ... done (  0.1 sec)
Calculating ECP integrals                   ... done (  0.7 sec)
Calculating RI/J V-Matrix + Cholesky decomp.... done (  0.1 sec)
Calculating Nuclear repulsion               ... done (  0.0 sec) ENN=   2031.180528426093 Eh

SHARK setup successfully completed in   1.4 seconds

Maximum memory used throughout the entire GTOINT-calculation: 90.4 MB
-------------------------------------------------------------------------------
                                 ORCA SCF
-------------------------------------------------------------------------------

------------
SCF SETTINGS
------------
Hamiltonian:
 Density Functional     Method          .... DFT(GTOs)
 Exchange Functional    Exchange        .... PBE
   PBE kappa parameter   XKappa         ....  1.024500
   PBE mue parameter    XMuePBE         ....  0.123457
 Correlation Functional Correlation     .... PBE
   PBE beta parameter  CBetaPBE         ....  0.030000
 LDA part of GGA corr.  LDAOpt          .... PW91-LDA
 Gradients option       PostSCFGGA      .... off
 Hybrid DFT is turned on
   Fraction HF Exchange ScalHFX         ....  0.420000
   Scaling of DF-GGA-X  ScalDFX         ....  0.580000
   Scaling of DF-GGA-C  ScalDFC         ....  1.000000
   Scaling of DF-LDA-C  ScalLDAC        ....  1.000000
   Perturbative correction              ....  0.000000
   Density functional embedding theory  .... OFF
 RI-approximation to the Coulomb term is turned on
   Number of AuxJ basis functions       .... 1231
   RIJ-ON(X) (HFX calculated with O(N)) .... on
   Number of AuxJ basis functions       .... 1231
   RIJ-COSX (HFX calculated with COS-X)).... on


General Settings:
 Integral files         IntName         .... reaction4-IEIP_ts_guess_scan_3-13_orca
 Hartree-Fock type      HFTyp           .... RHF
 Total Charge           Charge          ....    1
 Multiplicity           Mult            ....    1
 Number of Electrons    NEL             ....  164
 Basis Dimension        Dim             ....  358
 Nuclear Repulsion      ENuc            ....   2031.1805284261 Eh

Convergence Acceleration:
 DIIS                   CNVDIIS         .... on
   Start iteration      DIISMaxIt       ....    12
   Startup error        DIISStart       ....  0.200000
   # of expansion vecs  DIISMaxEq       ....     5
   Bias factor          DIISBfac        ....   1.050
   Max. coefficient     DIISMaxC        ....  10.000
 Trust-Rad. Augm. Hess. CNVTRAH         .... auto
   Auto Start mean grad. ratio tolernc. ....  1.125000
   Auto Start start iteration           ....    20
   Auto Start num. interpolation iter.  ....    10
   Max. Number of Micro iterations      ....    16
   Max. Number of Macro iterations      .... Maxiter - #DIIS iter
   Number of Davidson start vectors     ....     2
   Converg. threshold I  (grad. norm)   ....   1.000e-05
   Converg. threshold II (energy diff.) ....   1.000e-08
   Grad. Scal. Fac. for Micro threshold ....   0.100
   Minimum threshold for Micro iter.    ....   0.010
   NR start threshold (gradient norm)   ....   0.001
   Initial trust radius                 ....   0.400
   Minimum AH scaling param. (alpha)    ....   1.000
   Maximum AH scaling param. (alpha)    .... 1000.000
   Orbital update algorithm             .... Taylor
   White noise on init. David. guess    .... on
   Maximum white noise                  ....   0.010
   Quad. conv. algorithm                .... NR
   COSX micro iterations for RIJONX calc.... off
 SOSCF                  CNVSOSCF        .... off
 Level Shifting         CNVShift        .... on
   Level shift para.    LevelShift      ....    0.2500
   Turn off err/grad.   ShiftErr        ....    0.0010
 Zerner damping         CNVZerner       .... off
 Static damping         CNVDamp         .... on
   Fraction old density DampFac         ....    0.7000
   Max. Damping (<1)    DampMax         ....    0.9800
   Min. Damping (>=0)   DampMin         ....    0.0000
   Turn off err/grad.   DampErr         ....    0.1000
 Fernandez-Rico         CNVRico         .... off

SCF Procedure:
 Maximum # iterations   MaxIter         ....   250
 SCF integral mode      SCFMode         .... Direct
   Integral package                     .... SHARK and LIBINT hybrid scheme
 Reset frequency        DirectResetFreq ....    20
 Integral Threshold     Thresh          ....  2.500e-11 Eh
 Primitive CutOff       TCut            ....  2.500e-12 Eh

Convergence Tolerance:
 Convergence Check Mode ConvCheckMode   .... Total+1el-Energy
 Convergence forced     ConvForced      .... 0
 Energy Change          TolE            ....  1.000e-08 Eh
 1-El. energy change                    ....  1.000e-05 Eh
 DIIS Error             TolErr          ....  5.000e-07


Diagonalization of the overlap matrix:
Smallest eigenvalue                        ... 1.192e-03
Time for diagonalization                   ...    0.016 sec
Threshold for overlap eigenvalues          ... 1.000e-08
Number of eigenvalues below threshold      ... 0
Time for construction of square roots      ...    0.006 sec
Total time needed                          ...    0.023 sec

--------------------
INITIAL GUESS: HCORE
--------------------
                      -----------------
                      INTIAL GUESS DONE 
                      -----------------
-------------------
DFT GRID GENERATION
-------------------

General Integration Accuracy     IntAcc      ... 4.159
Radial Grid Type                 RadialGrid  ... OptM3 with GC (2021)
Angular Grid (max. ang.)         AngularGrid ... 3 (Lebedev-194)
Angular grid pruning method      GridPruning ... 4 (adaptive)
Weight generation scheme         WeightScheme... Becke
Basis function cutoff            BFCut       ... 1.0000e-11
Integration weight cutoff        WCut        ... 1.0000e-14
Angular grids for H and He will be reduced by one unit
Partially contracted basis set               ... off
Rotationally invariant grid construction     ... off

Total number of grid points                  ...    93301
Total number of batches                      ...     1478
Average number of points per batch           ...       63
Average number of grid points per atom       ...     2392
Time for grid setup =    1.859 sec

--------------------
COSX GRID GENERATION
--------------------

GRIDX 1
-------
General Integration Accuracy     IntAcc      ... 3.816
Radial Grid Type                 RadialGrid  ... OptM3 with GC (2021)
Angular Grid (max. ang.)         AngularGrid ... 1 (Lebedev-50)
Angular grid pruning method      GridPruning ... 4 (adaptive)
Weight generation scheme         WeightScheme... Becke
Basis function cutoff            BFCut       ... 1.0000e-11
Integration weight cutoff        WCut        ... 1.0000e-14
Angular grids for H and He will be reduced by one unit
Partially contracted basis set               ... on
Rotationally invariant grid construction     ... off

Total number of grid points                  ...    23182
Total number of batches                      ...      382
Average number of points per batch           ...       60
Average number of grid points per atom       ...      594
UseSFitting                                  ... on

GRIDX 2
-------
General Integration Accuracy     IntAcc      ... 4.020
Radial Grid Type                 RadialGrid  ... OptM3 with GC (2021)
Angular Grid (max. ang.)         AngularGrid ... 2 (Lebedev-110)
Angular grid pruning method      GridPruning ... 4 (adaptive)
Weight generation scheme         WeightScheme... Becke
Basis function cutoff            BFCut       ... 1.0000e-11
Integration weight cutoff        WCut        ... 1.0000e-14
Angular grids for H and He will be reduced by one unit
Partially contracted basis set               ... on
Rotationally invariant grid construction     ... off

Total number of grid points                  ...    50339
Total number of batches                      ...      805
Average number of points per batch           ...       62
Average number of grid points per atom       ...     1291
UseSFitting                                  ... on

GRIDX 3
-------
General Integration Accuracy     IntAcc      ... 4.338
Radial Grid Type                 RadialGrid  ... OptM3 with GC (2021)
Angular Grid (max. ang.)         AngularGrid ... 3 (Lebedev-194)
Angular grid pruning method      GridPruning ... 4 (adaptive)
Weight generation scheme         WeightScheme... Becke
Basis function cutoff            BFCut       ... 1.0000e-11
Integration weight cutoff        WCut        ... 1.0000e-14
Angular grids for H and He will be reduced by one unit
Partially contracted basis set               ... on
Rotationally invariant grid construction     ... off

Total number of grid points                  ...   108827
Total number of batches                      ...     1720
Average number of points per batch           ...       63
Average number of grid points per atom       ...     2790
UseSFitting                                  ... on

Time for X-Grid setup             =    4.281 sec

--------------
SCF ITERATIONS
--------------
ITER       Energy         Delta-E        Max-DP      RMS-DP      [F,P]     Damp
               ***  Starting incremental Fock matrix formation  ***
  0   -857.8515886053   0.00000000000014.80945732  0.14407054  2.5790973 0.7000
  1  -1097.4885903409-239.637001735519 8.29073689  0.10707554  1.4879133 0.7000
  2  -1168.7803862558 -71.291795914998 5.31577705  0.06077387  1.0251752 0.7000
  3  -1196.4933494287 -27.712963172891 3.70796736  0.04063053  0.7233217 0.7000
  4  -1214.4687680536 -17.975418624840 2.60028598  0.03493608  0.4475125 0.7000
  5  -1228.5405381750 -14.071770121456 1.82160259  0.02871757  0.3346654 0.7000
  6  -1239.1929682051 -10.652430030104 1.62266050  0.02728885  0.2803461 0.7000
  7  -1244.9417945715  -5.748826366381 1.61013979  0.02454549  0.2577011 0.7000
  8  -1251.9048812181  -6.963086646597 1.45618060  0.02397439  0.2804447 0.7000
  9  -1254.2127745967  -2.307893378534 1.53877849  0.02274708  0.2994577 0.7000
 10  -1257.8542672306  -3.641492633998 1.41515943  0.02205608  0.3149714 0.7000
 11  -1258.6275074271  -0.773240196483 1.45482965  0.02289627  0.3127553 0.7000
                               ***Turning on DIIS***
 12  -1260.8932757016  -2.265768274465 1.39708959  0.02199631  0.3207051 0.7000
 13  -1260.8377306042   0.055545097372 1.27063717  0.01878302  0.3310934 0.7000
 14  -1268.0894863877  -7.251755783491 0.89071646  0.01341335  0.2688967 0.7000
 15  -1274.5289179162  -6.439431528440 0.62773068  0.00947689  0.2052702 0.7000
 16  -1278.9802262962  -4.451308380054 0.44370804  0.00668355  0.1478424 0.7000
 17  -1281.9715905073  -2.991364211049 0.31330780  0.00471559  0.1018270 0.7000
 18  -1283.9881450012  -2.016554493953 0.72530978  0.01108545  0.0678159 0.0000
 19  -1288.4306389633  -4.442493962045 0.02597908  0.00039448  0.0197255 0.0000
               *** Restarting incremental Fock matrix formation ***
                                   *** Resetting DIIS ***
 20  -1288.4374245853  -0.006785622069 0.02808101  0.00048324  0.0097773 0.0000
 21  -1288.4393088967  -0.001884311381 0.01263230  0.00015991  0.0123411 0.0000
 22  -1288.4405760226  -0.001267125936 0.00488434  0.00006627  0.0022648 0.0000
 23  -1288.4406932079  -0.000117185305 0.00370188  0.00003913  0.0025115 0.0000
 24  -1288.4407377797  -0.000044571748 0.00317064  0.00003388  0.0005393 0.0000
               *** Restarting incremental Fock matrix formation ***
                                   *** Resetting DIIS ***
 25  -1288.4418684433  -0.001130663604 0.00524463  0.00008598  0.0006809 0.0000
 26  -1288.4418847835  -0.000016340212 0.00081654  0.00001028  0.0010662 0.0000
 27  -1288.4418884183  -0.000003634803 0.00088820  0.00000751  0.0002837 0.0000
 28  -1288.4418891895  -0.000000771204 0.00036296  0.00000283  0.0001856 0.0000
 29  -1288.4418893071  -0.000000117597 0.00032030  0.00000201  0.0001245 0.0000
 30  -1288.4418894245  -0.000000117339 0.00011047  0.00000100  0.0000209 0.0000
 31  -1288.4418894388  -0.000000014332 0.00005656  0.00000048  0.0000165 0.0000
 32  -1288.4418894418  -0.000000003062 0.00004597  0.00000036  0.0000062 0.0000
 33  -1288.4418894496  -0.000000007748 0.00000872  0.00000010  0.0000033 0.0000
 34  -1288.4418894546  -0.000000004965 0.00000564  0.00000004  0.0000022 0.0000
                            ***DIIS convergence achieved***

               *****************************************************
               *                     SUCCESS                       *
               *           SCF CONVERGED AFTER  35 CYCLES          *
               *****************************************************

Old exchange energy                            =    -59.654878347 Eh
New exchange energy                            =    -59.654829974 Eh
Exchange energy change after final integration =      0.000048373 Eh
Total energy after final integration           =  -1288.441841090 Eh
Final COS-X integration done in                =    55.396 sec

----------------
TOTAL SCF ENERGY
----------------

Total Energy       :        -1288.44184109 Eh          -35060.28493 eV

Components:
Nuclear Repulsion  :         2031.18052843 Eh           55271.23211 eV
Electronic Energy  :        -3319.62236952 Eh          -90331.51704 eV
One Electron Energy:        -5817.94191642 Eh         -158314.24809 eV
Two Electron Energy:         2498.31954691 Eh           67982.73105 eV
Max COSX asymmetry :            0.00001825 Eh               0.00050 eV

Virial components:
Potential Energy   :        -2501.54996937 Eh          -68070.63531 eV
Kinetic Energy     :         1213.10812828 Eh           33010.35038 eV
Virial Ratio       :            2.06209975


DFT components:
N(Alpha)           :       82.000203507437 electrons
N(Beta)            :       82.000203507437 electrons
N(Total)           :      164.000407014873 electrons
E(X)               :      -79.590253372044 Eh       
E(C)               :       -7.454498992544 Eh       
E(XC)              :      -87.044752364589 Eh       
DFET-embed. en.    :        0.000000000000 Eh       

---------------
SCF CONVERGENCE
---------------

  Last Energy change         ...   -8.6002e-09  Tolerance :   1.0000e-08
  Last MAX-Density change    ...    0.0000e+00  Tolerance :   1.0000e-07
  Last RMS-Density change    ...    0.0000e+00  Tolerance :   5.0000e-09
  Last DIIS Error            ...    8.1864e-07  Tolerance :   5.0000e-07

             **** THE GBW FILE WAS UPDATED (reaction4-IEIP_ts_guess_scan_3-13_orca.gbw) ****
             **** DENSITY reaction4-IEIP_ts_guess_scan_3-13_orca.scfp WAS UPDATED ****
             **** ENERGY FILE WAS UPDATED (reaction4-IEIP_ts_guess_scan_3-13_orca.en.tmp) ****
             **** THE GBW FILE WAS UPDATED (reaction4-IEIP_ts_guess_scan_3-13_orca.gbw) ****
             **** DENSITY reaction4-IEIP_ts_guess_scan_3-13_orca.scfp WAS UPDATED ****
----------------
ORBITAL ENERGIES
----------------

  NO   OCC          E(Eh)            E(eV) 
   0   2.0000     -89.755955     -2442.3837 
   1   2.0000     -19.630621      -534.1764 
   2   2.0000     -19.603343      -533.4341 
   3   2.0000     -14.836204      -403.7136 
   4   2.0000     -10.690880      -290.9136 
   5   2.0000     -10.657589      -290.0077 
   6   2.0000     -10.635055      -289.3946 
   7   2.0000     -10.633423      -289.3502 
   8   2.0000     -10.630741      -289.2772 
   9   2.0000     -10.630539      -289.2717 
  10   2.0000     -10.628837      -289.2254 
  11   2.0000     -10.622775      -289.0604 
  12   2.0000     -10.614835      -288.8443 
  13   2.0000     -10.605450      -288.5890 
  14   2.0000     -10.579149      -287.8733 
  15   2.0000     -10.577009      -287.8150 
  16   2.0000     -10.556007      -287.2435 
  17   2.0000     -10.551113      -287.1104 
  18   2.0000     -10.539135      -286.7844 
  19   2.0000      -8.395380      -228.4499 
  20   2.0000      -6.285390      -171.0341 
  21   2.0000      -6.281807      -170.9366 
  22   2.0000      -6.280173      -170.8922 
  23   2.0000      -4.028600      -109.6238 
  24   2.0000      -2.347739       -63.8852 
  25   2.0000      -2.313767       -62.9608 
  26   2.0000      -2.311534       -62.9000 
  27   2.0000      -1.319763       -35.9126 
  28   2.0000      -1.221706       -33.2443 
  29   2.0000      -1.208918       -32.8963 
  30   2.0000      -1.171959       -31.8906 
  31   2.0000      -1.120477       -30.4897 
  32   2.0000      -1.024006       -27.8646 
  33   2.0000      -0.986652       -26.8482 
  34   2.0000      -0.976912       -26.5831 
  35   2.0000      -0.960827       -26.1454 
  36   2.0000      -0.954753       -25.9802 
  37   2.0000      -0.934705       -25.4346 
  38   2.0000      -0.901795       -24.5391 
  39   2.0000      -0.870291       -23.6818 
  40   2.0000      -0.795886       -21.6572 
  41   2.0000      -0.787786       -21.4367 
  42   2.0000      -0.786429       -21.3998 
  43   2.0000      -0.777820       -21.1656 
  44   2.0000      -0.771011       -20.9803 
  45   2.0000      -0.763981       -20.7890 
  46   2.0000      -0.742402       -20.2018 
  47   2.0000      -0.723678       -19.6923 
  48   2.0000      -0.692322       -18.8390 
  49   2.0000      -0.677447       -18.4343 
  50   2.0000      -0.663300       -18.0493 
  51   2.0000      -0.655105       -17.8263 
  52   2.0000      -0.649100       -17.6629 
  53   2.0000      -0.640149       -17.4194 
  54   2.0000      -0.639678       -17.4065 
  55   2.0000      -0.634700       -17.2711 
  56   2.0000      -0.622615       -16.9422 
  57   2.0000      -0.609163       -16.5762 
  58   2.0000      -0.607610       -16.5339 
  59   2.0000      -0.606267       -16.4974 
  60   2.0000      -0.595045       -16.1920 
  61   2.0000      -0.586739       -15.9660 
  62   2.0000      -0.574658       -15.6372 
  63   2.0000      -0.567570       -15.4444 
  64   2.0000      -0.561833       -15.2882 
  65   2.0000      -0.559062       -15.2129 
  66   2.0000      -0.553189       -15.0530 
  67   2.0000      -0.548362       -14.9217 
  68   2.0000      -0.540365       -14.7041 
  69   2.0000      -0.534151       -14.5350 
  70   2.0000      -0.527659       -14.3583 
  71   2.0000      -0.519764       -14.1435 
  72   2.0000      -0.515487       -14.0271 
  73   2.0000      -0.506783       -13.7903 
  74   2.0000      -0.494693       -13.4613 
  75   2.0000      -0.480253       -13.0683 
  76   2.0000      -0.464771       -12.6471 
  77   2.0000      -0.450306       -12.2534 
  78   2.0000      -0.444455       -12.0942 
  79   2.0000      -0.419316       -11.4102 
  80   2.0000      -0.416461       -11.3325 
  81   2.0000      -0.400700       -10.9036 
  82   0.0000      -0.198359        -5.3976 
  83   0.0000      -0.160684        -4.3724 
  84   0.0000      -0.140628        -3.8267 
  85   0.0000      -0.091362        -2.4861 
  86   0.0000      -0.073850        -2.0095 
  87   0.0000      -0.066573        -1.8115 
  88   0.0000      -0.059541        -1.6202 
  89   0.0000      -0.054808        -1.4914 
  90   0.0000      -0.042854        -1.1661 
  91   0.0000      -0.034080        -0.9274 
  92   0.0000      -0.004209        -0.1145 
  93   0.0000      -0.003397        -0.0924 
  94   0.0000       0.012550         0.3415 
  95   0.0000       0.020700         0.5633 
  96   0.0000       0.027000         0.7347 
  97   0.0000       0.037265         1.0140 
  98   0.0000       0.045099         1.2272 
  99   0.0000       0.059492         1.6188 
 100   0.0000       0.069762         1.8983 
 101   0.0000       0.072990         1.9862 
 102   0.0000       0.075399         2.0517 
 103   0.0000       0.079576         2.1654 
 104   0.0000       0.083422         2.2700 
 105   0.0000       0.090427         2.4607 
 106   0.0000       0.095047         2.5863 
 107   0.0000       0.101977         2.7749 
 108   0.0000       0.106760         2.9051 
 109   0.0000       0.111383         3.0309 
 110   0.0000       0.115043         3.1305 
 111   0.0000       0.120329         3.2743 
 112   0.0000       0.123862         3.3705 
 113   0.0000       0.125931         3.4267 
 114   0.0000       0.128945         3.5088 
 115   0.0000       0.135516         3.6876 
 116   0.0000       0.143422         3.9027 
 117   0.0000       0.153458         4.1758 
 118   0.0000       0.157343         4.2815 
 119   0.0000       0.159502         4.3403 
 120   0.0000       0.169387         4.6093 
 121   0.0000       0.182546         4.9673 
 122   0.0000       0.193788         5.2733 
 123   0.0000       0.200589         5.4583 
 124   0.0000       0.228100         6.2069 
 125   0.0000       0.235417         6.4060 
 126   0.0000       0.257689         7.0121 
 127   0.0000       0.265386         7.2215 
 128   0.0000       0.280169         7.6238 
 129   0.0000       0.292472         7.9586 
 130   0.0000       0.303688         8.2638 
 131   0.0000       0.311499         8.4763 
 132   0.0000       0.322814         8.7842 
 133   0.0000       0.340419         9.2633 
 134   0.0000       0.341957         9.3051 
 135   0.0000       0.353851         9.6288 
 136   0.0000       0.359517         9.7829 
 137   0.0000       0.376303        10.2397 
 138   0.0000       0.381896        10.3919 
 139   0.0000       0.398290        10.8380 
 140   0.0000       0.404773        11.0144 
 141   0.0000       0.419468        11.4143 
 142   0.0000       0.423985        11.5372 
 143   0.0000       0.437372        11.9015 
 144   0.0000       0.443828        12.0772 
 145   0.0000       0.451070        12.2742 
 146   0.0000       0.457854        12.4588 
 147   0.0000       0.461808        12.5664 
 148   0.0000       0.465991        12.6803 
 149   0.0000       0.484297        13.1784 
 150   0.0000       0.487638        13.2693 
 151   0.0000       0.489838        13.3292 
 152   0.0000       0.492251        13.3948 
 153   0.0000       0.499315        13.5870 
 154   0.0000       0.508068        13.8252 
 155   0.0000       0.518005        14.0956 
 156   0.0000       0.528434        14.3794 
[...]

----------------------
LOEWDIN ATOMIC CHARGES
----------------------
   0 Ir:   -0.223129
   1 C :   -0.047751
   2 C :   -0.069716
   3 C :   -0.065864
   4 C :   -0.043456
   5 C :   -0.019005
   6 N :   -0.015819
   7 C :   -0.069106
   8 C :   -0.362712
   9 H :    0.156052
  10 H :    0.133098
  11 H :    0.145335
  12 C :   -0.343971
  13 H :    0.154450
  14 H :    0.151839
  15 H :    0.137524
  16 H :    0.131972
  17 C :    0.035198
  18 C :   -0.200561
  19 H :    0.159742
  20 C :   -0.208680
  21 C :   -0.144281
  22 S :    0.467386
  23 C :   -0.259856
  24 H :    0.321483
  25 H :    0.159475
  26 H :    0.167030
  27 H :    0.184888
  28 H :    0.184445
  29 H :    0.192435
  30 O :   -0.271466
  31 O :   -0.193281
  32 C :    0.166754
  33 C :   -0.373188
  34 H :    0.162648
  35 H :    0.170520
  36 H :    0.155055
  37 H :    0.186644
  38 H :    0.187868

-------------------------------
LOEWDIN REDUCED ORBITAL CHARGES
-------------------------------
  0 Irs       :     2.454597  s :     2.454597
      pz      :     2.241127  p :     6.749806
      px      :     2.240805
      py      :     2.267875
      dz2     :     1.818869  d :     7.930625
      dxz     :     1.703834
      dyz     :     1.315360
      dx2y2   :     1.640586
      dxy     :     1.451975
      f0      :     0.010829  f :     0.088100
      f+1     :     0.003543
      f-1     :     0.013416
      f+2     :     0.016209
      f-2     :     0.016344
      f+3     :     0.011356
      f-3     :     0.016404
  1 C s       :     2.874404  s :     2.874404
      pz      :     1.050709  p :     3.069366
      px      :     1.082570
      py      :     0.936087
      dz2     :     0.026090  d :     0.103980
      dxz     :     0.026393
      dyz     :     0.016841
      dx2y2   :     0.018902
      dxy     :     0.015754
  2 C s       :     2.874138  s :     2.874138
      pz      :     1.040536  p :     3.093534
      px      :     1.081963
      py      :     0.971035
      dz2     :     0.024871  d :     0.102044
      dxz     :     0.028340
      dyz     :     0.017481
      dx2y2   :     0.018213
      dxy     :     0.013138
  3 C s       :     2.873968  s :     2.873968
      pz      :     1.030542  p :     3.091046
      px      :     1.082085
      py      :     0.978419
      dz2     :     0.023280  d :     0.100851
      dxz     :     0.032039
      dyz     :     0.015663
      dx2y2   :     0.015619
      dxy     :     0.014249
  4 C s       :     2.875312  s :     2.875312
      pz      :     1.088027  p :     3.064995
      px      :     1.039146
      py      :     0.937822
      dz2     :     0.022784  d :     0.103149
      dxz     :     0.030775
      dyz     :     0.013003
      dx2y2   :     0.018489
      dxy     :     0.018098
  5 C s       :     2.878113  s :     2.878113
      pz      :     1.059341  p :     3.036005
      px      :     1.034746
      py      :     0.941919
      dz2     :     0.023722  d :     0.104887
      dxz     :     0.031126
      dyz     :     0.015683
      dx2y2   :     0.015741
      dxy     :     0.018615
  6 N s       :     3.121842  s :     3.121842
      pz      :     1.264385  p :     3.796664
      px      :     1.291468
      py      :     1.240811
      dz2     :     0.030154  d :     0.097312
      dxz     :     0.027518
      dyz     :     0.018195
      dx2y2   :     0.011631
      dxy     :     0.009814
  7 C s       :     2.862661  s :     2.862661
      pz      :     1.062746  p :     3.072269
      px      :     0.934221
      py      :     1.075303
      dz2     :     0.027034  d :     0.134176
      dxz     :     0.027402
      dyz     :     0.016078
      dx2y2   :     0.030348
      dxy     :     0.033313
  8 C s       :     2.953469  s :     2.953469
      pz      :     1.133646  p :     3.341768
      px      :     1.125330
      py      :     1.082793
      dz2     :     0.013920  d :     0.067475
      dxz     :     0.017125
      dyz     :     0.007856
      dx2y2   :     0.009775
      dxy     :     0.018799
  9 H s       :     0.843948  s :     0.843948
 10 H s       :     0.866902  s :     0.866902
 11 H s       :     0.854665  s :     0.854665
 12 C s       :     2.953151  s :     2.953151
      pz      :     1.142923  p :     3.322803
      px      :     1.109766
      py      :     1.070114
      dz2     :     0.012921  d :     0.068017
      dxz     :     0.013154
      dyz     :     0.012030
      dx2y2   :     0.012072
      dxy     :     0.017841
 13 H s       :     0.845550  s :     0.845550
 14 H s       :     0.848161  s :     0.848161
 15 H s       :     0.862476  s :     0.862476
 16 H s       :     0.868028  s :     0.868028
 17 C s       :     2.877766  s :     2.877766
      pz      :     1.017535  p :     2.946150
      px      :     1.069651
      py      :     0.858964
      dz2     :     0.039764  d :     0.140885
      dxz     :     0.051225
      dyz     :     0.025331
      dx2y2   :     0.011608
      dxy     :     0.012958
 18 C s       :     2.893955  s :     2.893955
      pz      :     1.043837  p :     3.194570
      px      :     1.090992
      py      :     1.059741
      dz2     :     0.033355  d :     0.112037
      dxz     :     0.031669
      dyz     :     0.016574
      dx2y2   :     0.018479
      dxy     :     0.011959
 19 H s       :     0.840258  s :     0.840258
 20 C s       :     2.928428  s :     2.928428
      pz      :     1.133029  p :     3.192199
      px      :     1.051205
      py      :     1.007965
      dz2     :     0.011037  d :     0.088053
      dxz     :     0.035090
      dyz     :     0.008667
      dx2y2   :     0.016288
      dxy     :     0.016971
 21 C s       :     2.898679  s :     2.898679
      pz      :     1.074220  p :     3.150964
      px      :     1.090929
      py      :     0.985815
      dz2     :     0.027469  d :     0.094638
      dxz     :     0.030664
      dyz     :     0.014051
      dx2y2   :     0.014798
      dxy     :     0.007656
 22 S s       :     5.504283  s :     5.504283
      pz      :     3.256109  p :     9.875358
      px      :     3.092702
      py      :     3.526547
      dz2     :     0.047343  d :     0.152973
      dxz     :     0.030265
      dyz     :     0.020105
      dx2y2   :     0.031038
      dxy     :     0.024223
 23 C s       :     2.965785  s :     2.965785
      pz      :     1.121826  p :     3.208016
      px      :     1.023369
      py      :     1.062821
      dz2     :     0.023346  d :     0.086056
      dxz     :     0.028447
      dyz     :     0.011730
      dx2y2   :     0.012697
      dxy     :     0.009836
 24 H s       :     0.678517  s :     0.678517
 25 H s       :     0.840525  s :     0.840525
 26 H s       :     0.832970  s :     0.832970
 27 H s       :     0.815112  s :     0.815112
 28 H s       :     0.815555  s :     0.815555
 29 H s       :     0.807565  s :     0.807565
 30 O s       :     3.505011  s :     3.505011
      pz      :     1.447920  p :     4.711350
      px      :     1.557027
      py      :     1.706403
      dz2     :     0.016507  d :     0.055104
      dxz     :     0.013842
      dyz     :     0.015968
      dx2y2   :     0.005302
      dxy     :     0.003486
 31 O s       :     3.442524  s :     3.442524
      pz      :     1.694055  p :     4.690961
      px      :     1.608421
      py      :     1.388486
      dz2     :     0.009135  d :     0.059796
      dxz     :     0.004143
      dyz     :     0.016163
      dx2y2   :     0.014889
      dxy     :     0.015466
 32 C s       :     2.812305  s :     2.812305
      pz      :     0.979632  p :     2.700430
      px      :     0.762928
      py      :     0.957870
      dz2     :     0.073183  d :     0.320512
      dxz     :     0.048536
      dyz     :     0.102035
      dx2y2   :     0.047286
      dxy     :     0.049471
 33 C s       :     2.958623  s :     2.958623
      pz      :     1.101232  p :     3.351912
      px      :     1.151839
      py      :     1.098841
      dz2     :     0.004410  d :     0.062653
      dxz     :     0.017117
      dyz     :     0.020638
      dx2y2   :     0.018367
      dxy     :     0.002121
 34 H s       :     0.837352  s :     0.837352
 35 H s       :     0.829480  s :     0.829480
 36 H s       :     0.844945  s :     0.844945
 37 H s       :     0.813356  s :     0.813356
 38 H s       :     0.812132  s :     0.812132


                      *****************************
                      * MAYER POPULATION ANALYSIS *
                      *****************************

  NA   - Mulliken gross atomic population
  ZA   - Total nuclear charge
  QA   - Mulliken gross atomic charge
  VA   - Mayer's total valence
  BVA  - Mayer's bonded valence
  FA   - Mayer's free valence

  ATOM       NA         ZA         QA         VA         BVA        FA
  0 Ir    16.3864    17.0000     0.6136     3.7560     3.7560    -0.0000
  1 C      6.2191     6.0000    -0.2191     3.7035     3.7035     0.0000
  2 C      6.2899     6.0000    -0.2899     3.7398     3.7398     0.0000
  3 C      6.2429     6.0000    -0.2429     3.7345     3.7345     0.0000
  4 C      6.2352     6.0000    -0.2352     3.7222     3.7222     0.0000
  5 C      6.1652     6.0000    -0.1652     3.6921     3.6921     0.0000
  6 N      7.4399     7.0000    -0.4399     3.2143     3.2143     0.0000
  7 C      6.1266     6.0000    -0.1266     3.7052     3.7052    -0.0000
  8 C      6.6837     6.0000    -0.6837     3.6876     3.6876    -0.0000
  9 H      0.7308     1.0000     0.2692     0.8974     0.8974     0.0000
 10 H      0.7748     1.0000     0.2252     0.9105     0.9105     0.0000
 11 H      0.7424     1.0000     0.2576     0.8990     0.8990     0.0000
 12 C      6.6346     6.0000    -0.6346     3.6735     3.6735     0.0000
 13 H      0.7212     1.0000     0.2788     0.8747     0.8747    -0.0000
 14 H      0.7383     1.0000     0.2617     0.8977     0.8977    -0.0000
 15 H      0.7683     1.0000     0.2317     0.9096     0.9096     0.0000
 16 H      0.7703     1.0000     0.2297     0.9066     0.9066    -0.0000
 17 C      5.9298     6.0000     0.0702     3.6520     3.6520     0.0000
 18 C      6.1818     6.0000    -0.1818     3.7147     3.7147     0.0000
 19 H      0.7146     1.0000     0.2854     0.8879     0.8879    -0.0000
 20 C      6.4340     6.0000    -0.4340     3.4833     3.4833    -0.0000
 21 C      6.1479     6.0000    -0.1479     3.7735     3.7735     0.0000
 22 S     15.6886    16.0000     0.3114     2.5702     2.5702    -0.0000
 23 C      6.4245     6.0000    -0.4245     3.7515     3.7515     0.0000
 24 H      0.5059     1.0000     0.4941     0.7293     0.7293     0.0000
 25 H      0.7383     1.0000     0.2617     0.9049     0.9049    -0.0000
 26 H      0.7050     1.0000     0.2950     0.8981     0.8981     0.0000
 27 H      0.7093     1.0000     0.2907     0.9027     0.9027     0.0000
 28 H      0.7097     1.0000     0.2903     0.9059     0.9059     0.0000
 29 H      0.6953     1.0000     0.3047     0.8924     0.8924     0.0000
 30 O      8.4947     8.0000    -0.4947     2.1006     2.1006    -0.0000
 31 O      8.5270     8.0000    -0.5270     2.0938     2.0938    -0.0000
 32 C      5.3706     6.0000     0.6294     3.8971     3.8971     0.0000
 33 C      6.7455     6.0000    -0.7455     3.6626     3.6626    -0.0000
 34 H      0.7276     1.0000     0.2724     0.8939     0.8939    -0.0000
 35 H      0.7283     1.0000     0.2717     0.8930     0.8930     0.0000
 36 H      0.7420     1.0000     0.2580     0.8991     0.8991     0.0000
 37 H      0.7074     1.0000     0.2926     0.9019     0.9019     0.0000
 38 H      0.7026     1.0000     0.2974     0.9004     0.9004     0.0000

  Mayer bond orders larger than 0.100000
B(  0-Ir,  1-C ) :   0.4257 B(  0-Ir,  2-C ) :   0.5267 B(  0-Ir,  3-C ) :   0.4602 
B(  0-Ir,  4-C ) :   0.4530 B(  0-Ir,  5-C ) :   0.4040 B(  0-Ir,  6-N ) :   0.4707 
B(  0-Ir, 20-C ) :   0.2915 B(  0-Ir, 31-O ) :   0.5510 B(  1-C ,  2-C ) :   1.1170 
B(  1-C ,  4-C ) :   1.2393 B(  1-C , 27-H ) :   0.9043 B(  2-C ,  5-C ) :   1.1411 
B(  2-C , 28-H ) :   0.9080 B(  3-C ,  4-C ) :   1.1111 B(  3-C ,  5-C ) :   1.2250 
B(  3-C , 37-H ) :   0.9064 B(  4-C , 38-H ) :   0.8998 B(  5-C , 29-H ) :   0.8981 
B(  6-N ,  7-C ) :   0.8920 B(  6-N , 17-C ) :   1.6645 B(  7-C ,  8-C ) :   0.9913 
B(  7-C , 12-C ) :   0.9683 B(  7-C , 13-H ) :   0.8771 B(  8-C ,  9-H ) :   0.9045 
B(  8-C , 10-H ) :   0.9130 B(  8-C , 11-H ) :   0.9104 B( 12-C , 14-H ) :   0.9072 
B( 12-C , 15-H ) :   0.9156 B( 12-C , 16-H ) :   0.9130 B( 17-C , 18-C ) :   1.0894 
B( 17-C , 19-H ) :   0.8757 B( 18-C , 20-C ) :   1.2943 B( 18-C , 22-S ) :   1.2105 
B( 20-C , 21-C ) :   1.2931 B( 20-C , 24-H ) :   0.4038 B( 21-C , 23-C ) :   1.5358 
B( 21-C , 25-H ) :   0.9058 B( 22-S , 23-C ) :   1.2174 B( 23-C , 26-H ) :   0.8923 
B( 24-H , 30-O ) :   0.2854 B( 30-O , 32-C ) :   1.6122 B( 31-O , 32-C ) :   1.3316 
B( 32-C , 33-C ) :   0.9490 B( 33-C , 34-H ) :   0.9022 B( 33-C , 35-H ) :   0.8951 
B( 33-C , 36-H ) :   0.9084 


------------------
HIRSHFELD ANALYSIS
------------------

Total integrated alpha density =     81.999875814
Total integrated beta density  =     81.999875814

  ATOM     CHARGE      SPIN    
   0 Ir   0.196833    0.000000
   1 C    0.003666    0.000000
   2 C   -0.003166    0.000000
   3 C   -0.003949    0.000000
   4 C    0.003418    0.000000
   5 C    0.020434    0.000000
   6 N   -0.074252    0.000000
   7 C    0.052537    0.000000
   8 C   -0.071369    0.000000
   9 H    0.053032    0.000000
  10 H    0.037718    0.000000
  11 H    0.042395    0.000000
  12 C   -0.071328    0.000000
  13 H    0.044635    0.000000
  14 H    0.050626    0.000000
  15 H    0.036950    0.000000
  16 H    0.029912    0.000000
  17 C    0.098149    0.000000
  18 C   -0.017147    0.000000
  19 H    0.075641    0.000000
  20 C   -0.080749    0.000000
  21 C   -0.037259    0.000000
  22 S    0.119211    0.000000
  23 C   -0.026194    0.000000
  24 H    0.075844    0.000000
  25 H    0.066709    0.000000
  26 H    0.077107    0.000000
  27 H    0.083647    0.000000
  28 H    0.083597    0.000000
  29 H    0.094039    0.000000
  30 O   -0.234617    0.000000
  31 O   -0.249698    0.000000
  32 C    0.250953    0.000000
  33 C   -0.064597    0.000000
  34 H    0.056911    0.000000
  35 H    0.062392    0.000000
  36 H    0.050269    0.000000
  37 H    0.085788    0.000000
  38 H    0.082160    0.000000

  TOTAL   1.000248    0.000000

-------
TIMINGS
-------

Total SCF time: 0 days 0 hours 4 min 5 sec 

Total time                  ....     245.637 sec
Sum of individual times     ....     245.167 sec  ( 99.8%)

Fock matrix formation       ....     237.563 sec  ( 96.7%)
  Split-RI-J                ....      17.224 sec  (  7.3% of F)
  Chain of spheres X        ....     209.581 sec  ( 88.2% of F)
  XC integration            ....      10.745 sec  (  4.5% of F)
    Basis function eval.    ....       4.932 sec  ( 45.9% of XC)
    Density eval.           ....       2.853 sec  ( 26.6% of XC)
    XC-Functional eval.     ....       0.793 sec  (  7.4% of XC)
    XC-Potential eval.      ....       1.724 sec  ( 16.0% of XC)
Diagonalization             ....       0.173 sec  (  0.1%)
Density matrix formation    ....       0.028 sec  (  0.0%)
Population analysis         ....       1.122 sec  (  0.5%)
Initial guess               ....       0.029 sec  (  0.0%)
Orbital Transformation      ....       0.000 sec  (  0.0%)
Orbital Orthonormalization  ....       0.022 sec  (  0.0%)
DIIS solution               ....       0.070 sec  (  0.0%)
Grid generation             ....       6.184 sec  (  2.5%)

Maximum memory used throughout the entire SCF-calculation: 172.7 MB


-------------------------------------------------------------------------------
                          DFT DISPERSION CORRECTION                            
                                                                               
                              DFTD3 V3.1  Rev 1                                
                          USING Becke-Johnson damping                          
-------------------------------------------------------------------------------
The PBEh-3c composite method is recognized
Using three-body term ABC
Active option DFTDOPT                   ...         4   

molecular C6(AA) [au] = 19559.453237 


            DFT-D V3
 parameters
 s6 scaling factor         :     1.0000 
 a1 scaling factor         :     0.4860 
 s8 scaling factor         :     0.0000 
 a2 scaling factor         :     4.5000 
 Damping factor alpha9(ATM):    16.0000 
 ad hoc parameters k1-k3   :    16.0000     1.3333    -4.0000 

 Edisp/kcal,au: -19.108884962730  -0.030451943300 
 E6   /kcal   : -19.448016371 
 E8   /kcal   :  -0.000000000 
 E6(ABC)      :   0.339131408 
 % E8         :   0.000000000 
 % E6(ABC)    :  -1.774731538 

-------------------------   ----------------
Dispersion correction           -0.030451943
-------------------------   ----------------

 ** NOTE ** -> element ir will be treated as co
NOTIFICATION: Different basis set in ORCA and otool_gcp:
ORCA: 358  gCP: 357 
If you are NOT using ECPs, check your basis set inputs!
------------------   -----------------
gCP correction             0.077628374
------------------   -----------------

-------------------------   --------------------
FINAL SINGLE POINT ENERGY     -1288.395155789907
-------------------------   --------------------

                                *** OPTIMIZATION RUN DONE ***

                            ***************************************
                            *     ORCA property calculations      *
                            ***************************************

                                    ---------------------
                                    Active property flags
                                    ---------------------
   (+) Dipole Moment


------------------------------------------------------------------------------
                       ORCA ELECTRIC PROPERTIES CALCULATION
------------------------------------------------------------------------------

Dipole Moment Calculation                       ... on
Quadrupole Moment Calculation                   ... off
Polarizability Calculation                      ... off
GBWName                                         ... reaction4-IEIP_ts_guess_scan_3-13_orca.gbw
Electron density                                ... reaction4-IEIP_ts_guess_scan_3-13_orca.scfp
The origin for moment calculation is the CENTER OF MASS  = ( 0.843657, -0.614448 -0.100196)

-------------
DIPOLE MOMENT
-------------
                                X             Y             Z
Electronic contribution:     35.19271     -71.78335      80.31134
Nuclear contribution   :    -35.81191      70.86169     -80.36181
                        -----------------------------------------
Total Dipole Moment    :     -0.61920      -0.92166      -0.05047
                        -----------------------------------------
Magnitude (a.u.)       :      1.11149
Magnitude (Debye)      :      2.82519



--------------------
Rotational spectrum 
--------------------
 
Rotational constants in cm-1:     0.010539     0.008749     0.008070 
Rotational constants in MHz :   315.939449   262.284957   241.923703 

 Dipole components along the rotational axes: 
x,y,z [a.u.] :     0.168079     0.319010    -1.051379 
x,y,z [Debye]:     0.427223     0.810858    -2.672394 

 

Timings for individual modules:

Sum of individual times         ...     6761.266 sec (= 112.688 min)
GTO integral calculation        ...       22.759 sec (=   0.379 min)   0.3 %
SCF iterations                  ...     5276.759 sec (=  87.946 min)  78.0 %
SCF Gradient evaluation         ...     1458.447 sec (=  24.307 min)  21.6 %
Geometry relaxation             ...        3.302 sec (=   0.055 min)   0.0 %
                             ****ORCA TERMINATED NORMALLY****
TOTAL RUN TIME: 0 days 1 hours 52 minutes 46 seconds 330 msec
