
                                 *****************
                                 * O   R   C   A *
                                 *****************

                                            #,                                       
                                            ###                                      
                                            ####                                     
                                            #####                                    
                                            ######                                   
                                           ########,                                 
                                     ,,################,,,,,                         
                               ,,#################################,,                 
                          ,,##########################################,,             
                       ,#########################################, ''#####,          
                    ,#############################################,,   '####,        
                  ,##################################################,,,,####,       
                ,###########''''           ''''###############################       
              ,#####''   ,,,,##########,,,,          '''####'''          '####       
            ,##' ,,,,###########################,,,                        '##       
           ' ,,###''''                  '''############,,,                           
         ,,##''                                '''############,,,,        ,,,,,,###''
      ,#''                                            '''#######################'''  
     '                                                          ''''####''''         
             ,#######,   #######,   ,#######,      ##                                
            ,#'     '#,  ##    ##  ,#'     '#,    #''#        ######   ,####,        
            ##       ##  ##   ,#'  ##            #'  '#       #        #'  '#        
            ##       ##  #######   ##           ,######,      #####,   #    #        
            '#,     ,#'  ##    ##  '#,     ,#' ,#      #,         ##   #,  ,#        
             '#######'   ##     ##  '#######'  #'      '#     #####' # '####'        



                  #######################################################
                  #                        -***-                        #
                  #          Department of theory and spectroscopy      #
                  #    Directorship and core code : Frank Neese         #
                  #        Max Planck Institute fuer Kohlenforschung    #
                  #                Kaiser Wilhelm Platz 1               #
                  #                 D-45470 Muelheim/Ruhr               #
                  #                      Germany                        #
                  #                                                     #
                  #                  All rights reserved                #
                  #                        -***-                        #
                  #######################################################


                         Program Version 5.0.3 -  RELEASE  -


 With contributions from (in alphabetic order):
   Daniel Aravena         : Magnetic Suceptibility
   Michael Atanasov       : Ab Initio Ligand Field Theory (pilot matlab implementation)
   Alexander A. Auer      : GIAO ZORA, VPT2 properties, NMR spectrum
   Ute Becker             : Parallelization
   Giovanni Bistoni       : ED, misc. LED, open-shell LED, HFLD
   Martin Brehm           : Molecular dynamics
   Dmytro Bykov           : SCF Hessian
   Vijay G. Chilkuri      : MRCI spin determinant printing, contributions to CSF-ICE
   Dipayan Datta          : RHF DLPNO-CCSD density
   Achintya Kumar Dutta   : EOM-CC, STEOM-CC
   Dmitry Ganyushin       : Spin-Orbit,Spin-Spin,Magnetic field MRCI
   Miquel Garcia          : C-PCM and meta-GGA Hessian, CC/C-PCM, Gaussian charge scheme
   Yang Guo               : DLPNO-NEVPT2, F12-NEVPT2, CIM, IAO-localization
   Andreas Hansen         : Spin unrestricted coupled pair/coupled cluster methods
   Benjamin Helmich-Paris : MC-RPA, TRAH-SCF, COSX integrals
   Lee Huntington         : MR-EOM, pCC
   Robert Izsak           : Overlap fitted RIJCOSX, COSX-SCS-MP3, EOM
   Marcus Kettner         : VPT2
   Christian Kollmar      : KDIIS, OOCD, Brueckner-CCSD(T), CCSD density, CASPT2, CASPT2-K
   Simone Kossmann        : Meta GGA functionals, TD-DFT gradient, OOMP2, MP2 Hessian
   Martin Krupicka        : Initial AUTO-CI
   Lucas Lang             : DCDCAS
   Marvin Lechner         : AUTO-CI (C++ implementation), FIC-MRCC
   Dagmar Lenk            : GEPOL surface, SMD
   Dimitrios Liakos       : Extrapolation schemes; Compound Job, initial MDCI parallelization
   Dimitrios Manganas     : Further ROCIS development; embedding schemes
   Dimitrios Pantazis     : SARC Basis sets
   Anastasios Papadopoulos: AUTO-CI, single reference methods and gradients
   Taras Petrenko         : DFT Hessian,TD-DFT gradient, ASA, ECA, R-Raman, ABS, FL, XAS/XES, NRVS
   Peter Pinski           : DLPNO-MP2, DLPNO-MP2 Gradient
   Christoph Reimann      : Effective Core Potentials
   Marius Retegan         : Local ZFS, SOC
   Christoph Riplinger    : Optimizer, TS searches, QM/MM, DLPNO-CCSD(T), (RO)-DLPNO pert. Triples
   Tobias Risthaus        : Range-separated hybrids, TD-DFT gradient, RPA, STAB
   Michael Roemelt        : Original ROCIS implementation
   Masaaki Saitow         : Open-shell DLPNO-CCSD energy and density
   Barbara Sandhoefer     : DKH picture change effects
   Avijit Sen             : IP-ROCIS
   Kantharuban Sivalingam : CASSCF convergence, NEVPT2, FIC-MRCI
   Bernardo de Souza      : ESD, SOC TD-DFT
   Georgi Stoychev        : AutoAux, RI-MP2 NMR, DLPNO-MP2 response
   Willem Van den Heuvel  : Paramagnetic NMR
   Boris Wezisla          : Elementary symmetry handling
   Frank Wennmohs         : Technical directorship


 We gratefully acknowledge several colleagues who have allowed us to
 interface, adapt or use parts of their codes:
   Stefan Grimme, W. Hujo, H. Kruse, P. Pracht,  : VdW corrections, initial TS optimization,
                  C. Bannwarth, S. Ehlert          DFT functionals, gCP, sTDA/sTD-DF
   Ed Valeev, F. Pavosevic, A. Kumar             : LibInt (2-el integral package), F12 methods
   Garnet Chan, S. Sharma, J. Yang, R. Olivares  : DMRG
   Ulf Ekstrom                                   : XCFun DFT Library
   Mihaly Kallay                                 : mrcc  (arbitrary order and MRCC methods)
   Jiri Pittner, Ondrej Demel                    : Mk-CCSD
   Frank Weinhold                                : gennbo (NPA and NBO analysis)
   Christopher J. Cramer and Donald G. Truhlar   : smd solvation model
   Lars Goerigk                                  : TD-DFT with DH, B97 family of functionals
   V. Asgeirsson, H. Jonsson                     : NEB implementation
   FAccTs GmbH                                   : IRC, NEB, NEB-TS, DLPNO-Multilevel, CI-OPT
                                                   MM, QMMM, 2- and 3-layer-ONIOM, Crystal-QMMM,
                                                   LR-CPCM, SF, NACMEs, symmetry and pop. for TD-DFT,
                                                   nearIR, NL-DFT gradient (VV10), updates on ESD,
                                                   ML-optimized integration grids
   S Lehtola, MJT Oliveira, MAL Marques          : LibXC Library
   Liviu Ungur et al                             : ANISO software


 Your calculation uses the libint2 library for the computation of 2-el integrals
 For citations please refer to: http://libint.valeyev.net

 Your ORCA version has been built with support for libXC version: 5.1.0
 For citations please refer to: https://tddft.org/programs/libxc/

 This ORCA versions uses:
   CBLAS   interface :  Fast vector & matrix operations
   LAPACKE interface :  Fast linear algebra routines
   SCALAPACK package :  Parallel linear algebra routines
   Shared memory     :  Shared parallel matrices
   BLAS/LAPACK       :  OpenBLAS 0.3.15  USE64BITINT DYNAMIC_ARCH NO_AFFINITY SkylakeX SINGLE_THREADED
        Core in use  :  SkylakeX
   Copyright (c) 2011-2014, The OpenBLAS Project


Your calculation utilizes the geometrical counterpoise correction gCP
Please cite in your paper:
H.Kruse, S. Grimme J.Chem.Phys., 136, (2012), 154101 
   

Your calculation utilizes the atom-pairwise dispersion correction
with the Becke-Johnson damping scheme (D3BJ)
Cite in your paper:
S.Grimme, S.Ehrlich, L.Goerigk, J Comput Chem, (2011), 32, 1456–1465 
S.Grimme, J.Antony, S.Ehrlich and H.Krieg, J.Chem.Phys., 132, (2010), 154104 
   

Your calculation employs the composite approach PBEh-3c.
Please cite in your paper:
S. Grimme, J. G. Brandenburg, C. Bannwarth, A. Hansen J.Chem.Phys., 143, (2015), 054107 
   

================================================================================

cite the ECPs for Ir [Def2-ECP] as follows:
Ce-Yb(ecp-28): M. Dolg, H. Stoll, H.Preuss, J. Chem. Phys., 1989, 90, 1730-1734.
Y-Cd(ecp-28), Hf-Hg(ecp-46): D. Andrae,U. Haeussermann, M. Dolg, H. Stoll, H. Preuss, Theor. Chim. Acta, 1990, 77, 123-141.
In-Sb(ecp-28), Tl-Bi(ecp-46): B. Metz, H. Stoll, M. Dolg, J. Chem. Phys., 2000, 113, 2563-2569.
Te-Xe(ecp-28), Po-Rn(ecp-46): K. A. Peterson, D. Figgen, E. Goll, H. Stoll, M. Dolg, J. Chem. Phys., 2003, 119, 11113-11123.
Rb(ecp-28), Cs(ecp-46): T. Leininger, A. Nicklass, W. Kuechle, H. Stoll, M. Dolg, A. Bergner, Chem. Phys. Lett., 1996, 255, 274-280.
Sr(ecp-28), Ba(ecp-46): M. Kaupp, P. V. Schleyer, H. Stoll and H. Preuss, J. Chem. Phys., 1991, 94, 1360-1366.
La(ecp-46): M. Dolg, H. Stoll, A. Savin, H. Preuss, Theor. Chim. Acta, 1989, 75, 173-194.
Lu(ecp-28): X. Cao, M. Dolg, J. Chem. Phys., 2001, 115, 7348-7355.

ECP parameters for Ir [Def2-ECP] have been obtained from:
TURBOMOLE (7.0.2)

----- Orbital basis set information -----
Your calculation utilizes the basis: def2-mSVP

----- AuxJ basis set information -----
Your calculation utilizes the auxiliary basis: def2/J
   F. Weigend, Phys. Chem. Chem. Phys. 8, 1057 (2006).

================================================================================
                                        WARNINGS
                       Please study these warnings very carefully!
================================================================================


WARNING: Geometry Optimization
  ===> : Switching off AutoStart
         For restart on a previous wavefunction, please use MOREAD

WARNING: No Hueckel Guess possible with ECP basis!
  ===> : Switching to HCORE guess!

INFO   : the flag for use of the SHARK integral package has been found!

================================================================================
                                       INPUT FILE
================================================================================
NAME = reaction4-IEIP_ts_guess_scan_13-3_orca.inp
|  1> ! Opt PBEh-3c
|  2> %geom Constraints
|  3> { B 0 20 2.0428571428571427 C }
|  4> { B 24 30 1.457142857142857 C }
|  5>     end
|  6> end
|  7> %output 
|  8> xyzfile=True 
|  9> end 
| 10> %scf 
| 11> maxiter 250 
| 12> end
| 13> %output
| 14> Print[P_Hirshfeld] = 1
| 15> end
| 16> % maxcore
| 17> 4000
| 18> *xyz 1 1
| 19> Ir   0.62340234  -0.71428488   0.39933811 
| 20> C    0.14304627  -2.83622540   0.33178854 
| 21> C   -0.02571547  -2.37904418   1.68583559 
| 22> C    2.18487264  -2.06063712   1.08362728 
| 23> C    1.49410431  -2.65163148  -0.03174428 
| 24> C    1.23956756  -1.92444999   2.13430550 
| 25> N   -1.06766327   0.13447464  -0.52104056 
| 26> C   -2.33212433   0.35371846   0.19584246 
| 27> C   -3.13798076   1.53377755  -0.32760765 
| 28> H   -3.96228903   1.72760999   0.35694480 
| 29> H   -3.58397811   1.34174154  -1.30448689 
| 30> H   -2.54024614   2.44368315  -0.38551791 
| 31> C   -3.15110239  -0.93269119   0.17542598 
| 32> H   -2.03886970   0.56786049   1.22462722 
| 33> H   -4.05195066  -0.80685300   0.77456995 
| 34> H   -3.45845933  -1.18696094  -0.83974610 
| 35> H   -2.59917543  -1.77623666   0.58648639 
| 36> C   -0.91831235   0.46773004  -1.74978849 
| 37> C    0.40209900   0.27455069  -2.27097871 
| 38> H   -1.72285917   0.89526355  -2.33908761 
| 39> C    1.43744199   0.08586481  -1.34631478 
| 40> C    2.65568217  -0.18939889  -2.05080345 
| 41> S    0.89253553   0.13236735  -3.88363652 
| 42> C    2.50737332  -0.19164256  -3.40197185 
| 43> H    1.59966113   1.11809772  -0.66506190 
| 44> H    3.61332973  -0.31598331  -1.56678483 
| 45> H    3.26859386  -0.34260861  -4.15218919 
| 46> H   -0.62411242  -3.26640605  -0.29545872 
| 47> H   -0.92807577  -2.42611287   2.27604842 
| 48> H    1.43810582  -1.47769926   3.09833604 
| 49> O    1.68216202   2.35084695   0.13407826 
| 50> O    0.55866944   1.01595479   1.51753066 
| 51> C    1.10031814   2.13147052   1.20508720 
| 52> C    1.02977106   3.21187663   2.24674116 
| 53> H    1.02516174   4.19461532   1.78225339 
| 54> H    1.91787053   3.15043992   2.87815400 
| 55> H    0.15905408   3.09571898   2.88708350 
| 56> H    3.23864686  -1.83637122   1.14335529 
| 57> H    1.93081487  -2.91323550  -0.98450014 
| 58> *
| 59> 
| 60>                          ****END OF INPUT****
================================================================================

                       *****************************
                       * Geometry Optimization Run *
                       *****************************

Geometry optimization settings:
Update method            Update   .... BFGS
Choice of coordinates    CoordSys .... Z-matrix Internals
Initial Hessian          InHess   .... Almoef's Model

Convergence Tolerances:
Energy Change            TolE     ....  5.0000e-06 Eh
Max. Gradient            TolMAXG  ....  3.0000e-04 Eh/bohr
RMS Gradient             TolRMSG  ....  1.0000e-04 Eh/bohr
Max. Displacement        TolMAXD  ....  4.0000e-03 bohr
RMS Displacement         TolRMSD  ....  2.0000e-03 bohr
Strict Convergence                ....  False
------------------------------------------------------------------------------
                        ORCA OPTIMIZATION COORDINATE SETUP
------------------------------------------------------------------------------

The optimization will be done in new redundant internal coordinates
Making redundant internal coordinates   ...  (new redundants) done
Evaluating the initial hessian          ...  (Almloef) done
Evaluating the coordinates              ...  done
Calculating the B-matrix                .... done
Calculating the G-matrix                .... done
Diagonalizing the G-matrix              .... done
Imposing constraints:
 Iter   0:  RMS(Cart)=    0.0184541023 RMS(Int)=    0.0067464098
 Iter   1:  RMS(Cart)=    0.0020825467 RMS(Int)=    0.0007929899
 Iter   2:  RMS(Cart)=    0.0002443059 RMS(Int)=    0.0000928816
 Iter   3:  RMS(Cart)=    0.0000285699 RMS(Int)=    0.0000108338
 Iter   4:  RMS(Cart)=    0.0000033300 RMS(Int)=    0.0000012612
 Iter   5:  RMS(Cart)=    0.0000003875 RMS(Int)=    0.0000001467
 Iter   6:  RMS(Cart)=    0.0000000451 RMS(Int)=    0.0000000171
CONVERGED
Small eigenvalue found = 1.407e-02
Small eigenvalue found = 2.182e-02
The first mode is                       ....  280
The number of degrees of freedom        ....  111
Storing new coordinates                 .... done

    -----------------------------------------------------------------
                    Redundant Internal Coordinates


    -----------------------------------------------------------------
         Definition                    Initial Value    Approx d2E/dq
    -----------------------------------------------------------------
      1. B(C   1,Ir  0)                  2.1765         0.080833   
      2. B(C   2,C   1)                  1.4390         0.521725   
      3. B(C   2,Ir  0)                  2.2015         0.073712   
      4. B(C   3,Ir  0)                  2.1721         0.082129   
      5. B(C   4,C   3)                  1.4387         0.522024   
      6. B(C   4,Ir  0)                  2.1672         0.083662   
      7. B(C   4,C   1)                  1.4116         0.577906   
      8. B(C   5,Ir  0)                  2.2028         0.073319   
      9. B(C   5,C   2)                  1.4183         0.565188   
     10. B(C   5,C   3)                  1.4209         0.559834   
     11. B(N   6,Ir  0)                  2.1046         0.094524   
     12. B(C   7,N   6)                  1.4700         0.417126   
     13. B(C   8,C   7)                  1.5218         0.384967   
     14. B(H   9,C   8)                  1.0889         0.361580   
     15. B(H  10,C   8)                  1.0909         0.358898   
     16. B(H  11,C   8)                  1.0902         0.359816   
     17. B(C  12,C   7)                  1.5251         0.380332   
     18. B(H  13,C   7)                  1.0910         0.358796   
     19. B(H  14,C  12)                  1.0892         0.361172   
     20. B(H  15,C  12)                  1.0907         0.359133   
     21. B(H  16,C  12)                  1.0887         0.361888   
     22. B(C  17,N   6)                  1.2770         0.832516   
     23. B(C  18,C  17)                  1.4279         0.534216   
     24. B(H  19,C  17)                  1.0851         0.366695   
     25. B(C  20,Ir  0)                  2.0429         0.112907 C 
     26. B(C  20,C  18)                  1.4019         0.600257   
     27. B(C  21,C  20)                  1.4347         0.531662   
     28. B(S  22,C  18)                  1.6915         0.556379   
     29. B(C  23,C  21)                  1.3591         0.699426   
     30. B(C  23,S  22)                  1.7152         0.508605   
     31. B(H  24,C  20)                  1.2478         0.202001   
     32. B(H  25,C  21)                  1.0805         0.372949   
     33. B(H  26,C  23)                  1.0794         0.374419   
     34. B(H  27,C   1)                  1.0803         0.373177   
     35. B(H  28,C   2)                  1.0793         0.374580   
     36. B(H  29,C   5)                  1.0809         0.372333   
     37. B(O  30,H  24)                  1.4571         0.079436 C 
     38. B(O  31,Ir  0)                  2.0607         0.110681   
     39. B(C  32,O  30)                  1.2386         0.976524   
     40. B(C  32,O  31)                  1.2785         0.841893   
     41. B(C  33,C  32)                  1.5024         0.413393   
     42. B(H  34,C  33)                  1.0870         0.364105   
     43. B(H  35,C  33)                  1.0914         0.358239   
     44. B(H  36,C  33)                  1.0871         0.364023   
     45. B(H  37,C   3)                  1.0790         0.374910   
     46. B(H  38,C   4)                  1.0802         0.373259   
     47. A(C   1,Ir  0,N   6)          101.6320         0.247642   
     48. A(C   1,Ir  0,C   3)           64.1876         0.243781   
     49. A(C   2,Ir  0,N   6)          108.8004         0.244364   
     50. A(C   2,Ir  0,C   5)           37.5705         0.236740   
     51. A(N   6,Ir  0,O  31)           82.7134         0.258118   
     52. A(C  20,Ir  0,O  31)           98.3118         0.266328   
     53. A(C   2,Ir  0,C  20)          153.3605         0.251906   
     54. A(C   2,Ir  0,O  31)          107.9810         0.250014   
     55. A(C   1,Ir  0,C   5)           63.3238         0.239856   
     56. A(C   3,Ir  0,C   4)           38.7259         0.244991   
     57. A(C   2,Ir  0,C   3)           63.9020         0.240584   
     58. A(C   3,Ir  0,C  20)          102.6344         0.255943   
     59. A(C   4,Ir  0,N   6)          126.6162         0.248881   
     60. A(C   1,Ir  0,O  31)          145.9346         0.253410   
     61. A(C   5,Ir  0,O  31)           92.4463         0.249819   
     62. A(C   5,Ir  0,C  20)          139.4265         0.251709   
     63. A(C   4,Ir  0,C  20)           91.0475         0.256643   
     64. A(C   2,Ir  0,C   4)           63.8415         0.241220   
     65. A(C   1,Ir  0,C  20)          115.7015         0.255343   
     66. A(C   3,Ir  0,N   6)          164.8954         0.248214   
     67. A(C   1,Ir  0,C   4)           37.9273         0.244430   
     68. A(C   4,Ir  0,O  31)          150.5798         0.254695   
     69. A(C   1,Ir  0,C   2)           38.3711         0.240039   
     70. A(C   3,Ir  0,O  31)          111.8540         0.254003   
     71. A(C   5,Ir  0,N   6)          142.1989         0.244176   
     72. A(C   3,Ir  0,C   5)           37.8976         0.240401   
     73. A(N   6,Ir  0,C  20)           78.1978         0.260106   
     74. A(C   4,Ir  0,C   5)           63.4885         0.241035   
     75. A(C   2,C   1,H  27)          126.1106         0.344856   
     76. A(Ir  0,C   1,C   2)           71.7551         0.310853   
     77. A(C   2,C   1,C   4)          108.2692         0.415608   
     78. A(C   4,C   1,H  27)          125.6092         0.350848   
     79. A(Ir  0,C   1,H  27)          124.2682         0.266864   
     80. A(Ir  0,C   1,C   4)           70.6773         0.316048   
     81. A(Ir  0,C   2,C   1)           69.8738         0.306270   
     82. A(Ir  0,C   2,C   5)           71.2617         0.310241   
     83. A(C   1,C   2,C   5)          107.1338         0.413967   
     84. A(Ir  0,C   2,H  28)          126.8071         0.263337   
     85. A(C   5,C   2,H  28)          125.9927         0.349754   
     86. A(C   1,C   2,H  28)          126.7771         0.345074   
     87. A(C   4,C   3,C   5)          107.0401         0.413310   
     88. A(Ir  0,C   3,C   4)           70.4511         0.311682   
     89. A(Ir  0,C   3,C   5)           72.2200         0.315234   
     90. A(Ir  0,C   3,H  37)          126.2093         0.267692   
     91. A(C   5,C   3,H  37)          126.1288         0.349245   
     92. A(C   4,C   3,H  37)          126.6599         0.345158   
     93. A(Ir  0,C   4,C   1)           71.3954         0.317822   
     94. A(Ir  0,C   4,H  38)          123.6738         0.268263   
     95. A(Ir  0,C   4,C   3)           70.8230         0.312616   
     96. A(C   3,C   4,H  38)          126.0691         0.344903   
     97. A(C   1,C   4,C   3)          108.3068         0.415651   
     98. A(C   1,C   4,H  38)          125.6240         0.350861   
     99. A(Ir  0,C   5,H  29)          121.7827         0.262889   
    100. A(Ir  0,C   5,C   2)           71.1678         0.309973   
    101. A(C   3,C   5,H  29)          125.2671         0.348839   
    102. A(Ir  0,C   5,C   3)           69.8824         0.309497   
    103. A(C   2,C   5,C   3)          109.2231         0.419194   
    104. A(C   2,C   5,H  29)          125.3698         0.349399   
    105. A(Ir  0,N   6,C  17)          115.3752         0.340578   
    106. A(C   7,N   6,C  17)          121.9973         0.420695   
    107. A(Ir  0,N   6,C   7)          122.6203         0.304151   
    108. A(C   8,C   7,H  13)          108.3299         0.325730   
    109. A(C  12,C   7,H  13)          108.8155         0.325082   
    110. A(N   6,C   7,C   8)          113.7913         0.369874   
    111. A(N   6,C   7,C  12)          109.2435         0.369105   
    112. A(C   8,C   7,C  12)          111.4135         0.366346   
    113. A(N   6,C   7,H  13)          104.9476         0.328084   
    114. A(C   7,C   8,H   9)          108.8240         0.326144   
    115. A(C   7,C   8,H  10)          112.8301         0.325745   
    116. A(H   9,C   8,H  10)          106.5470         0.290874   
    117. A(C   7,C   8,H  11)          112.0318         0.325882   
    118. A(H   9,C   8,H  11)          107.4504         0.290991   
    119. A(H  10,C   8,H  11)          108.8747         0.290651   
    120. A(C   7,C  12,H  14)          109.8356         0.325435   
    121. A(C   7,C  12,H  15)          111.1251         0.325132   
    122. A(H  14,C  12,H  15)          107.8091         0.290852   
    123. A(C   7,C  12,H  16)          112.1031         0.325541   
    124. A(H  14,C  12,H  16)          107.5257         0.291202   
    125. A(H  15,C  12,H  16)          108.2800         0.290943   
    126. A(N   6,C  17,C  18)          114.2546         0.442710   
    127. A(N   6,C  17,H  19)          122.7724         0.369945   
    128. A(C  18,C  17,H  19)          122.9412         0.345212   
    129. A(C  17,C  18,S  22)          128.6473         0.437407   
    130. A(C  20,C  18,S  22)          113.9756         0.446721   
    131. A(C  17,C  18,C  20)          117.2254         0.420194   
    132. A(C  18,C  20,C  21)          108.9727         0.419835   
    133. A(Ir  0,C  20,H  24)           84.8883         0.255956   
    134. A(C  18,C  20,H  24)          110.2122         0.318851   
    135. A(C  21,C  20,H  24)          108.5414         0.312624   
    136. A(Ir  0,C  20,C  18)          109.1226         0.335999   
    137. A(Ir  0,C  20,C  21)          131.5183         0.329308   
    138. A(C  20,C  21,C  23)          113.4774         0.431485   
    139. A(C  20,C  21,H  25)          123.6678         0.345916   
    140. A(C  23,C  21,H  25)          122.7272         0.362369   
    141. A(C  18,S  22,C  23)           91.1586         0.457744   
    142. A(C  21,C  23,S  22)          112.4151         0.451869   
    143. A(C  21,C  23,H  26)          127.8935         0.362612   
    144. A(S  22,C  23,H  26)          119.6692         0.361449   
    145. A(Ir  0,O  31,C  32)          125.6974         0.350388   
    146. A(O  30,C  32,O  31)          124.3145         0.492137   
    147. A(O  30,C  32,C  33)          119.6582         0.435040   
    148. A(O  31,C  32,C  33)          116.0132         0.423614   
    149. A(C  32,C  33,H  34)          110.7364         0.330379   
    150. A(C  32,C  33,H  35)          108.8092         0.329493   
    151. A(H  34,C  33,H  35)          107.5510         0.291108   
    152. A(C  32,C  33,H  36)          111.6648         0.330367   
    153. A(H  34,C  33,H  36)          110.1776         0.291842   
    154. A(H  35,C  33,H  36)          107.7566         0.291098   
    155. D(C   2,C   1,Ir  0,N   6)   -105.6678         0.001680   
    156. D(C   4,C   1,Ir  0,C   2)   -117.7340         0.001680   
    157. D(H  27,C   1,Ir  0,C   3)   -158.4009         0.001680   
    158. D(C   4,C   1,Ir  0,C  20)     54.2223         0.001680   
    159. D(C   2,C   1,Ir  0,C   3)     79.8444         0.001680   
    160. D(C   4,C   1,Ir  0,N   6)    136.5982         0.001680   
    161. D(H  27,C   1,Ir  0,C   2)    121.7547         0.001680   
    162. D(C   2,C   1,Ir  0,O  31)    -11.4665         0.001680   
    163. D(H  27,C   1,Ir  0,N   6)     16.0869         0.001680   
    164. D(C   2,C   1,Ir  0,C  20)    171.9563         0.001680   
    165. D(C   4,C   1,Ir  0,C   3)    -37.8896         0.001680   
    166. D(H  27,C   1,Ir  0,C  20)    -66.2890         0.001680   
    167. D(H  27,C   1,Ir  0,C   4)   -120.5113         0.001680   
    168. D(H  27,C   1,Ir  0,O  31)    110.2882         0.001680   
    169. D(C   2,C   1,Ir  0,C   5)     37.4033         0.001680   
    170. D(H  27,C   1,Ir  0,C   5)    159.1580         0.001680   
    171. D(C   4,C   1,Ir  0,C   5)    -80.3307         0.001680   
    172. D(C   4,C   1,Ir  0,O  31)   -129.2005         0.001680   
    173. D(C   2,C   1,Ir  0,C   4)    117.7340         0.001680   
    174. D(H  28,C   2,Ir  0,C   5)    121.4157         0.001650   
    175. D(H  28,C   2,C   1,C   4)   -176.8917         0.021607   
    176. D(C   5,C   2,C   1,H  27)    178.5363         0.021607   
    177. D(C   1,C   2,Ir  0,N   6)     85.0173         0.001650   
    178. D(C   1,C   2,Ir  0,C   3)    -80.6535         0.001650   
    179. D(Ir  0,C   2,C   1,C   4)     61.5936         0.021607   
    180. D(H  28,C   2,Ir  0,C   1)   -121.4782         0.001650   
    181. D(H  28,C   2,Ir  0,C  20)   -137.8102         0.001650   
    182. D(C   1,C   2,Ir  0,C   5)   -117.1061         0.001650   
    183. D(C   5,C   2,Ir  0,C   3)     36.4527         0.001650   
    184. D(H  28,C   2,Ir  0,C   4)   -158.7882         0.001650   
    185. D(H  28,C   2,Ir  0,C   3)    157.8684         0.001650   
    186. D(Ir  0,C   2,C   1,H  27)   -119.5631         0.021607   
    187. D(C   1,C   2,Ir  0,C   4)    -37.3101         0.001650   
    188. D(C   5,C   2,Ir  0,C   1)    117.1061         0.001650   
    189. D(C   1,C   2,Ir  0,C  20)    -16.3320         0.001650   
    190. D(C   5,C   2,Ir  0,O  31)    -69.6170         0.001650   
    191. D(C   5,C   2,Ir  0,N   6)   -157.8766         0.001650   
    192. D(H  28,C   2,C   1,Ir  0)    121.5147         0.021607   
    193. D(C   5,C   2,C   1,Ir  0)    -61.9005         0.021607   
    194. D(C   1,C   2,Ir  0,O  31)    173.2769         0.001650   
    195. D(C   5,C   2,Ir  0,C  20)    100.7741         0.001650   
    196. D(H  28,C   2,Ir  0,N   6)    -36.4609         0.001650   
    197. D(C   5,C   2,Ir  0,C   4)     79.7961         0.001650   
    198. D(C   5,C   2,C   1,C   4)     -0.3069         0.021607   
    199. D(H  28,C   2,Ir  0,O  31)     51.7988         0.001650   
    200. D(H  28,C   2,C   1,H  27)      1.9516         0.021607   
    201. D(C   4,C   3,Ir  0,N   6)     15.9492         0.001686   
    202. D(C   5,C   3,Ir  0,C   1)    -79.0170         0.001686   
    203. D(H  37,C   3,Ir  0,C   5)   -122.1816         0.001686   
    204. D(H  37,C   3,Ir  0,C   2)   -158.3238         0.001686   
    205. D(C   4,C   3,Ir  0,O  31)   -179.9959         0.001686   
    206. D(H  37,C   3,Ir  0,N   6)    137.6362         0.001686   
    207. D(C   5,C   3,Ir  0,C  20)    168.3217         0.001686   
    208. D(H  37,C   3,Ir  0,C   1)    158.8014         0.001686   
    209. D(H  37,C   3,Ir  0,C   4)    121.6870         0.001686   
    210. D(C   4,C   3,Ir  0,C   5)    116.1314         0.001686   
    211. D(C   5,C   3,Ir  0,C   4)   -116.1314         0.001686   
    212. D(C   5,C   3,Ir  0,O  31)     63.8726         0.001686   
    213. D(C   4,C   3,Ir  0,C  20)    -75.5469         0.001686   
    214. D(C   4,C   3,Ir  0,C   1)     37.1144         0.001686   
    215. D(C   4,C   3,Ir  0,C   2)     79.9892         0.001686   
    216. D(C   5,C   3,Ir  0,N   6)   -100.1822         0.001686   
    217. D(C   5,C   3,Ir  0,C   2)    -36.1422         0.001686   
    218. D(H  37,C   3,Ir  0,C  20)     46.1401         0.001686   
    219. D(H  37,C   3,Ir  0,O  31)    -58.3089         0.001686   
    220. D(C   1,C   4,Ir  0,C  20)   -133.0172         0.001693   
    221. D(C   1,C   4,Ir  0,C   2)     37.7440         0.001693   
    222. D(C   3,C   4,Ir  0,C   2)    -80.1586         0.001693   
    223. D(C   1,C   4,Ir  0,C   5)     79.8583         0.001693   
    224. D(C   1,C   4,Ir  0,N   6)    -56.9792         0.001693   
    225. D(C   3,C   4,Ir  0,C   5)    -38.0443         0.001693   
    226. D(C   3,C   4,Ir  0,C   1)   -117.9026         0.001693   
    227. D(C   1,C   4,Ir  0,O  31)    117.9103         0.001693   
    228. D(C   1,C   4,Ir  0,C   3)    117.9026         0.001693   
    229. D(H  38,C   4,C   1,Ir  0)   -118.5884         0.026758   
    230. D(C   3,C   4,Ir  0,C  20)    109.0802         0.001693   
    231. D(C   3,C   4,Ir  0,O  31)      0.0077         0.001693   
    232. D(Ir  0,C   4,C   1,C   2)    -62.2812         0.026758   
    233. D(H  38,C   4,Ir  0,C   1)    120.9449         0.001693   
    234. D(H  38,C   4,Ir  0,C   3)   -121.1525         0.001693   
    235. D(H  38,C   4,Ir  0,C   5)   -159.1968         0.001693   
    236. D(H  38,C   4,Ir  0,N   6)     63.9656         0.001693   
    237. D(H  38,C   4,Ir  0,C  20)    -12.0723         0.001693   
    238. D(H  38,C   4,Ir  0,C   2)    158.6889         0.001693   
    239. D(Ir  0,C   4,C   1,H  27)    118.8682         0.026758   
    240. D(H  38,C   4,Ir  0,O  31)   -121.1448         0.001693   
    241. D(C   3,C   4,C   1,Ir  0)     61.5462         0.026758   
    242. D(C   3,C   4,C   1,C   2)     -0.7350         0.026758   
    243. D(H  38,C   4,C   1,C   2)    179.1304         0.026758   
    244. D(C   3,C   4,Ir  0,N   6)   -174.8818         0.001693   
    245. D(C   3,C   4,C   1,H  27)   -179.5856         0.026758   
    246. D(Ir  0,C   4,C   3,H  37)   -121.1423         0.021632   
    247. D(Ir  0,C   4,C   3,C   5)     63.4005         0.021632   
    248. D(H  38,C   4,C   3,C   5)   -178.3746         0.021632   
    249. D(C   1,C   4,C   3,C   5)      1.4901         0.021632   
    250. D(C   1,C   4,C   3,H  37)    176.9473         0.021632   
    251. D(H  38,C   4,C   3,Ir  0)    118.2249         0.021632   
    252. D(H  38,C   4,C   1,H  27)      0.2799         0.026758   
    253. D(H  38,C   4,C   3,H  37)     -2.9174         0.021632   
    254. D(C   1,C   4,C   3,Ir  0)    -61.9104         0.021632   
    255. D(H  29,C   5,C   2,H  28)     -6.2547         0.025532   
    256. D(C   2,C   5,Ir  0,C   4)    -80.8190         0.001649   
    257. D(C   2,C   5,Ir  0,C   3)   -119.6961         0.001649   
    258. D(C   3,C   5,C   2,C   1)      1.2511         0.025532   
    259. D(C   2,C   5,Ir  0,C  20)   -137.3743         0.001649   
    260. D(C   2,C   5,Ir  0,O  31)    116.8216         0.001649   
    261. D(H  29,C   5,Ir  0,O  31)     -3.7193         0.001649   
    262. D(C   3,C   5,Ir  0,C   2)    119.6961         0.001649   
    263. D(C   3,C   5,Ir  0,C   4)     38.8770         0.001649   
    264. D(C   3,C   5,Ir  0,N   6)    155.2632         0.001649   
    265. D(C   3,C   5,Ir  0,C  20)    -17.6782         0.001649   
    266. D(C   3,C   5,Ir  0,O  31)   -123.4823         0.001649   
    267. D(H  29,C   5,Ir  0,C   1)   -158.7400         0.001649   
    268. D(H  29,C   5,Ir  0,C   2)   -120.5410         0.001649   
    269. D(H  29,C   5,Ir  0,C   3)    119.7630         0.001649   
    270. D(H  29,C   5,Ir  0,C   4)    158.6400         0.001649   
    271. D(H  29,C   5,Ir  0,N   6)    -84.9739         0.001649   
    272. D(C   3,C   5,Ir  0,C   1)     81.4970         0.001649   
    273. D(H  29,C   5,Ir  0,C  20)    102.0848         0.001649   
    274. D(Ir  0,C   5,C   2,C   1)     61.0006         0.025532   
    275. D(Ir  0,C   5,C   2,H  28)   -122.3804         0.025532   
    276. D(C   2,C   5,Ir  0,N   6)     35.5671         0.001649   
    277. D(C   3,C   5,C   2,Ir  0)    -59.7495         0.025532   
    278. D(H  29,C   5,C   2,Ir  0)    116.1257         0.025532   
    279. D(C   3,C   5,C   2,H  28)    177.8701         0.025532   
    280. D(C   2,C   5,Ir  0,C   1)    -38.1990         0.001649   
    281. D(H  29,C   5,C   2,C   1)    177.1263         0.025532   
    282. D(H  29,C   5,C   3,H  37)      6.9359         0.025026   
    283. D(Ir  0,C   5,C   3,H  37)    122.2749         0.025026   
    284. D(C   2,C   5,C   3,Ir  0)     60.5414         0.025026   
    285. D(C   2,C   5,C   3,C   4)     -1.6955         0.025026   
    286. D(C   2,C   5,C   3,H  37)   -177.1837         0.025026   
    287. D(H  29,C   5,C   3,Ir  0)   -115.3390         0.025026   
    288. D(Ir  0,C   5,C   3,C   4)    -62.2369         0.025026   
    289. D(H  29,C   5,C   3,C   4)   -177.5759         0.025026   
    290. D(C   7,N   6,Ir  0,C   1)     80.4138         0.001765   
    291. D(C   7,N   6,Ir  0,C   2)     41.2623         0.001765   
    292. D(C   7,N   6,Ir  0,C   3)     99.7948         0.001765   
    293. D(C   7,N   6,Ir  0,C   4)    112.1617         0.001765   
    294. D(C   7,N   6,Ir  0,C   5)     19.2599         0.001765   
    295. D(C   7,N   6,Ir  0,C  20)   -165.4237         0.001765   
    296. D(C   7,N   6,Ir  0,O  31)    -65.3100         0.001765   
    297. D(C  17,N   6,Ir  0,C   1)   -100.5464         0.001765   
    298. D(C  17,N   6,Ir  0,C   2)   -139.6979         0.001765   
    299. D(C  17,N   6,Ir  0,C   3)    -81.1654         0.001765   
    300. D(C  17,N   6,Ir  0,C   4)    -68.7985         0.001765   
    301. D(C  17,N   6,Ir  0,C   5)   -161.7003         0.001765   
    302. D(C  17,N   6,Ir  0,C  20)     13.6161         0.001765   
    303. D(C  17,N   6,Ir  0,O  31)    113.7298         0.001765   
    304. D(C   8,C   7,N   6,Ir  0)    150.5680         0.014838   
    305. D(C   8,C   7,N   6,C  17)    -28.4090         0.014838   
    306. D(C  12,C   7,N   6,Ir  0)    -84.2259         0.014838   
    307. D(C  12,C   7,N   6,C  17)     96.7971         0.014838   
    308. D(H  13,C   7,N   6,Ir  0)     32.3107         0.014838   
    309. D(H  13,C   7,N   6,C  17)   -146.6663         0.014838   
    310. D(H   9,C   8,C   7,N   6)   -170.4824         0.011796   
    311. D(H   9,C   8,C   7,C  12)     65.4759         0.011796   
    312. D(H   9,C   8,C   7,H  13)    -54.1858         0.011796   
    313. D(H  10,C   8,C   7,N   6)     71.4845         0.011796   
    314. D(H  10,C   8,C   7,C  12)    -52.5572         0.011796   
    315. D(H  10,C   8,C   7,H  13)   -172.2189         0.011796   
    316. D(H  11,C   8,C   7,N   6)    -51.8144         0.011796   
    317. D(H  11,C   8,C   7,C  12)   -175.8560         0.011796   
    318. D(H  11,C   8,C   7,H  13)     64.4823         0.011796   
    319. D(H  14,C  12,C   7,N   6)    175.2842         0.011528   
    320. D(H  14,C  12,C   7,C   8)    -58.1416         0.011528   
    321. D(H  14,C  12,C   7,H  13)     61.2320         0.011528   
    322. D(H  15,C  12,C   7,N   6)    -65.5108         0.011528   
    323. D(H  15,C  12,C   7,C   8)     61.0634         0.011528   
    324. D(H  15,C  12,C   7,H  13)   -179.5631         0.011528   
    325. D(H  16,C  12,C   7,N   6)     55.8110         0.011528   
    326. D(H  16,C  12,C   7,C   8)   -177.6148         0.011528   
    327. D(H  16,C  12,C   7,H  13)    -58.2412         0.011528   
    328. D(C  18,C  17,N   6,Ir  0)     -3.2015         0.059683   
    329. D(C  18,C  17,N   6,C   7)    175.8449         0.059683   
    330. D(H  19,C  17,N   6,Ir  0)    178.7963         0.059683   
    331. D(H  19,C  17,N   6,C   7)     -2.1573         0.059683   
    332. D(C  20,C  18,C  17,N   6)    -15.7506         0.019488   
    333. D(C  20,C  18,C  17,H  19)    162.2478         0.019488   
    334. D(S  22,C  18,C  17,N   6)    159.4675         0.019488   
    335. D(S  22,C  18,C  17,H  19)    -22.5340         0.019488   
    336. D(C  18,C  20,Ir  0,C   1)     77.1794         0.001849   
    337. D(H  24,C  20,C  18,C  17)    -65.3233         0.026984   
    338. D(C  18,C  20,Ir  0,C   3)    144.3904         0.001849   
    339. D(C  18,C  20,Ir  0,C   4)    107.0969         0.001849   
    340. D(Ir  0,C  20,C  18,C  17)     26.2331         0.026984   
    341. D(C  18,C  20,Ir  0,N   6)    -20.1762         0.001849   
    342. D(C  18,C  20,Ir  0,O  31)   -100.8837         0.001849   
    343. D(H  24,C  20,Ir  0,C   4)   -143.2624         0.001849   
    344. D(C  21,C  20,Ir  0,C   2)    -51.6935         0.001849   
    345. D(C  21,C  20,Ir  0,C   3)      4.3472         0.001849   
    346. D(C  21,C  20,Ir  0,C   4)    -32.9462         0.001849   
    347. D(C  21,C  20,Ir  0,C   5)     15.3677         0.001849   
    348. D(C  21,C  20,Ir  0,N   6)   -160.2193         0.001849   
    349. D(C  21,C  20,Ir  0,O  31)    119.0731         0.001849   
    350. D(H  24,C  20,Ir  0,C   1)   -173.1799         0.001849   
    351. D(H  24,C  20,Ir  0,C   2)   -162.0097         0.001849   
    352. D(C  21,C  20,Ir  0,C   1)    -62.8637         0.001849   
    353. D(H  24,C  20,Ir  0,C   3)   -105.9689         0.001849   
    354. D(H  24,C  20,Ir  0,C   5)    -94.9485         0.001849   
    355. D(H  24,C  20,Ir  0,N   6)     89.4645         0.001849   
    356. D(C  18,C  20,Ir  0,C   5)    155.4108         0.001849   
    357. D(H  24,C  20,Ir  0,O  31)      8.7569         0.001849   
    358. D(Ir  0,C  20,C  18,S  22)   -149.6808         0.026984   
    359. D(C  21,C  20,C  18,C  17)    175.6708         0.026984   
    360. D(C  18,C  20,Ir  0,C   2)     88.3496         0.001849   
    361. D(C  21,C  20,C  18,S  22)     -0.2431         0.026984   
    362. D(H  24,C  20,C  18,S  22)    118.7627         0.026984   
    363. D(C  23,C  21,C  20,Ir  0)    140.3325         0.020932   
    364. D(C  23,C  21,C  20,C  18)      0.2460         0.020932   
    365. D(C  23,C  21,C  20,H  24)   -119.7974         0.020932   
    366. D(H  25,C  21,C  20,Ir  0)    -43.6794         0.020932   
    367. D(H  25,C  21,C  20,C  18)    176.2341         0.020932   
    368. D(H  25,C  21,C  20,H  24)     56.1907         0.020932   
    369. D(C  23,S  22,C  18,C  17)   -175.2031         0.006140   
    370. D(C  23,S  22,C  18,C  20)      0.1436         0.006140   
    371. D(S  22,C  23,C  21,C  20)     -0.1475         0.034449   
    372. D(S  22,C  23,C  21,H  25)   -176.1785         0.034449   
    373. D(H  26,C  23,C  21,C  20)    178.1108         0.034449   
    374. D(H  26,C  23,C  21,H  25)      2.0798         0.034449   
    375. D(C  21,C  23,S  22,C  18)      0.0045         0.005341   
    376. D(H  26,C  23,S  22,C  18)   -178.4137         0.005341   
    377. D(C  32,O  31,Ir  0,C   1)    173.0772         0.001843   
    378. D(C  32,O  31,Ir  0,C   2)    165.6227         0.001843   
    379. D(C  32,O  31,Ir  0,C   3)     97.2237         0.001843   
    380. D(C  32,O  31,Ir  0,C   4)     97.2185         0.001843   
    381. D(C  32,O  31,Ir  0,C   5)    130.7272         0.001843   
    382. D(C  32,O  31,Ir  0,N   6)    -86.9149         0.001843   
    383. D(C  32,O  31,Ir  0,C  20)    -10.0394         0.001843   
    384. D(O  30,C  32,O  31,Ir  0)      4.4488         0.055319   
    385. D(C  33,C  32,O  31,Ir  0)   -174.1719         0.055319   
    386. D(H  34,C  33,C  32,O  30)     30.1927         0.012650   
    387. D(H  34,C  33,C  32,O  31)   -151.1183         0.012650   
    388. D(H  35,C  33,C  32,O  30)    -87.8148         0.012650   
    389. D(H  35,C  33,C  32,O  31)     90.8742         0.012650   
    390. D(H  36,C  33,C  32,O  30)    153.3712         0.012650   
    391. D(H  36,C  33,C  32,O  31)    -27.9398         0.012650   
    -----------------------------------------------------------------

Number of atoms                         .... 39
Number of degrees of freedom            .... 391

         *************************************************************
         *                GEOMETRY OPTIMIZATION CYCLE   1            *
         *************************************************************
---------------------------------
CARTESIAN COORDINATES (ANGSTROEM)
---------------------------------
  Ir     0.625723   -0.709340    0.388800
  C      0.148424   -2.831667    0.316802
  C     -0.018987   -2.377981    1.672060
  C      2.191258   -2.054335    1.065707
  C      1.498790   -2.643936   -0.049071
  C      1.247286   -1.922021    2.119477
  N     -1.070270    0.138246   -0.524740
  C     -2.333378    0.354625    0.195406
  C     -3.142085    1.534373   -0.324359
  H     -3.965079    1.726003    0.362398
  H     -3.590074    1.343225   -1.300504
  H     -2.545748    2.445198   -0.382247
  C     -3.150615   -0.932891    0.174897
  H     -2.038042    0.567587    1.223843
  H     -4.050253   -0.809230    0.776318
  H     -3.459966   -1.186020   -0.839957
  H     -2.596565   -1.776304    0.583379
  C     -0.923363    0.471995   -1.748522
  C      0.396312    0.273220   -2.256381
  H     -1.724894    0.901568   -2.340460
  C      1.421285    0.078289   -1.319996
  C      2.643078   -0.202617   -2.017532
  S      0.898512    0.129083   -3.865136
  C      2.506534   -0.204027   -3.369784
  H      1.582707    1.109729   -0.636511
  H      3.596610   -0.333706   -1.526547
  H      3.273518   -0.358637   -4.113420
  H     -0.619180   -3.261581   -0.310082
  H     -0.920380   -2.427975    2.263518
  H      1.447038   -1.477098    3.084104
  O      1.679400    2.349969    0.122251
  O      0.560347    1.017965    1.510652
  C      1.100985    2.132958    1.195765
  C      1.034042    3.214819    2.236154
  H      1.028244    4.196919    1.770327
  H      1.924122    3.153999    2.864842
  H      0.165318    3.099792    2.879411
  H      3.244816   -1.828473    1.123265
  H      1.933902   -2.902535   -1.003384

----------------------------
CARTESIAN COORDINATES (A.U.)
----------------------------
  NO LB      ZA    FRAG     MASS         X           Y           Z
   0 Ir   17.0000*   0   192.220    1.182444   -1.340458    0.734726
   1 C     6.0000    0    12.011    0.280481   -5.351074    0.598669
   2 C     6.0000    0    12.011   -0.035880   -4.493734    3.159735
   3 C     6.0000    0    12.011    4.140877   -3.882130    2.013894
   4 C     6.0000    0    12.011    2.832303   -4.996315   -0.092730
   5 C     6.0000    0    12.011    2.357029   -3.632094    4.005231
   6 N     7.0000    0    14.007   -2.022516    0.261247   -0.991614
   7 C     6.0000    0    12.011   -4.409445    0.670145    0.369263
   8 C     6.0000    0    12.011   -5.937679    2.899544   -0.612950
   9 H     1.0000    0     1.008   -7.492914    3.261672    0.684833
  10 H     1.0000    0     1.008   -6.784256    2.538327   -2.457596
  11 H     1.0000    0     1.008   -4.810767    4.620755   -0.722342
  12 C     6.0000    0    12.011   -5.953800   -1.762908    0.330507
  13 H     1.0000    0     1.008   -3.851341    1.072583    2.312728
  14 H     1.0000    0     1.008   -7.653869   -1.529223    1.467028
  15 H     1.0000    0     1.008   -6.538388   -2.241254   -1.587289
  16 H     1.0000    0     1.008   -4.906798   -3.356728    1.102426
  17 C     6.0000    0    12.011   -1.744903    0.891941   -3.304228
  18 C     6.0000    0    12.011    0.748921    0.516311   -4.263942
  19 H     1.0000    0     1.008   -3.259576    1.703716   -4.422828
  20 C     6.0000    0    12.011    2.685839    0.147946   -2.494432
  21 C     6.0000    0    12.011    4.994694   -0.382891   -3.812582
  22 S    16.0000    0    32.060    1.697941    0.243932   -7.304048
  23 C     6.0000    0    12.011    4.736663   -0.385554   -6.367969
  24 H     1.0000    0     1.008    2.990883    2.097085   -1.202832
  25 H     1.0000    0     1.008    6.796607   -0.630613   -2.884756
  26 H     1.0000    0     1.008    6.186053   -0.677725   -7.773238
  27 H     1.0000    0     1.008   -1.170081   -6.163495   -0.585971
  28 H     1.0000    0     1.008   -1.739266   -4.588209    4.277430
  29 H     1.0000    0     1.008    2.734506   -2.791310    5.828113
  30 O     8.0000    0    15.999    3.173606    4.440799    0.231022
  31 O     8.0000    0    15.999    1.058902    1.923674    2.854718
  32 C     6.0000    0    12.011    2.080560    4.030707    2.259668
  33 C     6.0000    0    12.011    1.954056    6.075128    4.225718
  34 H     1.0000    0     1.008    1.943100    7.931028    3.345433
  35 H     1.0000    0     1.008    3.636063    5.960194    5.413766
  36 H     1.0000    0     1.008    0.312405    5.857759    5.441298
  37 H     1.0000    0     1.008    6.131813   -3.455314    2.122664
  38 H     1.0000    0     1.008    3.654546   -5.484996   -1.896122
* core charge reduced due to ECP

--------------------------------
INTERNAL COORDINATES (ANGSTROEM)
--------------------------------
 Ir     0   0   0     0.000000000000     0.00000000     0.00000000
 C      1   0   0     2.176680148486     0.00000000     0.00000000
 C      2   1   0     1.439075608306    71.75858345     0.00000000
 C      1   2   3     2.172350229616    64.16501732    79.78417363
 C      2   1   3     1.411236639960    70.68315949   242.29923892
 C      3   2   1     1.417294000468   107.15371297   298.08219953
 N      1   2   3     2.104089474406   101.67165014   254.24799298
 C      7   1   2     1.469983295561   122.55961005    80.36333022
 C      8   7   1     1.521822610991   113.79131409   150.57721055
 H      9   8   7     1.088883462813   108.82397478   189.51763873
 H      9   8   7     1.090909948111   112.82999929    71.48463265
 H      9   8   7     1.090214875642   112.03174867   308.18558061
 C      8   7   1     1.525120219206   109.24346005   275.78324935
 H      8   7   1     1.090987245314   104.94755661    32.32009694
 H     13   8   7     1.089190686892   109.83555231   175.28418313
 H     13   8   7     1.090731748114   111.12533785   294.48918730
 H     13   8   7     1.088651913975   112.10305371    55.81104117
 C      7   1   2     1.281868298388   115.50106278   259.41921248
 C     18   7   1     1.432635208243   114.90092587   356.65957289
 H     18   7   1     1.085059417994   122.45538551   178.66402401
 C     19  18   7     1.400907153132   117.33529601   344.10586173
 C     21  19  18     1.433939861662   109.23584654   175.68015416
 S     19  18   7     1.691570070759   128.71004317   159.38396844
 C     22  21  19     1.359285324795   113.32732528     0.31124333
 H     21  19  18     1.247367354222   110.19038332   294.73821116
 H     22  21  19     1.080456611377   123.73900544   176.31790396
 H     24  22  21     1.079385712342   127.89197796   178.10847552
 H      2   1   3     1.080290226029   124.25860238   121.77394211
 H      3   2   1     1.079268621471   126.78009659   121.50131141
 H      6   3   2     1.080906350010   125.36326892   177.12741078
 O     25  21  19     1.471428576670   175.71608126    35.46005733
 O      1   2   3     2.061134212724   145.91981352   348.53258628
 C     31  25  21     1.238437914590   107.15348914    65.60480245
 C     33  31  25     1.502430439457   119.62093996   179.37123077
 H     34  33  31     1.086989175260   110.73667309    30.19238615
 H     34  33  31     1.091410698347   108.80897240   272.18476439
 H     34  33  31     1.087050583602   111.66478516   153.37081779
 H      4   1   2     1.079028607507   126.19912865   158.81261794
 H      5   2   1     1.080229839090   125.63077616   241.41930797

---------------------------
INTERNAL COORDINATES (A.U.)
---------------------------
 Ir     0   0   0     0.000000000000     0.00000000     0.00000000
 C      1   0   0     4.113329361781     0.00000000     0.00000000
 C      2   1   0     2.719458785705    71.75858345     0.00000000
 C      1   2   3     4.105147000936    64.16501732    79.78417363
 C      2   1   3     2.666850759680    70.68315949   242.29923892
 C      3   2   1     2.678297512135   107.15371297   298.08219953
 N      1   2   3     3.976152867894   101.67165014   254.24799298
 C      7   1   2     2.777865850050   122.55961005    80.36333022
 C      8   7   1     2.875827959182   113.79131409   150.57721055
 H      9   8   7     2.057691536472   108.82397478   189.51763873
 H      9   8   7     2.061521038699   112.82999929    71.48463265
 H      9   8   7     2.060207542090   112.03174867   308.18558061
 C      8   7   1     2.882059535605   109.24346005   275.78324935
 H      8   7   1     2.061667109244   104.94755661    32.32009694
 H     13   8   7     2.058272105843   109.83555231   175.28418313
 H     13   8   7     2.061184289508   111.12533785   294.48918730
 H     13   8   7     2.057253972582   112.10305371    55.81104117
 C      7   1   2     2.422380023710   115.50106278   259.41921248
 C     18   7   1     2.707288193393   114.90092587   356.65957289
 H     18   7   1     2.050465139041   122.45538551   178.66402401
 C     19  18   7     2.647330858471   117.33529601   344.10586173
 C     21  19  18     2.709753631054   109.23584654   175.68015416
 S     19  18   7     3.196604170071   128.71004317   159.38396844
 C     22  21  19     2.568677001720   113.32732528     0.31124333
 H     21  19  18     2.357182687873   110.19038332   294.73821116
 H     22  21  19     2.041767095086   123.73900544   176.31790396
 H     24  22  21     2.039743389193   127.89197796   178.10847552
 H      2   1   3     2.041452672347   124.25860238   121.77394211
 H      3   2   1     2.039522119514   126.78009659   121.50131141
 H      6   3   2     2.042616977935   125.36326892   177.12741078
 O     25  21  19     2.780597035532   175.71608126    35.46005733
 O      1   2   3     3.894979187303   145.91981352   348.53258628
 C     31  25  21     2.340308492439   107.15348914    65.60480245
 C     33  31  25     2.839182065840   119.62093996   179.37123077
 H     34  33  31     2.054111851779   110.73667309    30.19238615
 H     34  33  31     2.062467319508   108.80897240   272.18476439
 H     34  33  31     2.054227896728   111.66478516   153.37081779
 H      4   1   2     2.039068558854   126.19912865   158.81261794
 H      5   2   1     2.041338557570   125.63077616   241.41930797

---------------------
BASIS SET INFORMATION
---------------------
There are 6 groups of distinct atoms

 Group   1 Type Ir  : 7s6p5d1f contracted to 6s3p2d1f pattern {211111/411/41/1}
 Group   2 Type C   : 8s4p1d contracted to 4s2p1d pattern {5111/31/1}
 Group   3 Type N   : 8s4p1d contracted to 4s2p1d pattern {5111/31/1}
 Group   4 Type H   : 4s contracted to 2s pattern {31}
 Group   5 Type S   : 10s7p1d contracted to 4s3p1d pattern {5311/511/1}
 Group   6 Type O   : 8s4p1d contracted to 4s2p1d pattern {5111/31/1}

Atom   0Ir   basis set group =>   1
Atom   1C    basis set group =>   2
Atom   2C    basis set group =>   2
Atom   3C    basis set group =>   2
Atom   4C    basis set group =>   2
Atom   5C    basis set group =>   2
Atom   6N    basis set group =>   3
Atom   7C    basis set group =>   2
Atom   8C    basis set group =>   2
Atom   9H    basis set group =>   4
Atom  10H    basis set group =>   4
Atom  11H    basis set group =>   4
Atom  12C    basis set group =>   2
Atom  13H    basis set group =>   4
Atom  14H    basis set group =>   4
Atom  15H    basis set group =>   4
Atom  16H    basis set group =>   4
Atom  17C    basis set group =>   2
Atom  18C    basis set group =>   2
Atom  19H    basis set group =>   4
Atom  20C    basis set group =>   2
Atom  21C    basis set group =>   2
Atom  22S    basis set group =>   5
Atom  23C    basis set group =>   2
Atom  24H    basis set group =>   4
Atom  25H    basis set group =>   4
Atom  26H    basis set group =>   4
Atom  27H    basis set group =>   4
Atom  28H    basis set group =>   4
Atom  29H    basis set group =>   4
Atom  30O    basis set group =>   6
Atom  31O    basis set group =>   6
Atom  32C    basis set group =>   2
Atom  33C    basis set group =>   2
Atom  34H    basis set group =>   4
Atom  35H    basis set group =>   4
Atom  36H    basis set group =>   4
Atom  37H    basis set group =>   4
Atom  38H    basis set group =>   4
---------------------------------
AUXILIARY/J BASIS SET INFORMATION
---------------------------------
There are 6 groups of distinct atoms

 Group   1 Type Ir  : 11s5p5d3f3g contracted to 8s5p5d2f3g pattern {41111111/11111/11111/21/111}
 Group   2 Type C   : 12s5p4d2f1g contracted to 6s4p3d1f1g pattern {711111/2111/211/2/1}
 Group   3 Type N   : 12s5p4d2f1g contracted to 6s4p3d1f1g pattern {711111/2111/211/2/1}
 Group   4 Type H   : 5s2p1d contracted to 3s1p1d pattern {311/2/1}
 Group   5 Type S   : 14s5p5d2f1g contracted to 8s4p3d1f1g pattern {71111111/2111/311/2/1}
 Group   6 Type O   : 12s5p4d2f1g contracted to 6s4p3d1f1g pattern {711111/2111/211/2/1}

Atom   0Ir   basis set group =>   1
Atom   1C    basis set group =>   2
Atom   2C    basis set group =>   2
Atom   3C    basis set group =>   2
Atom   4C    basis set group =>   2
Atom   5C    basis set group =>   2
Atom   6N    basis set group =>   3
Atom   7C    basis set group =>   2
Atom   8C    basis set group =>   2
Atom   9H    basis set group =>   4
Atom  10H    basis set group =>   4
Atom  11H    basis set group =>   4
Atom  12C    basis set group =>   2
Atom  13H    basis set group =>   4
Atom  14H    basis set group =>   4
Atom  15H    basis set group =>   4
Atom  16H    basis set group =>   4
Atom  17C    basis set group =>   2
Atom  18C    basis set group =>   2
Atom  19H    basis set group =>   4
Atom  20C    basis set group =>   2
Atom  21C    basis set group =>   2
Atom  22S    basis set group =>   5
Atom  23C    basis set group =>   2
Atom  24H    basis set group =>   4
Atom  25H    basis set group =>   4
Atom  26H    basis set group =>   4
Atom  27H    basis set group =>   4
Atom  28H    basis set group =>   4
Atom  29H    basis set group =>   4
Atom  30O    basis set group =>   6
Atom  31O    basis set group =>   6
Atom  32C    basis set group =>   2
Atom  33C    basis set group =>   2
Atom  34H    basis set group =>   4
Atom  35H    basis set group =>   4
Atom  36H    basis set group =>   4
Atom  37H    basis set group =>   4
Atom  38H    basis set group =>   4
-------------------------
ECP PARAMETER INFORMATION
-------------------------

 Group 1, Type Ir ECP Def2-ECP (replacing 60 core electrons, lmax=3)

Atom   0Ir   ECP group =>   1

------------------------------------------------------------------------------
                           ORCA GTO INTEGRAL CALCULATION
                           -- RI-GTO INTEGRALS CHOSEN --
------------------------------------------------------------------------------
------------------------------------------------------------------------------
                   ___                                                        
                  /   \      - P O W E R E D   B Y -                         
                 /     \                                                     
                 |  |  |   _    _      __       _____    __    __             
                 |  |  |  | |  | |    /  \     |  _  \  |  |  /  |          
                  \  \/   | |  | |   /    \    | | | |  |  | /  /          
                 / \  \   | |__| |  /  /\  \   | |_| |  |  |/  /          
                |  |  |   |  __  | /  /__\  \  |    /   |      \           
                |  |  |   | |  | | |   __   |  |    \   |  |\   \          
                \     /   | |  | | |  |  |  |  | |\  \  |  | \   \       
                 \___/    |_|  |_| |__|  |__|  |_| \__\ |__|  \__/        
                                                                              
                      - O R C A' S   B I G   F R I E N D -                    
                                      &                                       
                       - I N T E G R A L  F E E D E R -                       
                                                                              
 v1 FN, 2020, v2 2021                                                         
------------------------------------------------------------------------------


Reading SHARK input file reaction4-IEIP_ts_guess_scan_13-3_orca.SHARKINP.tmp ... ok
----------------------
SHARK INTEGRAL PACKAGE
----------------------

Number of atoms                             ...     39
Number of basis functions                   ...    358
Number of shells                            ...    184
Maximum angular momentum                    ...      3
Integral batch strategy                     ... SHARK/LIBINT Hybrid
RI-J (if used) integral strategy            ... SPLIT-RIJ (Revised 2003 algorithm where possible)
Printlevel                                  ...      1
Contraction scheme used                     ... SEGMENTED contraction
Coulomb Range Separation                    ... NOT USED
Exchange Range Separation                   ... NOT USED
Finite Nucleus Model                        ... NOT USED
Auxiliary Coulomb fitting basis             ... AVAILABLE
   # of basis functions in Aux-J            ...   1231
   # of shells in Aux-J                     ...    405
   Maximum angular momentum in Aux-J        ...      4
Auxiliary J/K fitting basis                 ... NOT available
Auxiliary Correlation fitting basis         ... NOT available
Auxiliary 'external' fitting basis          ... NOT available
Integral threshold                          ...     2.500000e-11
Primitive cut-off                           ...     2.500000e-12
Primitive pair pre-selection threshold      ...     2.500000e-12

Calculating pre-screening integrals         ... done (  0.1 sec) Dimension = 184
Organizing shell pair data                  ... done (  0.1 sec)
Shell pair information
Total number of shell pairs                 ...     17020
Shell pairs after pre-screening             ...     13003
Total number of primitive shell pairs       ...     60705
Primitive shell pairs kept                  ...     29257
          la=0 lb=0:   4978 shell pairs
          la=1 lb=0:   4265 shell pairs
          la=1 lb=1:    859 shell pairs
          la=2 lb=0:   1759 shell pairs
          la=2 lb=1:    791 shell pairs
          la=2 lb=2:    176 shell pairs
          la=3 lb=0:    112 shell pairs
          la=3 lb=1:     41 shell pairs
          la=3 lb=2:     21 shell pairs
          la=3 lb=3:      1 shell pairs

Calculating one electron integrals          ... done (  0.1 sec)
Calculating ECP integrals                   ... done (  0.7 sec)
Calculating RI/J V-Matrix + Cholesky decomp.... done (  0.1 sec)
Calculating Nuclear repulsion               ... done (  0.0 sec) ENN=   2041.851142475942 Eh

SHARK setup successfully completed in   1.3 seconds

Maximum memory used throughout the entire GTOINT-calculation: 91.0 MB
-------------------------------------------------------------------------------
                                 ORCA SCF
-------------------------------------------------------------------------------

------------
SCF SETTINGS
------------
Hamiltonian:
 Density Functional     Method          .... DFT(GTOs)
 Exchange Functional    Exchange        .... PBE
   PBE kappa parameter   XKappa         ....  1.024500
   PBE mue parameter    XMuePBE         ....  0.123457
 Correlation Functional Correlation     .... PBE
   PBE beta parameter  CBetaPBE         ....  0.030000
 LDA part of GGA corr.  LDAOpt          .... PW91-LDA
 Gradients option       PostSCFGGA      .... off
 Hybrid DFT is turned on
   Fraction HF Exchange ScalHFX         ....  0.420000
   Scaling of DF-GGA-X  ScalDFX         ....  0.580000
   Scaling of DF-GGA-C  ScalDFC         ....  1.000000
   Scaling of DF-LDA-C  ScalLDAC        ....  1.000000
   Perturbative correction              ....  0.000000
   Density functional embedding theory  .... OFF
 RI-approximation to the Coulomb term is turned on
   Number of AuxJ basis functions       .... 1231
   RIJ-ON(X) (HFX calculated with O(N)) .... on
   Number of AuxJ basis functions       .... 1231
   RIJ-COSX (HFX calculated with COS-X)).... on


General Settings:
 Integral files         IntName         .... reaction4-IEIP_ts_guess_scan_13-3_orca
 Hartree-Fock type      HFTyp           .... RHF
 Total Charge           Charge          ....    1
 Multiplicity           Mult            ....    1
 Number of Electrons    NEL             ....  164
 Basis Dimension        Dim             ....  358
 Nuclear Repulsion      ENuc            ....   2041.8511424759 Eh

Convergence Acceleration:
 DIIS                   CNVDIIS         .... on
   Start iteration      DIISMaxIt       ....    12
   Startup error        DIISStart       ....  0.200000
   # of expansion vecs  DIISMaxEq       ....     5
   Bias factor          DIISBfac        ....   1.050
   Max. coefficient     DIISMaxC        ....  10.000
 Trust-Rad. Augm. Hess. CNVTRAH         .... auto
   Auto Start mean grad. ratio tolernc. ....  1.125000
   Auto Start start iteration           ....    20
   Auto Start num. interpolation iter.  ....    10
   Max. Number of Micro iterations      ....    16
   Max. Number of Macro iterations      .... Maxiter - #DIIS iter
   Number of Davidson start vectors     ....     2
   Converg. threshold I  (grad. norm)   ....   1.000e-05
   Converg. threshold II (energy diff.) ....   1.000e-08
   Grad. Scal. Fac. for Micro threshold ....   0.100
   Minimum threshold for Micro iter.    ....   0.010
   NR start threshold (gradient norm)   ....   0.001
   Initial trust radius                 ....   0.400
   Minimum AH scaling param. (alpha)    ....   1.000
   Maximum AH scaling param. (alpha)    .... 1000.000
   Orbital update algorithm             .... Taylor
   White noise on init. David. guess    .... on
   Maximum white noise                  ....   0.010
   Quad. conv. algorithm                .... NR
   COSX micro iterations for RIJONX calc.... off
 SOSCF                  CNVSOSCF        .... off
 Level Shifting         CNVShift        .... on
   Level shift para.    LevelShift      ....    0.2500
   Turn off err/grad.   ShiftErr        ....    0.0010
 Zerner damping         CNVZerner       .... off
 Static damping         CNVDamp         .... on
   Fraction old density DampFac         ....    0.7000
   Max. Damping (<1)    DampMax         ....    0.9800
   Min. Damping (>=0)   DampMin         ....    0.0000
   Turn off err/grad.   DampErr         ....    0.1000
 Fernandez-Rico         CNVRico         .... off

SCF Procedure:
 Maximum # iterations   MaxIter         ....   250
 SCF integral mode      SCFMode         .... Direct
   Integral package                     .... SHARK and LIBINT hybrid scheme
 Reset frequency        DirectResetFreq ....    20
 Integral Threshold     Thresh          ....  2.500e-11 Eh
 Primitive CutOff       TCut            ....  2.500e-12 Eh

Convergence Tolerance:
 Convergence Check Mode ConvCheckMode   .... Total+1el-Energy
 Convergence forced     ConvForced      .... 0
 Energy Change          TolE            ....  1.000e-08 Eh
 1-El. energy change                    ....  1.000e-05 Eh
 DIIS Error             TolErr          ....  5.000e-07


Diagonalization of the overlap matrix:
Smallest eigenvalue                        ... 1.162e-03
Time for diagonalization                   ...    0.017 sec
Threshold for overlap eigenvalues          ... 1.000e-08
Number of eigenvalues below threshold      ... 0
Time for construction of square roots      ...    0.006 sec
Total time needed                          ...    0.024 sec

--------------------
INITIAL GUESS: HCORE
--------------------
                      -----------------
                      INTIAL GUESS DONE 
                      -----------------
-------------------
DFT GRID GENERATION
-------------------

General Integration Accuracy     IntAcc      ... 4.159
Radial Grid Type                 RadialGrid  ... OptM3 with GC (2021)
Angular Grid (max. ang.)         AngularGrid ... 3 (Lebedev-194)
Angular grid pruning method      GridPruning ... 4 (adaptive)
Weight generation scheme         WeightScheme... Becke
Basis function cutoff            BFCut       ... 1.0000e-11
Integration weight cutoff        WCut        ... 1.0000e-14
Angular grids for H and He will be reduced by one unit
Partially contracted basis set               ... off
Rotationally invariant grid construction     ... off

Total number of grid points                  ...    93241
Total number of batches                      ...     1481
Average number of points per batch           ...       62
Average number of grid points per atom       ...     2391
Time for grid setup =    1.697 sec

--------------------
COSX GRID GENERATION
--------------------

GRIDX 1
-------
General Integration Accuracy     IntAcc      ... 3.816
Radial Grid Type                 RadialGrid  ... OptM3 with GC (2021)
Angular Grid (max. ang.)         AngularGrid ... 1 (Lebedev-50)
Angular grid pruning method      GridPruning ... 4 (adaptive)
Weight generation scheme         WeightScheme... Becke
Basis function cutoff            BFCut       ... 1.0000e-11
Integration weight cutoff        WCut        ... 1.0000e-14
Angular grids for H and He will be reduced by one unit
Partially contracted basis set               ... on
Rotationally invariant grid construction     ... off

Total number of grid points                  ...    23192
Total number of batches                      ...      384
Average number of points per batch           ...       60
Average number of grid points per atom       ...      595
UseSFitting                                  ... on

GRIDX 2
-------
General Integration Accuracy     IntAcc      ... 4.020
Radial Grid Type                 RadialGrid  ... OptM3 with GC (2021)
Angular Grid (max. ang.)         AngularGrid ... 2 (Lebedev-110)
Angular grid pruning method      GridPruning ... 4 (adaptive)
Weight generation scheme         WeightScheme... Becke
Basis function cutoff            BFCut       ... 1.0000e-11
Integration weight cutoff        WCut        ... 1.0000e-14
Angular grids for H and He will be reduced by one unit
Partially contracted basis set               ... on
Rotationally invariant grid construction     ... off

Total number of grid points                  ...    50308
Total number of batches                      ...      807
Average number of points per batch           ...       62
Average number of grid points per atom       ...     1290
UseSFitting                                  ... on

GRIDX 3
-------
General Integration Accuracy     IntAcc      ... 4.338
Radial Grid Type                 RadialGrid  ... OptM3 with GC (2021)
Angular Grid (max. ang.)         AngularGrid ... 3 (Lebedev-194)
Angular grid pruning method      GridPruning ... 4 (adaptive)
Weight generation scheme         WeightScheme... Becke
Basis function cutoff            BFCut       ... 1.0000e-11
Integration weight cutoff        WCut        ... 1.0000e-14
Angular grids for H and He will be reduced by one unit
Partially contracted basis set               ... on
Rotationally invariant grid construction     ... off

Total number of grid points                  ...   108731
Total number of batches                      ...     1719
Average number of points per batch           ...       63
Average number of grid points per atom       ...     2788
UseSFitting                                  ... on

Time for X-Grid setup             =    4.519 sec

--------------
SCF ITERATIONS
--------------
ITER       Energy         Delta-E        Max-DP      RMS-DP      [F,P]     Damp
               ***  Starting incremental Fock matrix formation  ***
  0   -837.3630140905   0.00000000000019.86065069  0.15447665  3.3070922 0.7000
  1  -1081.7135008490-244.35048675850210.27808101  0.13718416  1.5360928 0.7000
  2  -1156.1409274162 -74.427426567283 5.50050337  0.06910585  1.0663132 0.7000
  3  -1184.2555482467 -28.114620830457 3.81319688  0.04747973  0.7789827 0.7000
  4  -1205.8790703189 -21.623522072214 2.69848277  0.03808105  0.4853897 0.7000
  5  -1220.5110307505 -14.631960431628 2.38559410  0.03385356  0.3648867 0.7000
  6  -1230.2275570697  -9.716526319199 2.09353952  0.02950020  0.3292630 0.7000
  7  -1239.5884977904  -9.360940720616 1.58732475  0.02613855  0.2980621 0.7000
  8  -1246.4282157989  -6.839718008551 1.71953633  0.02671328  0.3198150 0.7000
  9  -1250.5376567927  -4.109440993755 1.53322125  0.02419499  0.2963320 0.7000
 10  -1255.6364498720  -5.098793079368 1.62202507  0.02412829  0.2922209 0.7000
 11  -1256.9223680003  -1.285918128257 1.47249174  0.02263886  0.2878668 0.7000
                               ***Turning on DIIS***
 12  -1259.7310362533  -2.808668252997 1.44799666  0.02285323  0.3138450 0.7000
 13  -1259.9823053225  -0.251269069182 1.28097268  0.01912369  0.3119601 0.7000
 14  -1267.9932305207  -8.010925198264 0.89483999  0.01360872  0.2475846 0.7000
 15  -1274.3117840075  -6.318553486746 0.62818180  0.00962477  0.2027334 0.7000
 16  -1278.7794977968  -4.467713789344 0.44259715  0.00680799  0.1490437 0.7000
 17  -1281.8231753097  -3.043677512855 0.31269996  0.00481471  0.1025985 0.7000
 18  -1283.8885479690  -2.065372659292 0.72571051  0.01131481  0.0649174 0.0000
 19  -1288.4336730783  -4.545125109335 0.02162795  0.00041000  0.0221001 0.0000
               *** Restarting incremental Fock matrix formation ***
                                   *** Resetting DIIS ***
 20  -1288.4421804327  -0.008507354363 0.02490044  0.00051374  0.0106643 0.0000
 21  -1288.4445588585  -0.002378425864 0.01073514  0.00015107  0.0090492 0.0000
 22  -1288.4458559165  -0.001297057952 0.00478779  0.00006860  0.0022101 0.0000
 23  -1288.4459994275  -0.000143511034 0.00430951  0.00004113  0.0023801 0.0000
 24  -1288.4460444664  -0.000045038899 0.00404025  0.00003638  0.0007869 0.0000
               *** Restarting incremental Fock matrix formation ***
                                   *** Resetting DIIS ***
 25  -1288.4465464328  -0.000501966406 0.00559769  0.00010329  0.0007506 0.0000
 26  -1288.4465567856  -0.000010352781 0.00127158  0.00001581  0.0010495 0.0000
 27  -1288.4465686075  -0.000011821901 0.00080103  0.00000922  0.0002127 0.0000
 28  -1288.4465691276  -0.000000520097 0.00033162  0.00000289  0.0001453 0.0000
 29  -1288.4465693594  -0.000000231831 0.00026845  0.00000211  0.0000977 0.0000
 30  -1288.4465694480  -0.000000088609 0.00008981  0.00000100  0.0000261 0.0000
 31  -1288.4465694621  -0.000000014097 0.00003531  0.00000040  0.0000140 0.0000
 32  -1288.4465694646  -0.000000002433 0.00003738  0.00000033  0.0000078 0.0000
 33  -1288.4465694725  -0.000000007912 0.00001231  0.00000012  0.0000027 0.0000
 34  -1288.4465694812  -0.000000008745 0.00000277  0.00000005  0.0000025 0.0000
 35  -1288.4465694823  -0.000000001089 0.00000318  0.00000003  0.0000018 0.0000
 36  -1288.4465694742   0.000000008078 0.00000337  0.00000003  0.0000016 0.0000
                 **** Energy Check signals convergence ****

               *****************************************************
               *                     SUCCESS                       *
               *           SCF CONVERGED AFTER  37 CYCLES          *
               *****************************************************

Old exchange energy                            =    -59.654437955 Eh
New exchange energy                            =    -59.654513740 Eh
Exchange energy change after final integration =     -0.000075785 Eh
Total energy after final integration           =  -1288.446645255 Eh
Final COS-X integration done in                =    56.366 sec

----------------
TOTAL SCF ENERGY
----------------

Total Energy       :        -1288.44664525 Eh          -35060.41565 eV

Components:
Nuclear Repulsion  :         2041.85114248 Eh           55561.59428 eV
Electronic Energy  :        -3330.29778773 Eh          -90622.00994 eV
One Electron Energy:        -5839.21714568 Eh         -158893.17651 eV
Two Electron Energy:         2508.91935795 Eh           68271.16657 eV
Max COSX asymmetry :            0.00002274 Eh               0.00062 eV

Virial components:
Potential Energy   :        -2501.57256918 Eh          -68071.25028 eV
Kinetic Energy     :         1213.12592392 Eh           33010.83463 eV
Virial Ratio       :            2.06208813


DFT components:
N(Alpha)           :       82.000262201331 electrons
N(Beta)            :       82.000262201331 electrons
N(Total)           :      164.000524402663 electrons
E(X)               :      -79.598615475275 Eh       
E(C)               :       -7.461794264183 Eh       
E(XC)              :      -87.060409739458 Eh       
DFET-embed. en.    :        0.000000000000 Eh       

---------------
SCF CONVERGENCE
---------------

  Last Energy change         ...    3.9872e-09  Tolerance :   1.0000e-08
  Last MAX-Density change    ...    0.0000e+00  Tolerance :   1.0000e-07
  Last RMS-Density change    ...    0.0000e+00  Tolerance :   5.0000e-09
  Last DIIS Error            ...    3.0210e-07  Tolerance :   5.0000e-07

             **** THE GBW FILE WAS UPDATED (reaction4-IEIP_ts_guess_scan_13-3_orca.gbw) ****
             **** DENSITY reaction4-IEIP_ts_guess_scan_13-3_orca.scfp WAS UPDATED ****
             **** ENERGY FILE WAS UPDATED (reaction4-IEIP_ts_guess_scan_13-3_orca.en.tmp) ****
             **** THE GBW FILE WAS UPDATED (reaction4-IEIP_ts_guess_scan_13-3_orca.gbw) ****
             **** DENSITY reaction4-IEIP_ts_guess_scan_13-3_orca.scfp WAS UPDATED ****
----------------
ORBITAL ENERGIES
----------------

  NO   OCC          E(Eh)            E(eV) 
   0   2.0000     -89.768599     -2442.7278 
   1   2.0000     -19.629700      -534.1513 
   2   2.0000     -19.610812      -533.6373 
   3   2.0000     -14.836826      -403.7306 
   4   2.0000     -10.689530      -290.8769 
   5   2.0000     -10.655961      -289.9634 
   6   2.0000     -10.630659      -289.2749 
   7   2.0000     -10.626267      -289.1554 
   8   2.0000     -10.624810      -289.1158 
   9   2.0000     -10.623441      -289.0785 
  10   2.0000     -10.615122      -288.8522 
  11   2.0000     -10.614276      -288.8291 
  12   2.0000     -10.613643      -288.8119 
  13   2.0000     -10.612822      -288.7896 
  14   2.0000     -10.592580      -288.2387 
  15   2.0000     -10.590584      -288.1844 
  16   2.0000     -10.554304      -287.1972 
  17   2.0000     -10.551329      -287.1163 
  18   2.0000     -10.540277      -286.8155 
  19   2.0000      -8.407988      -228.7930 
  20   2.0000      -6.297839      -171.3729 
  21   2.0000      -6.294264      -171.2756 
  22   2.0000      -6.293024      -171.2419 
  23   2.0000      -4.022189      -109.4493 
  24   2.0000      -2.339555       -63.6625 
  25   2.0000      -2.309101       -62.8338 
  26   2.0000      -2.305720       -62.7418 
  27   2.0000      -1.317004       -35.8375 
  28   2.0000      -1.218617       -33.1603 
  29   2.0000      -1.212264       -32.9874 
  30   2.0000      -1.161070       -31.5943 
  31   2.0000      -1.131562       -30.7914 
  32   2.0000      -1.027501       -27.9597 
  33   2.0000      -0.974735       -26.5239 
  34   2.0000      -0.973765       -26.4975 
  35   2.0000      -0.967951       -26.3393 
  36   2.0000      -0.961602       -26.1665 
  37   2.0000      -0.934066       -25.4172 
  38   2.0000      -0.901293       -24.5254 
  39   2.0000      -0.875127       -23.8134 
  40   2.0000      -0.801900       -21.8208 
  41   2.0000      -0.785430       -21.3726 
  42   2.0000      -0.777620       -21.1601 
  43   2.0000      -0.776938       -21.1416 
  44   2.0000      -0.762371       -20.7452 
  45   2.0000      -0.757265       -20.6062 
  46   2.0000      -0.745136       -20.2762 
  47   2.0000      -0.724392       -19.7117 
  48   2.0000      -0.691616       -18.8198 
  49   2.0000      -0.683948       -18.6112 
  50   2.0000      -0.665024       -18.0962 
  51   2.0000      -0.654935       -17.8217 
  52   2.0000      -0.647395       -17.6165 
  53   2.0000      -0.636314       -17.3150 
  54   2.0000      -0.632431       -17.2093 
  55   2.0000      -0.628017       -17.0892 
  56   2.0000      -0.622741       -16.9457 
  57   2.0000      -0.613981       -16.7073 
  58   2.0000      -0.602705       -16.4004 
  59   2.0000      -0.598090       -16.2749 
  60   2.0000      -0.597130       -16.2487 
  61   2.0000      -0.592829       -16.1317 
  62   2.0000      -0.582443       -15.8491 
  63   2.0000      -0.573646       -15.6097 
  64   2.0000      -0.563755       -15.3405 
  65   2.0000      -0.563318       -15.3287 
  66   2.0000      -0.552906       -15.0453 
  67   2.0000      -0.547847       -14.9077 
  68   2.0000      -0.542910       -14.7733 
  69   2.0000      -0.536734       -14.6053 
  70   2.0000      -0.531322       -14.4580 
  71   2.0000      -0.519308       -14.1311 
  72   2.0000      -0.513999       -13.9866 
  73   2.0000      -0.498930       -13.5766 
  74   2.0000      -0.491896       -13.3852 
  75   2.0000      -0.490357       -13.3433 
  76   2.0000      -0.478474       -13.0199 
  77   2.0000      -0.449517       -12.2320 
  78   2.0000      -0.443659       -12.0726 
  79   2.0000      -0.421727       -11.4758 
  80   2.0000      -0.414508       -11.2793 
  81   2.0000      -0.392939       -10.6924 
  82   0.0000      -0.209627        -5.7042 
  83   0.0000      -0.144354        -3.9281 
  84   0.0000      -0.129483        -3.5234 
  85   0.0000      -0.089501        -2.4354 
[...]

----------------------
LOEWDIN ATOMIC CHARGES
----------------------
   0 Ir:   -0.259146
   1 C :   -0.060662
   2 C :   -0.098339
   3 C :   -0.098663
   4 C :   -0.043623
   5 C :   -0.017551
   6 N :    0.003696
   7 C :   -0.069870
   8 C :   -0.362314
   9 H :    0.156623
  10 H :    0.132781
  11 H :    0.143979
  12 C :   -0.343434
  13 H :    0.156037
  14 H :    0.151110
  15 H :    0.137919
  16 H :    0.133867
  17 C :    0.026348
  18 C :   -0.177641
  19 H :    0.161544
  20 C :   -0.221067
  21 C :   -0.118245
  22 S :    0.507740
  23 C :   -0.258544
  24 H :    0.350735
  25 H :    0.164260
  26 H :    0.170335
  27 H :    0.181314
  28 H :    0.178685
  29 H :    0.187790
  30 O :   -0.262071
  31 O :   -0.189588
  32 C :    0.157185
  33 C :   -0.372910
  34 H :    0.162458
  35 H :    0.170631
  36 H :    0.154433
  37 H :    0.180998
  38 H :    0.183204

-------------------------------
LOEWDIN REDUCED ORBITAL CHARGES
-------------------------------
  0 Irs       :     2.446539  s :     2.446539
      pz      :     2.256503  p :     6.778925
      px      :     2.255180
      py      :     2.267242
      dz2     :     1.731384  d :     7.942292
      dxz     :     1.656412
      dyz     :     1.424990
      dx2y2   :     1.594925
      dxy     :     1.534582
      f0      :     0.011214  f :     0.091390
      f+1     :     0.005972
      f-1     :     0.016406
      f+2     :     0.014412
      f-2     :     0.016385
      f+3     :     0.010702
      f-3     :     0.016298
  1 C s       :     2.873956  s :     2.873956
      pz      :     1.053043  p :     3.083896
      px      :     1.075370
      py      :     0.955483
      dz2     :     0.025917  d :     0.102809
      dxz     :     0.025476
      dyz     :     0.016378
      dx2y2   :     0.018780
      dxy     :     0.016258
  2 C s       :     2.876336  s :     2.876336
      pz      :     1.037609  p :     3.124092
      px      :     1.089368
      py      :     0.997115
      dz2     :     0.024295  d :     0.097912
      dxz     :     0.027968
      dyz     :     0.016020
      dx2y2   :     0.017108
      dxy     :     0.012521
  3 C s       :     2.870818  s :     2.870818
      pz      :     1.029253  p :     3.129111
      px      :     1.083284
      py      :     1.016573
      dz2     :     0.022185  d :     0.098734
      dxz     :     0.031103
      dyz     :     0.015432
      dx2y2   :     0.016252
      dxy     :     0.013763
  4 C s       :     2.874421  s :     2.874421
      pz      :     1.080641  p :     3.065060
      px      :     1.044128
      py      :     0.940292
      dz2     :     0.022856  d :     0.104142
      dxz     :     0.029017
      dyz     :     0.013339
      dx2y2   :     0.019741
      dxy     :     0.019189
  5 C s       :     2.881575  s :     2.881575
      pz      :     1.049190  p :     3.032307
      px      :     1.043146
      py      :     0.939972
      dz2     :     0.021560  d :     0.103669
      dxz     :     0.031117
      dyz     :     0.015820
      dx2y2   :     0.015795
      dxy     :     0.019378
  6 N s       :     3.124022  s :     3.124022
      pz      :     1.247362  p :     3.773372
      px      :     1.287795
      py      :     1.238215
      dz2     :     0.030404  d :     0.098910
      dxz     :     0.027270
      dyz     :     0.018691
      dx2y2   :     0.012445
      dxy     :     0.010101
  7 C s       :     2.862403  s :     2.862403
      pz      :     1.055498  p :     3.072911
      px      :     0.940634
      py      :     1.076779
      dz2     :     0.027617  d :     0.134556
      dxz     :     0.029743
      dyz     :     0.013758
      dx2y2   :     0.030333
      dxy     :     0.033106
  8 C s       :     2.953457  s :     2.953457
      pz      :     1.138197  p :     3.341393
      px      :     1.123237
      py      :     1.079958
      dz2     :     0.014562  d :     0.067464
      dxz     :     0.017577
      dyz     :     0.005761
      dx2y2   :     0.010576
      dxy     :     0.018988
  9 H s       :     0.843377  s :     0.843377
 10 H s       :     0.867219  s :     0.867219
 11 H s       :     0.856021  s :     0.856021
 12 C s       :     2.953602  s :     2.953602
      pz      :     1.145288  p :     3.321928
      px      :     1.108738
      py      :     1.067901
      dz2     :     0.014267  d :     0.067904
      dxz     :     0.014408
      dyz     :     0.008765
      dx2y2   :     0.012153
      dxy     :     0.018312
 13 H s       :     0.843963  s :     0.843963
 14 H s       :     0.848890  s :     0.848890
 15 H s       :     0.862081  s :     0.862081
 16 H s       :     0.866133  s :     0.866133
 17 C s       :     2.875539  s :     2.875539
      pz      :     1.006440  p :     2.958273
      px      :     1.059692
      py      :     0.892141
      dz2     :     0.038759  d :     0.139840
      dxz     :     0.047302
      dyz     :     0.026565
      dx2y2   :     0.012813
      dxy     :     0.014401
 18 C s       :     2.892764  s :     2.892764
      pz      :     1.053149  p :     3.172163
      px      :     1.086049
      py      :     1.032965
      dz2     :     0.033297  d :     0.112714
      dxz     :     0.034168
      dyz     :     0.018029
      dx2y2   :     0.015358
      dxy     :     0.011862
 19 H s       :     0.838456  s :     0.838456
 20 C s       :     2.887115  s :     2.887115
      pz      :     1.139125  p :     3.226988
      px      :     1.058328
      py      :     1.029535
      dz2     :     0.015859  d :     0.106964
      dxz     :     0.039837
      dyz     :     0.015494
      dx2y2   :     0.019382
      dxy     :     0.016392
 21 C s       :     2.897018  s :     2.897018
      pz      :     1.079617  p :     3.126959
      px      :     1.083263
      py      :     0.964079
      dz2     :     0.028432  d :     0.094268
      dxz     :     0.031806
      dyz     :     0.014834
      dx2y2   :     0.012016
      dxy     :     0.007180
 22 S s       :     5.497749  s :     5.497749
      pz      :     3.261943  p :     9.838102
      px      :     3.080449
      py      :     3.495710
      dz2     :     0.048698  d :     0.156409
      dxz     :     0.036987
      dyz     :     0.017614
      dx2y2   :     0.026545
      dxy     :     0.026565
 23 C s       :     2.963612  s :     2.963612
      pz      :     1.120143  p :     3.209403
      px      :     1.027350
      py      :     1.061909
      dz2     :     0.023694  d :     0.085529
      dxz     :     0.031160
      dyz     :     0.011633
      dx2y2   :     0.010794
      dxy     :     0.008247
 24 H s       :     0.649265  s :     0.649265
 25 H s       :     0.835740  s :     0.835740
 26 H s       :     0.829665  s :     0.829665
 27 H s       :     0.818686  s :     0.818686
 28 H s       :     0.821315  s :     0.821315
 29 H s       :     0.812210  s :     0.812210
 30 O s       :     3.516873  s :     3.516873
      pz      :     1.457916  p :     4.690988
      px      :     1.557668
      py      :     1.675404
      dz2     :     0.016214  d :     0.054210
      dxz     :     0.015302
      dyz     :     0.013573
      dx2y2   :     0.005422
      dxy     :     0.003700
 31 O s       :     3.445269  s :     3.445269
      pz      :     1.688383  p :     4.684607
      px      :     1.606413
      py      :     1.389810
      dz2     :     0.009010  d :     0.059713
      dxz     :     0.004361
      dyz     :     0.015272
      dx2y2   :     0.014708
      dxy     :     0.016362
 32 C s       :     2.814027  s :     2.814027
      pz      :     0.972523  p :     2.709187
      px      :     0.777274
      py      :     0.959390
      dz2     :     0.071414  d :     0.319601
      dxz     :     0.049889
      dyz     :     0.096699
      dx2y2   :     0.050119
      dxy     :     0.051481
 33 C s       :     2.959171  s :     2.959171
      pz      :     1.102535  p :     3.351147
      px      :     1.152773
      py      :     1.095839
      dz2     :     0.004046  d :     0.062592
      dxz     :     0.017182
      dyz     :     0.020834
      dx2y2   :     0.018378
      dxy     :     0.002151
 34 H s       :     0.837542  s :     0.837542
 35 H s       :     0.829369  s :     0.829369
 36 H s       :     0.845567  s :     0.845567
 37 H s       :     0.819002  s :     0.819002
 38 H s       :     0.816796  s :     0.816796


                      *****************************
                      * MAYER POPULATION ANALYSIS *
                      *****************************

  NA   - Mulliken gross atomic population
  ZA   - Total nuclear charge
  QA   - Mulliken gross atomic charge
  VA   - Mayer's total valence
  BVA  - Mayer's bonded valence
  FA   - Mayer's free valence

  ATOM       NA         ZA         QA         VA         BVA        FA
  0 Ir    16.3870    17.0000     0.6130     3.7679     3.7679     0.0000
  1 C      6.2468     6.0000    -0.2468     3.7285     3.7285    -0.0000
  2 C      6.2537     6.0000    -0.2537     3.7304     3.7304     0.0000
  3 C      6.2758     6.0000    -0.2758     3.7446     3.7446     0.0000
  4 C      6.2233     6.0000    -0.2233     3.7126     3.7126    -0.0000
  5 C      6.1503     6.0000    -0.1503     3.6990     3.6990     0.0000
  6 N      7.4280     7.0000    -0.4280     3.2153     3.2153    -0.0000
  7 C      6.1276     6.0000    -0.1276     3.7058     3.7058     0.0000
  8 C      6.6824     6.0000    -0.6824     3.6879     3.6879     0.0000
  9 H      0.7299     1.0000     0.2701     0.8972     0.8972    -0.0000
 10 H      0.7759     1.0000     0.2241     0.9108     0.9108     0.0000
 11 H      0.7450     1.0000     0.2550     0.8999     0.8999    -0.0000
 12 C      6.6337     6.0000    -0.6337     3.6701     3.6701     0.0000
 13 H      0.7183     1.0000     0.2817     0.8728     0.8728    -0.0000
 14 H      0.7405     1.0000     0.2595     0.8984     0.8984    -0.0000
 15 H      0.7675     1.0000     0.2325     0.9094     0.9094     0.0000
 16 H      0.7653     1.0000     0.2347     0.9058     0.9058    -0.0000
 17 C      5.9299     6.0000     0.0701     3.6577     3.6577    -0.0000
 18 C      6.1151     6.0000    -0.1151     3.6908     3.6908     0.0000
 19 H      0.7128     1.0000     0.2872     0.8862     0.8862    -0.0000
 20 C      6.6000     6.0000    -0.6000     3.5757     3.5757     0.0000
 21 C      6.0831     6.0000    -0.0831     3.7333     3.7333     0.0000
 22 S     15.6502    16.0000     0.3498     2.6106     2.6106    -0.0000
 23 C      6.4290     6.0000    -0.4290     3.7493     3.7493    -0.0000
 24 H      0.5310     1.0000     0.4690     0.7538     0.7538    -0.0000
 25 H      0.7293     1.0000     0.2707     0.9000     0.9000    -0.0000
 26 H      0.7003     1.0000     0.2997     0.8967     0.8967    -0.0000
 27 H      0.7161     1.0000     0.2839     0.9066     0.9066     0.0000
 28 H      0.7192     1.0000     0.2808     0.9094     0.9094    -0.0000
 29 H      0.7024     1.0000     0.2976     0.8955     0.8955     0.0000
 30 O      8.4692     8.0000    -0.4692     2.1587     2.1587     0.0000
 31 O      8.5164     8.0000    -0.5164     2.1024     2.1024     0.0000
 32 C      5.3755     6.0000     0.6245     3.9083     3.9083    -0.0000
 33 C      6.7433     6.0000    -0.7433     3.6625     3.6625    -0.0000
 34 H      0.7291     1.0000     0.2709     0.8943     0.8943    -0.0000
 35 H      0.7272     1.0000     0.2728     0.8924     0.8924     0.0000
 36 H      0.7420     1.0000     0.2580     0.8988     0.8988     0.0000
 37 H      0.7194     1.0000     0.2806     0.9102     0.9102     0.0000
 38 H      0.7086     1.0000     0.2914     0.9041     0.9041    -0.0000

  Mayer bond orders larger than 0.100000
B(  0-Ir,  1-C ) :   0.4444 B(  0-Ir,  2-C ) :   0.3859 B(  0-Ir,  3-C ) :   0.4699 
B(  0-Ir,  4-C ) :   0.4184 B(  0-Ir,  5-C ) :   0.3577 B(  0-Ir,  6-N ) :   0.4624 
B(  0-Ir, 20-C ) :   0.5234 B(  0-Ir, 31-O ) :   0.5329 B(  1-C ,  2-C ) :   1.1262 
B(  1-C ,  4-C ) :   1.2267 B(  1-C , 27-H ) :   0.9091 B(  2-C ,  5-C ) :   1.2281 
B(  2-C , 28-H ) :   0.9101 B(  3-C ,  4-C ) :   1.1398 B(  3-C ,  5-C ) :   1.1693 
B(  3-C , 37-H ) :   0.9141 B(  4-C , 38-H ) :   0.8992 B(  5-C , 29-H ) :   0.9014 
B(  6-N ,  7-C ) :   0.8958 B(  6-N , 17-C ) :   1.6491 B(  7-C ,  8-C ) :   0.9903 
B(  7-C , 12-C ) :   0.9658 B(  7-C , 13-H ) :   0.8748 B(  8-C ,  9-H ) :   0.9045 
B(  8-C , 10-H ) :   0.9131 B(  8-C , 11-H ) :   0.9115 B( 12-C , 14-H ) :   0.9075 
B( 12-C , 15-H ) :   0.9152 B( 12-C , 16-H ) :   0.9113 B( 17-C , 18-C ) :   1.1099 
B( 17-C , 19-H ) :   0.8763 B( 18-C , 20-C ) :   1.2006 B( 18-C , 22-S ) :   1.2624 
B( 20-C , 21-C ) :   1.2393 B( 20-C , 24-H ) :   0.3841 B( 21-C , 23-C ) :   1.5559 
B( 21-C , 25-H ) :   0.9005 B( 22-S , 23-C ) :   1.2062 B( 23-C , 26-H ) :   0.8910 
B( 24-H , 30-O ) :   0.3150 B( 30-O , 32-C ) :   1.6145 B( 31-O , 32-C ) :   1.3479 
B( 32-C , 33-C ) :   0.9423 B( 33-C , 34-H ) :   0.9021 B( 33-C , 35-H ) :   0.8951 
B( 33-C , 36-H ) :   0.9087 


------------------
HIRSHFELD ANALYSIS
------------------

Total integrated alpha density =     82.000148588
Total integrated beta density  =     82.000148588

  ATOM     CHARGE      SPIN    
   0 Ir   0.176880    0.000000
   1 C   -0.005082    0.000000
   2 C   -0.017245    0.000000
   3 C   -0.022306    0.000000
   4 C    0.001014    0.000000
   5 C    0.019245    0.000000
   6 N   -0.063469    0.000000
   7 C    0.052775    0.000000
   8 C   -0.071239    0.000000
   9 H    0.053555    0.000000
  10 H    0.037516    0.000000
  11 H    0.041489    0.000000
  12 C   -0.070758    0.000000
  13 H    0.045739    0.000000
  14 H    0.050145    0.000000
  15 H    0.037333    0.000000
  16 H    0.030860    0.000000
  17 C    0.093281    0.000000
  18 C    0.001551    0.000000
  19 H    0.078003    0.000000
  20 C   -0.089237    0.000000
  21 C   -0.019859    0.000000
  22 S    0.153462    0.000000
  23 C   -0.024850    0.000000
  24 H    0.098238    0.000000
  25 H    0.070176    0.000000
  26 H    0.080254    0.000000
  27 H    0.079887    0.000000
  28 H    0.078210    0.000000
  29 H    0.090484    0.000000
  30 O   -0.245737    0.000000
  31 O   -0.249299    0.000000
  32 C    0.245691    0.000000
  33 C   -0.063618    0.000000
  34 H    0.056689    0.000000
  35 H    0.062607    0.000000
  36 H    0.049835    0.000000
  37 H    0.079321    0.000000
  38 H    0.078163    0.000000

  TOTAL   0.999703    0.000000

-------
TIMINGS
-------

Total SCF time: 0 days 0 hours 4 min 30 sec 

Total time                  ....     270.124 sec
Sum of individual times     ....     269.594 sec  ( 99.8%)

Fock matrix formation       ....     261.913 sec  ( 97.0%)
  Split-RI-J                ....      19.541 sec  (  7.5% of F)
  Chain of spheres X        ....     229.059 sec  ( 87.5% of F)
  XC integration            ....      13.315 sec  (  5.1% of F)
    Basis function eval.    ....       6.196 sec  ( 46.5% of XC)
    Density eval.           ....       3.596 sec  ( 27.0% of XC)
    XC-Functional eval.     ....       0.976 sec  (  7.3% of XC)
    XC-Potential eval.      ....       2.030 sec  ( 15.2% of XC)
Diagonalization             ....       0.206 sec  (  0.1%)
Density matrix formation    ....       0.034 sec  (  0.0%)
Population analysis         ....       1.215 sec  (  0.4%)
Initial guess               ....       0.025 sec  (  0.0%)
Orbital Transformation      ....       0.000 sec  (  0.0%)
Orbital Orthonormalization  ....       0.019 sec  (  0.0%)
DIIS solution               ....       0.084 sec  (  0.0%)
Grid generation             ....       6.118 sec  (  2.3%)

Maximum memory used throughout the entire SCF-calculation: 173.4 MB


-------------------------------------------------------------------------------
                          DFT DISPERSION CORRECTION                            
                                                                               
                              DFTD3 V3.1  Rev 1                                
                          USING Becke-Johnson damping                          
-------------------------------------------------------------------------------
The PBEh-3c composite method is recognized
Using three-body term ABC
Active option DFTDOPT                   ...         4   

molecular C6(AA) [au] = 19542.298635 


            DFT-D V3
 parameters
 s6 scaling factor         :     1.0000 
 a1 scaling factor         :     0.4860 
 s8 scaling factor         :     0.0000 
 a2 scaling factor         :     4.5000 
 Damping factor alpha9(ATM):    16.0000 
 ad hoc parameters k1-k3   :    16.0000     1.3333    -4.0000 

 Edisp/kcal,au: -19.357890168219  -0.030848758311 
 E6   /kcal   : -19.696939105 
 E8   /kcal   :  -0.000000000 
 E6(ABC)      :   0.339048936 
 % E8         :   0.000000000 
 % E6(ABC)    :  -1.751476703 

-------------------------   ----------------
Dispersion correction           -0.030848758
-------------------------   ----------------

 ** NOTE ** -> element ir will be treated as co
NOTIFICATION: Different basis set in ORCA and otool_gcp:
ORCA: 358  gCP: 357 
If you are NOT using ECPs, check your basis set inputs!
------------------   -----------------
gCP correction             0.080834230
------------------   -----------------

-------------------------   --------------------
FINAL SINGLE POINT ENERGY     -1288.396345342149
-------------------------   --------------------

                                *** OPTIMIZATION RUN DONE ***

                            ***************************************
                            *     ORCA property calculations      *
                            ***************************************

                                    ---------------------
                                    Active property flags
                                    ---------------------
   (+) Dipole Moment


------------------------------------------------------------------------------
                       ORCA ELECTRIC PROPERTIES CALCULATION
------------------------------------------------------------------------------

Dipole Moment Calculation                       ... on
Quadrupole Moment Calculation                   ... off
Polarizability Calculation                      ... off
GBWName                                         ... reaction4-IEIP_ts_guess_scan_13-3_orca.gbw
Electron density                                ... reaction4-IEIP_ts_guess_scan_13-3_orca.scfp
The origin for moment calculation is the CENTER OF MASS  = ( 0.877623, -0.547867 -0.207007)

-------------
DIPOLE MOMENT
-------------
                                X             Y             Z
Electronic contribution:     38.67723     -72.72720      67.93247
Nuclear contribution   :    -39.32339      72.14289     -68.36561
                        -----------------------------------------
Total Dipole Moment    :     -0.64616      -0.58431      -0.43313
                        -----------------------------------------
Magnitude (a.u.)       :      0.97291
Magnitude (Debye)      :      2.47294



--------------------
Rotational spectrum 
--------------------
 
Rotational constants in cm-1:     0.010519     0.009046     0.008267 
Rotational constants in MHz :   315.351084   271.184837   247.834967 

 Dipole components along the rotational axes: 
x,y,z [a.u.] :    -0.118081     0.019360     0.965523 
x,y,z [Debye]:    -0.300138     0.049209     2.454163 

 

Timings for individual modules:

Sum of individual times         ...     7271.009 sec (= 121.183 min)
GTO integral calculation        ...       22.850 sec (=   0.381 min)   0.3 %
SCF iterations                  ...     5686.161 sec (=  94.769 min)  78.2 %
SCF Gradient evaluation         ...     1558.008 sec (=  25.967 min)  21.4 %
Geometry relaxation             ...        3.990 sec (=   0.066 min)   0.1 %
                             ****ORCA TERMINATED NORMALLY****
TOTAL RUN TIME: 0 days 2 hours 1 minutes 16 seconds 416 msec
