
                                 *****************
                                 * O   R   C   A *
                                 *****************

                                            #,                                       
                                            ###                                      
                                            ####                                     
                                            #####                                    
                                            ######                                   
                                           ########,                                 
                                     ,,################,,,,,                         
                               ,,#################################,,                 
                          ,,##########################################,,             
                       ,#########################################, ''#####,          
                    ,#############################################,,   '####,        
                  ,##################################################,,,,####,       
                ,###########''''           ''''###############################       
              ,#####''   ,,,,##########,,,,          '''####'''          '####       
            ,##' ,,,,###########################,,,                        '##       
           ' ,,###''''                  '''############,,,                           
         ,,##''                                '''############,,,,        ,,,,,,###''
      ,#''                                            '''#######################'''  
     '                                                          ''''####''''         
             ,#######,   #######,   ,#######,      ##                                
            ,#'     '#,  ##    ##  ,#'     '#,    #''#        ######   ,####,        
            ##       ##  ##   ,#'  ##            #'  '#       #        #'  '#        
            ##       ##  #######   ##           ,######,      #####,   #    #        
            '#,     ,#'  ##    ##  '#,     ,#' ,#      #,         ##   #,  ,#        
             '#######'   ##     ##  '#######'  #'      '#     #####' # '####'        



                  #######################################################
                  #                        -***-                        #
                  #          Department of theory and spectroscopy      #
                  #    Directorship and core code : Frank Neese         #
                  #        Max Planck Institute fuer Kohlenforschung    #
                  #                Kaiser Wilhelm Platz 1               #
                  #                 D-45470 Muelheim/Ruhr               #
                  #                      Germany                        #
                  #                                                     #
                  #                  All rights reserved                #
                  #                        -***-                        #
                  #######################################################


                         Program Version 5.0.3 -  RELEASE  -


 With contributions from (in alphabetic order):
   Daniel Aravena         : Magnetic Suceptibility
   Michael Atanasov       : Ab Initio Ligand Field Theory (pilot matlab implementation)
   Alexander A. Auer      : GIAO ZORA, VPT2 properties, NMR spectrum
   Ute Becker             : Parallelization
   Giovanni Bistoni       : ED, misc. LED, open-shell LED, HFLD
   Martin Brehm           : Molecular dynamics
   Dmytro Bykov           : SCF Hessian
   Vijay G. Chilkuri      : MRCI spin determinant printing, contributions to CSF-ICE
   Dipayan Datta          : RHF DLPNO-CCSD density
   Achintya Kumar Dutta   : EOM-CC, STEOM-CC
   Dmitry Ganyushin       : Spin-Orbit,Spin-Spin,Magnetic field MRCI
   Miquel Garcia          : C-PCM and meta-GGA Hessian, CC/C-PCM, Gaussian charge scheme
   Yang Guo               : DLPNO-NEVPT2, F12-NEVPT2, CIM, IAO-localization
   Andreas Hansen         : Spin unrestricted coupled pair/coupled cluster methods
   Benjamin Helmich-Paris : MC-RPA, TRAH-SCF, COSX integrals
   Lee Huntington         : MR-EOM, pCC
   Robert Izsak           : Overlap fitted RIJCOSX, COSX-SCS-MP3, EOM
   Marcus Kettner         : VPT2
   Christian Kollmar      : KDIIS, OOCD, Brueckner-CCSD(T), CCSD density, CASPT2, CASPT2-K
   Simone Kossmann        : Meta GGA functionals, TD-DFT gradient, OOMP2, MP2 Hessian
   Martin Krupicka        : Initial AUTO-CI
   Lucas Lang             : DCDCAS
   Marvin Lechner         : AUTO-CI (C++ implementation), FIC-MRCC
   Dagmar Lenk            : GEPOL surface, SMD
   Dimitrios Liakos       : Extrapolation schemes; Compound Job, initial MDCI parallelization
   Dimitrios Manganas     : Further ROCIS development; embedding schemes
   Dimitrios Pantazis     : SARC Basis sets
   Anastasios Papadopoulos: AUTO-CI, single reference methods and gradients
   Taras Petrenko         : DFT Hessian,TD-DFT gradient, ASA, ECA, R-Raman, ABS, FL, XAS/XES, NRVS
   Peter Pinski           : DLPNO-MP2, DLPNO-MP2 Gradient
   Christoph Reimann      : Effective Core Potentials
   Marius Retegan         : Local ZFS, SOC
   Christoph Riplinger    : Optimizer, TS searches, QM/MM, DLPNO-CCSD(T), (RO)-DLPNO pert. Triples
   Tobias Risthaus        : Range-separated hybrids, TD-DFT gradient, RPA, STAB
   Michael Roemelt        : Original ROCIS implementation
   Masaaki Saitow         : Open-shell DLPNO-CCSD energy and density
   Barbara Sandhoefer     : DKH picture change effects
   Avijit Sen             : IP-ROCIS
   Kantharuban Sivalingam : CASSCF convergence, NEVPT2, FIC-MRCI
   Bernardo de Souza      : ESD, SOC TD-DFT
   Georgi Stoychev        : AutoAux, RI-MP2 NMR, DLPNO-MP2 response
   Willem Van den Heuvel  : Paramagnetic NMR
   Boris Wezisla          : Elementary symmetry handling
   Frank Wennmohs         : Technical directorship


 We gratefully acknowledge several colleagues who have allowed us to
 interface, adapt or use parts of their codes:
   Stefan Grimme, W. Hujo, H. Kruse, P. Pracht,  : VdW corrections, initial TS optimization,
                  C. Bannwarth, S. Ehlert          DFT functionals, gCP, sTDA/sTD-DF
   Ed Valeev, F. Pavosevic, A. Kumar             : LibInt (2-el integral package), F12 methods
   Garnet Chan, S. Sharma, J. Yang, R. Olivares  : DMRG
   Ulf Ekstrom                                   : XCFun DFT Library
   Mihaly Kallay                                 : mrcc  (arbitrary order and MRCC methods)
   Jiri Pittner, Ondrej Demel                    : Mk-CCSD
   Frank Weinhold                                : gennbo (NPA and NBO analysis)
   Christopher J. Cramer and Donald G. Truhlar   : smd solvation model
   Lars Goerigk                                  : TD-DFT with DH, B97 family of functionals
   V. Asgeirsson, H. Jonsson                     : NEB implementation
   FAccTs GmbH                                   : IRC, NEB, NEB-TS, DLPNO-Multilevel, CI-OPT
                                                   MM, QMMM, 2- and 3-layer-ONIOM, Crystal-QMMM,
                                                   LR-CPCM, SF, NACMEs, symmetry and pop. for TD-DFT,
                                                   nearIR, NL-DFT gradient (VV10), updates on ESD,
                                                   ML-optimized integration grids
   S Lehtola, MJT Oliveira, MAL Marques          : LibXC Library
   Liviu Ungur et al                             : ANISO software


 Your calculation uses the libint2 library for the computation of 2-el integrals
 For citations please refer to: http://libint.valeyev.net

 Your ORCA version has been built with support for libXC version: 5.1.0
 For citations please refer to: https://tddft.org/programs/libxc/

 This ORCA versions uses:
   CBLAS   interface :  Fast vector & matrix operations
   LAPACKE interface :  Fast linear algebra routines
   SCALAPACK package :  Parallel linear algebra routines
   Shared memory     :  Shared parallel matrices
   BLAS/LAPACK       :  OpenBLAS 0.3.15  USE64BITINT DYNAMIC_ARCH NO_AFFINITY SkylakeX SINGLE_THREADED
        Core in use  :  SkylakeX
   Copyright (c) 2011-2014, The OpenBLAS Project


Your calculation utilizes the geometrical counterpoise correction gCP
Please cite in your paper:
H.Kruse, S. Grimme J.Chem.Phys., 136, (2012), 154101 
   

Your calculation utilizes the atom-pairwise dispersion correction
with the Becke-Johnson damping scheme (D3BJ)
Cite in your paper:
S.Grimme, S.Ehrlich, L.Goerigk, J Comput Chem, (2011), 32, 1456–1465 
S.Grimme, J.Antony, S.Ehrlich and H.Krieg, J.Chem.Phys., 132, (2010), 154104 
   

Your calculation employs the composite approach PBEh-3c.
Please cite in your paper:
S. Grimme, J. G. Brandenburg, C. Bannwarth, A. Hansen J.Chem.Phys., 143, (2015), 054107 
   

================================================================================

cite the ECPs for Ir [Def2-ECP] as follows:
Ce-Yb(ecp-28): M. Dolg, H. Stoll, H.Preuss, J. Chem. Phys., 1989, 90, 1730-1734.
Y-Cd(ecp-28), Hf-Hg(ecp-46): D. Andrae,U. Haeussermann, M. Dolg, H. Stoll, H. Preuss, Theor. Chim. Acta, 1990, 77, 123-141.
In-Sb(ecp-28), Tl-Bi(ecp-46): B. Metz, H. Stoll, M. Dolg, J. Chem. Phys., 2000, 113, 2563-2569.
Te-Xe(ecp-28), Po-Rn(ecp-46): K. A. Peterson, D. Figgen, E. Goll, H. Stoll, M. Dolg, J. Chem. Phys., 2003, 119, 11113-11123.
Rb(ecp-28), Cs(ecp-46): T. Leininger, A. Nicklass, W. Kuechle, H. Stoll, M. Dolg, A. Bergner, Chem. Phys. Lett., 1996, 255, 274-280.
Sr(ecp-28), Ba(ecp-46): M. Kaupp, P. V. Schleyer, H. Stoll and H. Preuss, J. Chem. Phys., 1991, 94, 1360-1366.
La(ecp-46): M. Dolg, H. Stoll, A. Savin, H. Preuss, Theor. Chim. Acta, 1989, 75, 173-194.
Lu(ecp-28): X. Cao, M. Dolg, J. Chem. Phys., 2001, 115, 7348-7355.

ECP parameters for Ir [Def2-ECP] have been obtained from:
TURBOMOLE (7.0.2)

----- Orbital basis set information -----
Your calculation utilizes the basis: def2-mSVP

----- AuxJ basis set information -----
Your calculation utilizes the auxiliary basis: def2/J
   F. Weigend, Phys. Chem. Chem. Phys. 8, 1057 (2006).

================================================================================
                                        WARNINGS
                       Please study these warnings very carefully!
================================================================================


WARNING: Geometry Optimization
  ===> : Switching off AutoStart
         For restart on a previous wavefunction, please use MOREAD

WARNING: No Hueckel Guess possible with ECP basis!
  ===> : Switching to HCORE guess!

INFO   : the flag for use of the SHARK integral package has been found!

================================================================================
                                       INPUT FILE
================================================================================
NAME = reaction4-IEIP_ts_guess_scan_3-1_orca.inp
|  1> ! Opt PBEh-3c
|  2> %geom Constraints
|  3> { B 0 20 2.4714285714285715 C }
|  4> { B 24 30 1.4857142857142858 C }
|  5>     end
|  6> end
|  7> %output 
|  8> xyzfile=True 
|  9> end 
| 10> %scf 
| 11> maxiter 250 
| 12> end
| 13> %output
| 14> Print[P_Hirshfeld] = 1
| 15> end
| 16> % maxcore
| 17> 4000
| 18> *xyz 1 1
| 19> Ir   0.59241033  -0.72022230   0.44229484 
| 20> C    0.03671389  -2.80223360   0.32843433 
| 21> C    0.13060355  -2.35241952   1.69690505 
| 22> C    2.20661593  -2.13372482   0.72772501 
| 23> C    1.29626971  -2.64111527  -0.27438551 
| 24> C    1.50056629  -1.99675247   1.93519944 
| 25> N   -1.04282940   0.18418567  -0.52280442 
| 26> C   -2.30876643   0.52682550   0.14277778 
| 27> C   -3.13321335   1.55649756  -0.61198057 
| 28> H   -3.96342114   1.87213612   0.01827768 
| 29> H   -3.57263336   1.15977975  -1.52875690 
| 30> H   -2.55477753   2.44863653  -0.85429082 
| 31> C   -3.10491164  -0.74450081   0.41015659 
| 32> H   -2.00867373   0.95714689   1.09971354 
| 33> H   -4.01400052  -0.49667369   0.95589588 
| 34> H   -3.39829616  -1.23203461  -0.52052441 
| 35> H   -2.54897709  -1.45733208   1.01753241 
| 36> C   -0.83319911   0.39008987  -1.76373946 
| 37> C    0.52045518   0.14513721  -2.22136839 
| 38> H   -1.60267790   0.76120825  -2.43457600 
| 39> C    1.62918421   0.53077723  -1.47648934 
| 40> C    2.82999730   0.08850603  -2.10454978 
| 41> S    0.93766614  -0.69353438  -3.64900845 
| 42> C    2.60947934  -0.57597260  -3.26883751 
| 43> H    1.55107412   1.39608159  -0.71155046 
| 44> H    3.81836894   0.30554145  -1.72639952 
| 45> H    3.34147466  -0.98802359  -3.94688378 
| 46> H   -0.85782385  -3.16297125  -0.15862593 
| 47> H   -0.65198705  -2.38546721   2.44075384 
| 48> H    1.89588017  -1.60508875   2.86143949 
| 49> O    1.26009285   2.48319319   0.28017443 
| 50> O    0.53930038   0.89272041   1.66978741 
| 51> C    0.87994706   2.10976113   1.38309905 
| 52> C    0.80455679   3.05896477   2.54748769 
| 53> H    0.74267922   4.08656159   2.19969621 
| 54> H    1.71219067   2.96288585   3.14649700 
| 55> H   -0.03673757   2.83527345   3.20033774 
| 56> H    3.25007564  -1.90239008   0.57308255 
| 57> H    1.54669344  -2.86226304  -1.30175666 
| 58> *
| 59> 
| 60>                          ****END OF INPUT****
================================================================================

                       *****************************
                       * Geometry Optimization Run *
                       *****************************

Geometry optimization settings:
Update method            Update   .... BFGS
Choice of coordinates    CoordSys .... Z-matrix Internals
Initial Hessian          InHess   .... Almoef's Model

Convergence Tolerances:
Energy Change            TolE     ....  5.0000e-06 Eh
Max. Gradient            TolMAXG  ....  3.0000e-04 Eh/bohr
RMS Gradient             TolRMSG  ....  1.0000e-04 Eh/bohr
Max. Displacement        TolMAXD  ....  4.0000e-03 bohr
RMS Displacement         TolRMSD  ....  2.0000e-03 bohr
Strict Convergence                ....  False
------------------------------------------------------------------------------
                        ORCA OPTIMIZATION COORDINATE SETUP
------------------------------------------------------------------------------

The optimization will be done in new redundant internal coordinates
Making redundant internal coordinates   ...  (new redundants) done
Evaluating the initial hessian          ...  (Almloef) done
Evaluating the coordinates              ...  done
Calculating the B-matrix                .... done
Calculating the G-matrix                .... done
Diagonalizing the G-matrix              .... done
Imposing constraints:
 Iter   0:  RMS(Cart)=    0.0240874348 RMS(Int)=    0.0025825699
 Iter   1:  RMS(Cart)=    0.0010511217 RMS(Int)=    0.0001250440
 Iter   2:  RMS(Cart)=    0.0000502501 RMS(Int)=    0.0000058883
 Iter   3:  RMS(Cart)=    0.0000023331 RMS(Int)=    0.0000002699
 Iter   4:  RMS(Cart)=    0.0000001057 RMS(Int)=    0.0000000121
 Iter   5:  RMS(Cart)=    0.0000000047 RMS(Int)=    0.0000000005
CONVERGED
Small eigenvalue found = 1.204e-02
Small eigenvalue found = 1.563e-02
Small eigenvalue found = 2.217e-02
Small eigenvalue found = 2.378e-02
Small eigenvalue found = 2.926e-02
The first mode is                       ....  227
The number of degrees of freedom        ....  111
Storing new coordinates                 .... done

    -----------------------------------------------------------------
                    Redundant Internal Coordinates


    -----------------------------------------------------------------
         Definition                    Initial Value    Approx d2E/dq
    -----------------------------------------------------------------
      1. B(C   1,Ir  0)                  2.1579         0.086607   
      2. B(C   2,C   1)                  1.4436         0.513204   
      3. B(C   2,Ir  0)                  2.1099         0.103335   
      4. B(C   3,Ir  0)                  2.1646         0.084528   
      5. B(C   4,Ir  0)                  2.1677         0.083548   
      6. B(C   4,C   3)                  1.4458         0.508954   
      7. B(C   4,C   1)                  1.4057         0.589904   
      8. B(C   5,Ir  0)                  2.1641         0.084677   
      9. B(C   5,C   2)                  1.4353         0.529015   
     10. B(C   5,C   3)                  1.4055         0.590343   
     11. B(N   6,Ir  0)                  2.1027         0.094839   
     12. B(C   7,N   6)                  1.4707         0.416008   
     13. B(C   8,C   7)                  1.5197         0.387930   
     14. B(H   9,C   8)                  1.0891         0.361317   
     15. B(H  10,C   8)                  1.0913         0.358373   
     16. B(H  11,C   8)                  1.0905         0.359425   
     17. B(C  12,C   7)                  1.5237         0.382346   
     18. B(H  13,C   7)                  1.0913         0.358371   
     19. B(H  14,C  12)                  1.0889         0.361565   
     20. B(H  15,C  12)                  1.0908         0.358991   
     21. B(H  16,C  12)                  1.0891         0.361318   
     22. B(C  17,N   6)                  1.2736         0.853007   
     23. B(C  18,C  17)                  1.4489         0.501642   
     24. B(H  19,C  17)                  1.0862         0.365151   
     25. B(C  20,C  18)                  1.3901         0.624183   
     26. B(C  20,Ir  0)                  2.4714         0.023386 C 
     27. B(C  21,C  20)                  1.4256         0.548428   
     28. B(S  22,C  18)                  1.7075         0.524734   
     29. B(C  23,C  21)                  1.3588         0.701254   
     30. B(C  23,S  22)                  1.7187         0.503934   
     31. B(H  24,C  20)                  1.1574         0.280937   
     32. B(H  25,C  21)                  1.0803         0.373206   
     33. B(H  26,C  23)                  1.0796         0.374243   
     34. B(H  27,C   1)                  1.0806         0.372840   
     35. B(H  28,C   2)                  1.0802         0.373288   
     36. B(H  29,C   5)                  1.0806         0.372817   
     37. B(O  30,H  24)                  1.4857         0.071521 C 
     38. B(O  31,Ir  0)                  2.0278         0.125194   
     39. B(C  32,O  30)                  1.2249         1.026280   
     40. B(C  32,O  31)                  1.2960         0.790620   
     41. B(C  33,C  32)                  1.5042         0.410787   
     42. B(H  34,C  33)                  1.0866         0.364599   
     43. B(H  35,C  33)                  1.0917         0.357838   
     44. B(H  36,C  33)                  1.0882         0.362582   
     45. B(H  37,C   3)                  1.0799         0.373678   
     46. B(H  38,C   4)                  1.0803         0.373124   
     47. A(C   2,Ir  0,O  31)          104.4538         0.267723   
     48. A(C   1,Ir  0,O  31)          142.4365         0.260720   
     49. A(C   5,Ir  0,N   6)          153.7028         0.249439   
     50. A(C   1,Ir  0,C   3)           64.4659         0.247245   
     51. A(C   1,Ir  0,C   5)           64.8710         0.247308   
     52. A(C   3,Ir  0,O  31)          117.3323         0.259778   
     53. A(C   3,Ir  0,N   6)          157.0973         0.249375   
     54. A(C   2,Ir  0,C   5)           39.2205         0.253764   
     55. A(C   3,Ir  0,C   4)           38.9917         0.245962   
     56. A(C   2,Ir  0,C   4)           65.3021         0.253264   
     57. A(C   5,Ir  0,O  31)           93.5852         0.259847   
     58. A(C   4,Ir  0,N   6)          118.8040         0.248952   
     59. A(C   1,Ir  0,C   2)           39.5211         0.254606   
     60. A(C   4,Ir  0,C   5)           64.4758         0.246025   
     61. A(C   4,Ir  0,O  31)          156.0033         0.259328   
     62. A(C   1,Ir  0,N   6)          100.9790         0.250260   
     63. A(C   2,Ir  0,C   3)           65.1423         0.253698   
     64. A(C   2,Ir  0,N   6)          115.8072         0.256836   
     65. A(C   1,Ir  0,C   4)           37.9270         0.246828   
     66. A(N   6,Ir  0,O  31)           85.1463         0.263032   
     67. A(C   3,Ir  0,C   5)           37.8940         0.246440   
     68. A(Ir  0,C   1,H  27)          123.9918         0.269626   
     69. A(C   2,C   1,C   4)          108.2132         0.415910   
     70. A(Ir  0,C   1,C   4)           71.4144         0.320696   
     71. A(C   4,C   1,H  27)          125.9295         0.352015   
     72. A(Ir  0,C   1,C   2)           68.4448         0.313506   
     73. A(C   2,C   1,H  27)          125.8154         0.343853   
     74. A(C   5,C   2,H  28)          125.7858         0.345679   
     75. A(Ir  0,C   2,C   5)           72.4291         0.324271   
     76. A(C   1,C   2,C   5)          107.2582         0.407948   
     77. A(Ir  0,C   2,C   1)           72.0341         0.322661   
     78. A(Ir  0,C   2,H  28)          126.2805         0.277043   
     79. A(C   1,C   2,H  28)          126.5945         0.343922   
     80. A(Ir  0,C   3,H  37)          124.1817         0.268727   
     81. A(C   4,C   3,C   5)          108.2629         0.415350   
     82. A(C   4,C   3,H  37)          125.7531         0.343503   
     83. A(Ir  0,C   3,C   4)           70.6217         0.311855   
     84. A(Ir  0,C   3,C   5)           71.0348         0.319465   
     85. A(C   5,C   3,H  37)          125.9838         0.352193   
     86. A(Ir  0,C   4,C   1)           70.6586         0.318818   
     87. A(Ir  0,C   4,H  38)          124.8254         0.268192   
     88. A(C   1,C   4,H  38)          126.3061         0.352060   
     89. A(C   3,C   4,H  38)          125.8038         0.343417   
     90. A(Ir  0,C   4,C   3)           70.3866         0.311267   
     91. A(C   1,C   4,C   3)          107.8888         0.415295   
     92. A(Ir  0,C   5,H  29)          122.0789         0.268704   
     93. A(C   3,C   5,H  29)          126.0143         0.352056   
     94. A(C   2,C   5,H  29)          125.5432         0.345605   
     95. A(Ir  0,C   5,C   3)           71.0712         0.319557   
     96. A(C   2,C   5,C   3)          108.2232         0.418218   
     97. A(Ir  0,C   5,C   2)           68.3504         0.313903   
     98. A(Ir  0,N   6,C  17)          112.3657         0.342158   
     99. A(C   7,N   6,C  17)          123.2093         0.422323   
    100. A(Ir  0,N   6,C   7)          124.4169         0.304183   
    101. A(N   6,C   7,C   8)          113.5812         0.370191   
    102. A(N   6,C   7,C  12)          109.5598         0.369269   
    103. A(C   8,C   7,C  12)          111.6544         0.367160   
    104. A(N   6,C   7,H  13)          104.5960         0.327875   
    105. A(C   8,C   7,H  13)          108.5121         0.326077   
    106. A(C  12,C   7,H  13)          108.5912         0.325301   
    107. A(C   7,C   8,H  11)          112.1407         0.326235   
    108. A(H   9,C   8,H  11)          107.2077         0.290908   
    109. A(H  10,C   8,H  11)          108.9238         0.290534   
    110. A(C   7,C   8,H   9)          108.8140         0.326517   
    111. A(C   7,C   8,H  10)          112.9142         0.326078   
    112. A(H   9,C   8,H  10)          106.5329         0.290774   
    113. A(C   7,C  12,H  14)          109.5291         0.325776   
    114. A(C   7,C  12,H  15)          111.3291         0.325393   
    115. A(H  14,C  12,H  15)          107.7448         0.290884   
    116. A(C   7,C  12,H  16)          112.1641         0.325739   
    117. A(H  14,C  12,H  16)          107.1951         0.291179   
    118. A(H  15,C  12,H  16)          108.6979         0.290853   
    119. A(N   6,C  17,C  18)          115.1530         0.439633   
    120. A(N   6,C  17,H  19)          122.9217         0.371226   
    121. A(C  18,C  17,H  19)          121.8856         0.341349   
    122. A(C  17,C  18,C  20)          121.7384         0.418413   
    123. A(C  17,C  18,S  22)          125.2242         0.427959   
    124. A(C  20,C  18,S  22)          112.9641         0.445148   
    125. A(C  18,C  20,C  21)          110.4397         0.425129   
    126. A(C  18,C  20,H  24)          120.5131         0.338869   
    127. A(C  21,C  20,H  24)          125.4589         0.331658   
    128. A(C  20,C  21,H  25)          123.6542         0.347768   
    129. A(C  23,C  21,H  25)          123.1439         0.362573   
    130. A(C  20,C  21,C  23)          113.1170         0.434104   
    131. A(C  18,S  22,C  23)           91.0673         0.452130   
    132. A(C  21,C  23,H  26)          127.9404         0.362745   
    133. A(S  22,C  23,H  26)          119.6408         0.360852   
    134. A(C  21,C  23,S  22)          112.3992         0.451326   
    135. A(Ir  0,O  31,C  32)          127.3877         0.353984   
    136. A(O  30,C  32,O  31)          124.5697         0.490939   
    137. A(O  30,C  32,C  33)          121.3347         0.438454   
    138. A(O  31,C  32,C  33)          114.0803         0.418417   
    139. A(C  32,C  33,H  34)          110.6002         0.330108   
    140. A(C  32,C  33,H  35)          109.1189         0.329088   
    141. A(H  34,C  33,H  35)          107.8308         0.291119   
    142. A(C  32,C  33,H  36)          111.9311         0.329805   
    143. A(H  34,C  33,H  36)          110.0236         0.291722   
    144. A(H  35,C  33,H  36)          107.1872         0.290865   
    145. D(C   2,C   1,Ir  0,C   4)    119.1683         0.001706   
    146. D(C   2,C   1,Ir  0,C   5)     39.0944         0.001706   
    147. D(H  27,C   1,Ir  0,O  31)     98.3727         0.001706   
    148. D(C   4,C   1,Ir  0,C   2)   -119.1683         0.001706   
    149. D(C   2,C   1,Ir  0,O  31)    -21.1316         0.001706   
    150. D(H  27,C   1,Ir  0,C   3)   -159.2972         0.001706   
    151. D(C   4,C   1,Ir  0,O  31)   -140.2999         0.001706   
    152. D(H  27,C   1,Ir  0,C   2)    119.5043         0.001706   
    153. D(C   4,C   1,Ir  0,C   3)    -37.9698         0.001706   
    154. D(H  27,C   1,Ir  0,N   6)      2.0072         0.001706   
    155. D(C   2,C   1,Ir  0,C   3)     81.1985         0.001706   
    156. D(C   4,C   1,Ir  0,N   6)    123.3347         0.001706   
    157. D(H  27,C   1,Ir  0,C   4)   -121.3274         0.001706   
    158. D(H  27,C   1,Ir  0,C   5)    158.5986         0.001706   
    159. D(C   4,C   1,Ir  0,C   5)    -80.0740         0.001706   
    160. D(C   2,C   1,Ir  0,N   6)   -117.4970         0.001706   
    161. D(Ir  0,C   2,C   1,H  27)   -117.1438         0.020885   
    162. D(C   1,C   2,Ir  0,C   5)   -115.4567         0.001793   
    163. D(C   1,C   2,Ir  0,C   4)    -36.2105         0.001793   
    164. D(H  28,C   2,C   1,H  27)      5.1347         0.020885   
    165. D(H  28,C   2,C   1,Ir  0)    122.2784         0.020885   
    166. D(C   5,C   2,C   1,H  27)    178.5180         0.020885   
    167. D(C   1,C   2,Ir  0,C   3)    -79.3428         0.001793   
    168. D(H  28,C   2,Ir  0,C   4)   -158.8535         0.001793   
    169. D(H  28,C   2,Ir  0,C   5)    121.9003         0.001793   
    170. D(C   5,C   2,Ir  0,C   3)     36.1139         0.001793   
    171. D(C   5,C   2,Ir  0,C   1)    115.4567         0.001793   
    172. D(H  28,C   2,C   1,C   4)   -177.1108         0.020885   
    173. D(C   5,C   2,Ir  0,C   4)     79.2462         0.001793   
    174. D(C   5,C   2,C   1,Ir  0)    -64.3382         0.020885   
    175. D(H  28,C   2,Ir  0,N   6)    -47.3423         0.001793   
    176. D(H  28,C   2,Ir  0,O  31)     44.2386         0.001793   
    177. D(Ir  0,C   2,C   1,C   4)     60.6107         0.020885   
    178. D(C   5,C   2,C   1,C   4)     -3.7275         0.020885   
    179. D(C   1,C   2,Ir  0,N   6)     75.3007         0.001793   
    180. D(C   5,C   2,Ir  0,O  31)    -77.6618         0.001793   
    181. D(H  28,C   2,Ir  0,C   1)   -122.6429         0.001793   
    182. D(C   1,C   2,Ir  0,O  31)    166.8815         0.001793   
    183. D(H  28,C   2,Ir  0,C   3)    158.0142         0.001793   
    184. D(C   5,C   2,Ir  0,N   6)   -169.2426         0.001793   
    185. D(C   4,C   3,Ir  0,C   5)    118.1731         0.001697   
    186. D(C   4,C   3,Ir  0,C   1)     36.9429         0.001697   
    187. D(C   4,C   3,Ir  0,O  31)    174.8429         0.001697   
    188. D(C   4,C   3,Ir  0,C   2)     80.8172         0.001697   
    189. D(C   5,C   3,Ir  0,O  31)     56.6698         0.001697   
    190. D(C   5,C   3,Ir  0,C   2)    -37.3559         0.001697   
    191. D(C   4,C   3,Ir  0,N   6)    -17.0144         0.001697   
    192. D(H  37,C   3,Ir  0,C   4)    120.6535         0.001697   
    193. D(H  37,C   3,Ir  0,C   1)    157.5964         0.001697   
    194. D(C   5,C   3,Ir  0,C   1)    -81.2303         0.001697   
    195. D(C   5,C   3,Ir  0,C   4)   -118.1731         0.001697   
    196. D(C   5,C   3,Ir  0,N   6)   -135.1875         0.001697   
    197. D(H  37,C   3,Ir  0,C   5)   -121.1734         0.001697   
    198. D(H  37,C   3,Ir  0,N   6)    103.6391         0.001697   
    199. D(H  37,C   3,Ir  0,O  31)    -64.5036         0.001697   
    200. D(H  37,C   3,Ir  0,C   2)   -158.5293         0.001697   
    201. D(C   1,C   4,Ir  0,C   3)    118.0781         0.001692   
    202. D(H  38,C   4,C   3,H  37)      0.6456         0.020530   
    203. D(C   1,C   4,Ir  0,C   5)     81.2088         0.001692   
    204. D(C   1,C   4,Ir  0,N   6)    -69.3888         0.001692   
    205. D(C   1,C   4,Ir  0,O  31)    106.7546         0.001692   
    206. D(C   1,C   4,Ir  0,C   2)     37.7063         0.001692   
    207. D(C   3,C   4,Ir  0,C   1)   -118.0781         0.001692   
    208. D(H  38,C   4,C   3,C   5)   -179.2392         0.020530   
    209. D(C   3,C   4,Ir  0,C   5)    -36.8694         0.001692   
    210. D(C   3,C   4,Ir  0,N   6)    172.5331         0.001692   
    211. D(C   3,C   4,Ir  0,O  31)    -11.3235         0.001692   
    212. D(Ir  0,C   4,C   1,C   2)    -58.7550         0.027947   
    213. D(H  38,C   4,Ir  0,C   2)    159.0547         0.001692   
    214. D(H  38,C   4,Ir  0,C   3)   -120.5735         0.001692   
    215. D(H  38,C   4,C   1,C   2)   -178.3023         0.027947   
    216. D(H  38,C   4,Ir  0,N   6)     51.9596         0.001692   
    217. D(H  38,C   4,Ir  0,O  31)   -131.8970         0.001692   
    218. D(Ir  0,C   4,C   1,H  27)    118.9962         0.027947   
    219. D(C   3,C   4,C   1,Ir  0)     60.8486         0.027947   
    220. D(C   3,C   4,C   1,H  27)    179.8448         0.027947   
    221. D(H  38,C   4,C   1,Ir  0)   -119.5472         0.027947   
    222. D(H  38,C   4,Ir  0,C   5)   -157.4429         0.001692   
    223. D(H  38,C   4,C   1,H  27)     -0.5510         0.027947   
    224. D(Ir  0,C   4,C   3,C   5)     61.3892         0.020530   
    225. D(Ir  0,C   4,C   3,H  37)   -118.7260         0.020530   
    226. D(C   3,C   4,C   1,C   2)      2.0936         0.027947   
    227. D(C   1,C   4,C   3,C   5)      0.3675         0.020530   
    228. D(C   1,C   4,C   3,H  37)   -179.7477         0.020530   
    229. D(H  38,C   4,C   3,Ir  0)    119.3716         0.020530   
    230. D(H  38,C   4,Ir  0,C   1)    121.3484         0.001692   
    231. D(C   1,C   4,C   3,Ir  0)    -61.0217         0.020530   
    232. D(C   3,C   4,Ir  0,C   2)    -80.3718         0.001692   
    233. D(C   2,C   5,Ir  0,C   1)    -39.3936         0.001697   
    234. D(H  29,C   5,C   3,C   4)   -177.5395         0.027991   
    235. D(C   2,C   5,Ir  0,C   4)    -81.5331         0.001697   
    236. D(C   2,C   5,Ir  0,N   6)     22.2895         0.001697   
    237. D(C   2,C   5,Ir  0,O  31)    108.5874         0.001697   
    238. D(C   3,C   5,Ir  0,C   1)     80.0660         0.001697   
    239. D(C   3,C   5,Ir  0,C   2)    119.4597         0.001697   
    240. D(C   3,C   5,Ir  0,C   4)     37.9265         0.001697   
    241. D(H  29,C   5,C   2,C   1)    178.8262         0.022237   
    242. D(C   3,C   5,Ir  0,O  31)   -131.9529         0.001697   
    243. D(H  29,C   5,Ir  0,C   1)   -158.6914         0.001697   
    244. D(C   3,C   5,C   2,Ir  0)    -60.1241         0.022237   
    245. D(H  29,C   5,Ir  0,C   3)    121.2426         0.001697   
    246. D(H  29,C   5,Ir  0,C   4)    159.1691         0.001697   
    247. D(H  29,C   5,Ir  0,N   6)    -97.0082         0.001697   
    248. D(H  29,C   5,Ir  0,O  31)    -10.7103         0.001697   
    249. D(Ir  0,C   5,C   2,C   1)     64.0763         0.022237   
    250. D(H  29,C   5,Ir  0,C   2)   -119.2977         0.001697   
    251. D(Ir  0,C   5,C   2,H  28)   -122.4721         0.022237   
    252. D(C   3,C   5,C   2,C   1)      3.9522         0.022237   
    253. D(C   3,C   5,C   2,H  28)    177.4038         0.022237   
    254. D(C   3,C   5,Ir  0,N   6)    141.7492         0.001697   
    255. D(H  29,C   5,C   2,Ir  0)    114.7499         0.022237   
    256. D(H  29,C   5,C   2,H  28)     -7.7222         0.022237   
    257. D(Ir  0,C   5,C   3,C   4)    -61.1274         0.027991   
    258. D(Ir  0,C   5,C   3,H  37)    118.9882         0.027991   
    259. D(C   2,C   5,C   3,Ir  0)     58.4313         0.027991   
    260. D(C   2,C   5,C   3,C   4)     -2.6961         0.027991   
    261. D(C   2,C   5,C   3,H  37)    177.4195         0.027991   
    262. D(C   2,C   5,Ir  0,C   3)   -119.4597         0.001697   
    263. D(H  29,C   5,C   3,Ir  0)   -116.4121         0.027991   
    264. D(H  29,C   5,C   3,H  37)      2.5761         0.027991   
    265. D(C  17,N   6,Ir  0,C   1)    -94.6269         0.001766   
    266. D(C   7,N   6,Ir  0,C   2)     45.5384         0.001766   
    267. D(C   7,N   6,Ir  0,C   3)    132.3737         0.001766   
    268. D(C   7,N   6,Ir  0,C   4)    120.2448         0.001766   
    269. D(C   7,N   6,Ir  0,C   5)     30.0886         0.001766   
    270. D(C   7,N   6,Ir  0,C   1)     84.3684         0.001766   
    271. D(C   7,N   6,Ir  0,O  31)    -58.1821         0.001766   
    272. D(C  17,N   6,Ir  0,C   2)   -133.4569         0.001766   
    273. D(C  17,N   6,Ir  0,C   3)    -46.6216         0.001766   
    274. D(C  17,N   6,Ir  0,C   4)    -58.7505         0.001766   
    275. D(C  17,N   6,Ir  0,C   5)   -148.9067         0.001766   
    276. D(C  17,N   6,Ir  0,O  31)    122.8226         0.001766   
    277. D(C   8,C   7,N   6,Ir  0)    160.8484         0.014759   
    278. D(C   8,C   7,N   6,C  17)    -20.2621         0.014759   
    279. D(C  12,C   7,N   6,Ir  0)    -73.5340         0.014759   
    280. D(C  12,C   7,N   6,C  17)    105.3555         0.014759   
    281. D(H  13,C   7,N   6,Ir  0)     42.7067         0.014759   
    282. D(H  13,C   7,N   6,C  17)   -138.4038         0.014759   
    283. D(H   9,C   8,C   7,N   6)   -170.8826         0.011970   
    284. D(H   9,C   8,C   7,C  12)     64.6224         0.011970   
    285. D(H   9,C   8,C   7,H  13)    -55.0260         0.011970   
    286. D(H  10,C   8,C   7,N   6)     71.0571         0.011970   
    287. D(H  10,C   8,C   7,C  12)    -53.4380         0.011970   
    288. D(H  10,C   8,C   7,H  13)   -173.0864         0.011970   
    289. D(H  11,C   8,C   7,N   6)    -52.4554         0.011970   
    290. D(H  11,C   8,C   7,C  12)   -176.9504         0.011970   
    291. D(H  11,C   8,C   7,H  13)     63.4011         0.011970   
    292. D(H  14,C  12,C   7,N   6)    176.6342         0.011644   
    293. D(H  14,C  12,C   7,C   8)    -56.6500         0.011644   
    294. D(H  14,C  12,C   7,H  13)     62.9517         0.011644   
    295. D(H  15,C  12,C   7,N   6)    -64.3104         0.011644   
    296. D(H  15,C  12,C   7,C   8)     62.4055         0.011644   
    297. D(H  15,C  12,C   7,H  13)   -177.9929         0.011644   
    298. D(H  16,C  12,C   7,N   6)     57.7405         0.011644   
    299. D(H  16,C  12,C   7,C   8)   -175.5437         0.011644   
    300. D(H  16,C  12,C   7,H  13)    -55.9420         0.011644   
    301. D(C  18,C  17,N   6,Ir  0)     -8.1188         0.063056   
    302. D(C  18,C  17,N   6,C   7)    172.8718         0.063056   
    303. D(H  19,C  17,N   6,Ir  0)    174.1355         0.063056   
    304. D(H  19,C  17,N   6,C   7)     -4.8739         0.063056   
    305. D(C  20,C  18,C  17,N   6)    -41.1744         0.017142   
    306. D(C  20,C  18,C  17,H  19)    136.5970         0.017142   
    307. D(S  22,C  18,C  17,N   6)    135.4889         0.017142   
    308. D(S  22,C  18,C  17,H  19)    -46.7396         0.017142   
    309. D(C  21,C  20,C  18,C  17)    175.8293         0.029322   
    310. D(C  21,C  20,C  18,S  22)     -1.2107         0.029322   
    311. D(H  24,C  20,C  18,C  17)    -24.4094         0.029322   
    312. D(H  24,C  20,C  18,S  22)    158.5505         0.029322   
    313. D(C  23,C  21,C  20,C  18)      0.8164         0.022323   
    314. D(C  23,C  21,C  20,H  24)   -157.7215         0.022323   
    315. D(H  25,C  21,C  20,C  18)    177.5543         0.022323   
    316. D(H  25,C  21,C  20,H  24)     19.0164         0.022323   
    317. D(C  23,S  22,C  18,C  17)   -175.9111         0.005601   
    318. D(C  23,S  22,C  18,C  20)      1.0072         0.005601   
    319. D(S  22,C  23,C  21,C  20)     -0.0742         0.034645   
    320. D(S  22,C  23,C  21,H  25)   -176.8312         0.034645   
    321. D(H  26,C  23,C  21,C  20)    178.2905         0.034645   
    322. D(H  26,C  23,C  21,H  25)      1.5335         0.034645   
    323. D(C  21,C  23,S  22,C  18)     -0.5242         0.005267   
    324. D(H  26,C  23,S  22,C  18)   -179.0404         0.005267   
    325. D(C  32,O  31,Ir  0,C   1)   -173.3530         0.001939   
    326. D(C  32,O  31,Ir  0,C   2)    172.9426         0.001939   
    327. D(C  32,O  31,Ir  0,C   3)    103.7629         0.001939   
    328. D(C  32,O  31,Ir  0,C   4)    111.7569         0.001939   
    329. D(C  32,O  31,Ir  0,C   5)    134.7058         0.001939   
    330. D(C  32,O  31,Ir  0,N   6)    -71.6341         0.001939   
    331. D(O  30,C  32,O  31,Ir  0)      2.2877         0.048042   
    332. D(C  33,C  32,O  31,Ir  0)   -176.3000         0.048042   
    333. D(H  34,C  33,C  32,O  30)     21.8766         0.012496   
    334. D(H  34,C  33,C  32,O  31)   -159.4849         0.012496   
    335. D(H  35,C  33,C  32,O  30)    -96.5817         0.012496   
    336. D(H  35,C  33,C  32,O  31)     82.0568         0.012496   
    337. D(H  36,C  33,C  32,O  30)    144.9473         0.012496   
    338. D(H  36,C  33,C  32,O  31)    -36.4143         0.012496   
    -----------------------------------------------------------------

Number of atoms                         .... 39
Number of degrees of freedom            .... 338

         *************************************************************
         *                GEOMETRY OPTIMIZATION CYCLE   1            *
         *************************************************************
---------------------------------
CARTESIAN COORDINATES (ANGSTROEM)
---------------------------------
  Ir     0.592913   -0.715393    0.427335
  C      0.040439   -2.798294    0.314184
  C      0.142285   -2.350182    1.682679
  C      2.211649   -2.126203    0.700436
  C      1.295833   -2.633943   -0.296529
  C      1.513105   -1.992235    1.912647
  N     -1.049886    0.187004   -0.525744
  C     -2.314199    0.528934    0.143292
  C     -3.141459    1.557862   -0.609408
  H     -3.970123    1.873081    0.023094
  H     -3.583167    1.160627   -1.524863
  H     -2.564311    2.450341   -0.853544
  C     -3.108726   -0.742875    0.413194
  H     -2.011729    0.959687    1.099288
  H     -4.016461   -0.495542    0.961413
  H     -3.404375   -1.230830   -0.516553
  H     -2.550608   -1.455182    1.019186
  C     -0.839236    0.390707   -1.765157
  C      0.516959    0.139432   -2.208752
  H     -1.604366    0.762208   -2.440771
  C      1.617164    0.522619   -1.450481
  C      2.824196    0.074978   -2.062929
  S      0.948138   -0.703962   -3.629394
  C      2.615713   -0.591113   -3.228744
  H      1.532373    1.389442   -0.688172
  H      3.808657    0.289278   -1.672986
  H      3.354691   -1.007083   -3.896870
  H     -0.856550   -3.160061   -0.167612
  H     -0.635453   -2.385739    2.431521
  H      1.913631   -1.601090    2.836882
  O      1.253164    2.491989    0.267746
  O      0.544623    0.895812    1.657568
  C      0.880743    2.114430    1.371862
  C      0.810388    3.060249    2.539335
  H      0.743964    4.088661    2.194760
  H      1.721968    2.964625    3.132438
  H     -0.026330    2.832807    3.196798
  H      3.253673   -1.892665    0.539403
  H      1.540080   -2.853191   -1.325814

----------------------------
CARTESIAN COORDINATES (A.U.)
----------------------------
  NO LB      ZA    FRAG     MASS         X           Y           Z
   0 Ir   17.0000*   0   192.220    1.120443   -1.351896    0.807546
   1 C     6.0000    0    12.011    0.076419   -5.288009    0.593722
   2 C     6.0000    0    12.011    0.268880   -4.441200    3.179803
   3 C     6.0000    0    12.011    4.179411   -4.017941    1.323632
   4 C     6.0000    0    12.011    2.448769   -4.977431   -0.560358
   5 C     6.0000    0    12.011    2.859355   -3.764778    3.614379
   6 N     7.0000    0    14.007   -1.983996    0.353387   -0.993512
   7 C     6.0000    0    12.011   -4.373202    0.999540    0.270783
   8 C     6.0000    0    12.011   -5.936497    2.943933   -1.151613
   9 H     1.0000    0     1.008   -7.502446    3.539610    0.043641
  10 H     1.0000    0     1.008   -6.771204    2.193267   -2.881574
  11 H     1.0000    0     1.008   -4.845846    4.630473   -1.612964
  12 C     6.0000    0    12.011   -5.874642   -1.403831    0.780824
  13 H     1.0000    0     1.008   -3.801618    1.813545    2.077354
  14 H     1.0000    0     1.008   -7.590012   -0.936439    1.816807
  15 H     1.0000    0     1.008   -6.433337   -2.325931   -0.976143
  16 H     1.0000    0     1.008   -4.819950   -2.749895    1.925982
  17 C     6.0000    0    12.011   -1.585927    0.738330   -3.335663
  18 C     6.0000    0    12.011    0.976911    0.263488   -4.173937
  19 H     1.0000    0     1.008   -3.031812    1.440364   -4.612388
  20 C     6.0000    0    12.011    3.055998    0.987607   -2.741013
  21 C     6.0000    0    12.011    5.336958    0.141688   -3.898371
  22 S    16.0000    0    32.060    1.791721   -1.330296   -6.858561
  23 C     6.0000    0    12.011    4.942982   -1.117042   -6.101441
  24 H     1.0000    0     1.008    2.895766    2.625664   -1.300456
  25 H     1.0000    0     1.008    7.197318    0.546656   -3.161485
  26 H     1.0000    0     1.008    6.339448   -1.903111   -7.364018
  27 H     1.0000    0     1.008   -1.618645   -5.971649   -0.316740
  28 H     1.0000    0     1.008   -1.200833   -4.508394    4.594909
  29 H     1.0000    0     1.008    3.616239   -3.025622    5.360930
  30 O     8.0000    0    15.999    2.368137    4.709177    0.505966
  31 O     8.0000    0    15.999    1.029188    1.692839    3.132349
  32 C     6.0000    0    12.011    1.664363    3.995693    2.592443
  33 C     6.0000    0    12.011    1.531411    5.783033    4.798648
  34 H     1.0000    0     1.008    1.405889    7.726450    4.147496
  35 H     1.0000    0     1.008    3.254047    5.602330    5.919450
  36 H     1.0000    0     1.008   -0.049756    5.353229    6.041072
  37 H     1.0000    0     1.008    6.148552   -3.576618    1.019325
  38 H     1.0000    0     1.008    2.910329   -5.391750   -2.505426
* core charge reduced due to ECP

--------------------------------
INTERNAL COORDINATES (ANGSTROEM)
--------------------------------
 Ir     0   0   0     0.000000000000     0.00000000     0.00000000
 C      1   0   0     2.157900322650     0.00000000     0.00000000
 C      2   1   0     1.443558134028    68.44393288     0.00000000
 C      1   2   3     2.164513680960    64.46483014    81.19875883
 C      2   1   3     1.405642820725    71.41466239   240.83148081
 C      4   1   2     1.405440150954    71.03462971   278.76950384
 N      1   2   3     2.103183142863   100.97974636   242.50225680
 C      7   1   2     1.470713528184   124.17802850    84.34729223
 C      8   7   1     1.519735977707   113.58131999   160.86169117
 H      9   8   7     1.089081327004   108.81413982   189.11742155
 H      9   8   7     1.091308299798   112.91393510    71.05705385
 H      9   8   7     1.090510979728   112.14084099   307.54447670
 C      8   7   1     1.523682778646   109.55960686   286.47933535
 H      8   7   1     1.091310302367   104.59607717    42.72014998
 H     13   8   7     1.088894965457   109.52885617   176.63421603
 H     13   8   7     1.090839496204   111.32921000   295.68968962
 H     13   8   7     1.089080818899   112.16427004    57.74043790
 C      7   1   2     1.275249454641   112.83944822   265.38191503
 C     18   7   1     1.449760663023   115.68164254   351.76174378
 H     18   7   1     1.086208140106   122.66264270   174.01756232
 C     19  18   7     1.390267271469   121.91331526   318.68446711
 C     21  19  18     1.425487919190   110.46745839   175.86561267
 S     19  18   7     1.707510223083   125.10308284   135.42992602
 C     22  21  19     1.358574966146   113.11638149     0.83439172
 H     21  19  18     1.157576913959   120.50320499   335.63368126
 H     22  21  19     1.080268712603   123.65302659   177.56489896
 H     24  22  21     1.079513738274   127.94511845   178.28271896
 H      2   1   3     1.080535569652   123.99243674   119.50446771
 H      3   2   1     1.080208877675   126.59418492   122.27877784
 H      6   4   1     1.080552712046   126.01425776   243.58915651
 O     25  21  19     1.499999995930   172.62989362    21.50229835
 O      1   2   3     2.027595339790   142.44018411   338.86687437
 C     31  25  21     1.224910218135   115.75748293    68.19210528
 C     33  31  25     1.504151637290   121.34516783   168.15955361
 H     34  33  31     1.086619975752   110.60129835    21.87735640
 H     34  33  31     1.091715426500   109.11950037   263.41948533
 H     34  33  31     1.088130136793   111.92996493   144.94841346
 H      4   1   2     1.079925098680   124.18072806   157.59632064
 H      5   2   1     1.080328589169   126.30497112   240.45184323

---------------------------
INTERNAL COORDINATES (A.U.)
---------------------------
 Ir     0   0   0     0.000000000000     0.00000000     0.00000000
 C      1   0   0     4.077840634109     0.00000000     0.00000000
 C      2   1   0     2.727929531707    68.44393288     0.00000000
 C      1   2   3     4.090338070141    64.46483014    81.19875883
 C      2   1   3     2.656279973283    71.41466239   240.83148081
 C      4   1   2     2.655896982919    71.03462971   278.76950384
 N      1   2   3     3.974440149491   100.97974636   242.50225680
 C      7   1   2     2.779245789722   124.17802850    84.34729223
 C      8   7   1     2.871884793733   113.58131999   160.86169117
 H      9   8   7     2.058065445605   108.81413982   189.11742155
 H      9   8   7     2.062273814293   112.91393510    71.05705385
 H      9   8   7     2.060767097720   112.14084099   307.54447670
 C      8   7   1     2.879343166612   109.55960686   286.47933535
 H      8   7   1     2.062277598600   104.59607717    42.72014998
 H     13   8   7     2.057713273319   109.52885617   176.63421603
 H     13   8   7     2.061387903891   111.32921000   295.68968962
 H     13   8   7     2.058064485426   112.16427004    57.74043790
 C      7   1   2     2.409872221704   112.83944822   265.38191503
 C     18   7   1     2.739650612846   115.68164254   351.76174378
 H     18   7   1     2.052635909237   122.66264270   174.01756232
 C     19  18   7     2.627224396031   121.91331526   318.68446711
 C     21  19  18     2.693781774483   110.46745839   175.86561267
 S     19  18   7     3.226726692498   125.10308284   135.42992602
 C     22  21  19     2.567334618417   113.11638149     0.83439172
 H     21  19  18     2.187503346332   120.50320499   335.63368126
 H     22  21  19     2.041412017863   123.65302659   177.56489896
 H     24  22  21     2.039985323144   127.94511845   178.28271896
 H      2   1   3     2.041916304603   123.99243674   119.50446771
 H      3   2   1     2.041298946236   126.59418492   122.27877784
 H      6   4   1     2.041948699032   126.01425776   243.58915651
 O     25  21  19     2.834589193191   172.62989362    21.50229835
 O      1   2   3     3.831599902617   142.44018411   338.86687437
 C     31  25  21     2.314744850918   115.75748293    68.19210528
 C     33  31  25     2.842434658367   121.34516783   168.15955361
 H     34  33  31     2.053414165820   110.60129835    21.87735640
 H     34  33  31     2.063043172263   109.11950037   263.41948533
 H     34  33  31     2.056267956604   111.92996493   144.94841346
 H      4   1   2     2.040762681653   124.18072806   157.59632064
 H      5   2   1     2.041525168175   126.30497112   240.45184323

---------------------
BASIS SET INFORMATION
---------------------
There are 6 groups of distinct atoms

 Group   1 Type Ir  : 7s6p5d1f contracted to 6s3p2d1f pattern {211111/411/41/1}
 Group   2 Type C   : 8s4p1d contracted to 4s2p1d pattern {5111/31/1}
 Group   3 Type N   : 8s4p1d contracted to 4s2p1d pattern {5111/31/1}
 Group   4 Type H   : 4s contracted to 2s pattern {31}
 Group   5 Type S   : 10s7p1d contracted to 4s3p1d pattern {5311/511/1}
 Group   6 Type O   : 8s4p1d contracted to 4s2p1d pattern {5111/31/1}

Atom   0Ir   basis set group =>   1
Atom   1C    basis set group =>   2
Atom   2C    basis set group =>   2
Atom   3C    basis set group =>   2
Atom   4C    basis set group =>   2
Atom   5C    basis set group =>   2
Atom   6N    basis set group =>   3
Atom   7C    basis set group =>   2
Atom   8C    basis set group =>   2
Atom   9H    basis set group =>   4
Atom  10H    basis set group =>   4
Atom  11H    basis set group =>   4
Atom  12C    basis set group =>   2
Atom  13H    basis set group =>   4
Atom  14H    basis set group =>   4
Atom  15H    basis set group =>   4
Atom  16H    basis set group =>   4
Atom  17C    basis set group =>   2
Atom  18C    basis set group =>   2
Atom  19H    basis set group =>   4
Atom  20C    basis set group =>   2
Atom  21C    basis set group =>   2
Atom  22S    basis set group =>   5
Atom  23C    basis set group =>   2
Atom  24H    basis set group =>   4
Atom  25H    basis set group =>   4
Atom  26H    basis set group =>   4
Atom  27H    basis set group =>   4
Atom  28H    basis set group =>   4
Atom  29H    basis set group =>   4
Atom  30O    basis set group =>   6
Atom  31O    basis set group =>   6
Atom  32C    basis set group =>   2
Atom  33C    basis set group =>   2
Atom  34H    basis set group =>   4
Atom  35H    basis set group =>   4
Atom  36H    basis set group =>   4
Atom  37H    basis set group =>   4
Atom  38H    basis set group =>   4
---------------------------------
AUXILIARY/J BASIS SET INFORMATION
---------------------------------
There are 6 groups of distinct atoms

 Group   1 Type Ir  : 11s5p5d3f3g contracted to 8s5p5d2f3g pattern {41111111/11111/11111/21/111}
 Group   2 Type C   : 12s5p4d2f1g contracted to 6s4p3d1f1g pattern {711111/2111/211/2/1}
 Group   3 Type N   : 12s5p4d2f1g contracted to 6s4p3d1f1g pattern {711111/2111/211/2/1}
 Group   4 Type H   : 5s2p1d contracted to 3s1p1d pattern {311/2/1}
 Group   5 Type S   : 14s5p5d2f1g contracted to 8s4p3d1f1g pattern {71111111/2111/311/2/1}
 Group   6 Type O   : 12s5p4d2f1g contracted to 6s4p3d1f1g pattern {711111/2111/211/2/1}

Atom   0Ir   basis set group =>   1
Atom   1C    basis set group =>   2
Atom   2C    basis set group =>   2
Atom   3C    basis set group =>   2
Atom   4C    basis set group =>   2
Atom   5C    basis set group =>   2
Atom   6N    basis set group =>   3
Atom   7C    basis set group =>   2
Atom   8C    basis set group =>   2
Atom   9H    basis set group =>   4
Atom  10H    basis set group =>   4
Atom  11H    basis set group =>   4
Atom  12C    basis set group =>   2
Atom  13H    basis set group =>   4
Atom  14H    basis set group =>   4
Atom  15H    basis set group =>   4
Atom  16H    basis set group =>   4
Atom  17C    basis set group =>   2
Atom  18C    basis set group =>   2
Atom  19H    basis set group =>   4
Atom  20C    basis set group =>   2
Atom  21C    basis set group =>   2
Atom  22S    basis set group =>   5
Atom  23C    basis set group =>   2
Atom  24H    basis set group =>   4
Atom  25H    basis set group =>   4
Atom  26H    basis set group =>   4
Atom  27H    basis set group =>   4
Atom  28H    basis set group =>   4
Atom  29H    basis set group =>   4
Atom  30O    basis set group =>   6
Atom  31O    basis set group =>   6
Atom  32C    basis set group =>   2
Atom  33C    basis set group =>   2
Atom  34H    basis set group =>   4
Atom  35H    basis set group =>   4
Atom  36H    basis set group =>   4
Atom  37H    basis set group =>   4
Atom  38H    basis set group =>   4
-------------------------
ECP PARAMETER INFORMATION
-------------------------

 Group 1, Type Ir ECP Def2-ECP (replacing 60 core electrons, lmax=3)

Atom   0Ir   ECP group =>   1

------------------------------------------------------------------------------
                           ORCA GTO INTEGRAL CALCULATION
                           -- RI-GTO INTEGRALS CHOSEN --
------------------------------------------------------------------------------
------------------------------------------------------------------------------
                   ___                                                        
                  /   \      - P O W E R E D   B Y -                         
                 /     \                                                     
                 |  |  |   _    _      __       _____    __    __             
                 |  |  |  | |  | |    /  \     |  _  \  |  |  /  |          
                  \  \/   | |  | |   /    \    | | | |  |  | /  /          
                 / \  \   | |__| |  /  /\  \   | |_| |  |  |/  /          
                |  |  |   |  __  | /  /__\  \  |    /   |      \           
                |  |  |   | |  | | |   __   |  |    \   |  |\   \          
                \     /   | |  | | |  |  |  |  | |\  \  |  | \   \       
                 \___/    |_|  |_| |__|  |__|  |_| \__\ |__|  \__/        
                                                                              
                      - O R C A' S   B I G   F R I E N D -                    
                                      &                                       
                       - I N T E G R A L  F E E D E R -                       
                                                                              
 v1 FN, 2020, v2 2021                                                         
------------------------------------------------------------------------------


Reading SHARK input file reaction4-IEIP_ts_guess_scan_3-1_orca.SHARKINP.tmp ... ok
----------------------
SHARK INTEGRAL PACKAGE
----------------------

Number of atoms                             ...     39
Number of basis functions                   ...    358
Number of shells                            ...    184
Maximum angular momentum                    ...      3
Integral batch strategy                     ... SHARK/LIBINT Hybrid
RI-J (if used) integral strategy            ... SPLIT-RIJ (Revised 2003 algorithm where possible)
Printlevel                                  ...      1
Contraction scheme used                     ... SEGMENTED contraction
Coulomb Range Separation                    ... NOT USED
Exchange Range Separation                   ... NOT USED
Finite Nucleus Model                        ... NOT USED
Auxiliary Coulomb fitting basis             ... AVAILABLE
   # of basis functions in Aux-J            ...   1231
   # of shells in Aux-J                     ...    405
   Maximum angular momentum in Aux-J        ...      4
Auxiliary J/K fitting basis                 ... NOT available
Auxiliary Correlation fitting basis         ... NOT available
Auxiliary 'external' fitting basis          ... NOT available
Integral threshold                          ...     2.500000e-11
Primitive cut-off                           ...     2.500000e-12
Primitive pair pre-selection threshold      ...     2.500000e-12

Calculating pre-screening integrals         ... done (  0.1 sec) Dimension = 184
Organizing shell pair data                  ... done (  0.1 sec)
Shell pair information
Total number of shell pairs                 ...     17020
Shell pairs after pre-screening             ...     13009
Total number of primitive shell pairs       ...     60705
Primitive shell pairs kept                  ...     29304
          la=0 lb=0:   4981 shell pairs
          la=1 lb=0:   4266 shell pairs
          la=1 lb=1:    857 shell pairs
          la=2 lb=0:   1761 shell pairs
          la=2 lb=1:    787 shell pairs
          la=2 lb=2:    180 shell pairs
          la=3 lb=0:    113 shell pairs
          la=3 lb=1:     42 shell pairs
          la=3 lb=2:     21 shell pairs
          la=3 lb=3:      1 shell pairs

Calculating one electron integrals          ... done (  0.1 sec)
Calculating ECP integrals                   ... done (  0.8 sec)
Calculating RI/J V-Matrix + Cholesky decomp.... done (  0.1 sec)
Calculating Nuclear repulsion               ... done (  0.0 sec) ENN=   2043.765101966198 Eh

SHARK setup successfully completed in   1.4 seconds

Maximum memory used throughout the entire GTOINT-calculation: 91.7 MB
-------------------------------------------------------------------------------
                                 ORCA SCF
-------------------------------------------------------------------------------

------------
SCF SETTINGS
------------
Hamiltonian:
 Density Functional     Method          .... DFT(GTOs)
 Exchange Functional    Exchange        .... PBE
   PBE kappa parameter   XKappa         ....  1.024500
   PBE mue parameter    XMuePBE         ....  0.123457
 Correlation Functional Correlation     .... PBE
   PBE beta parameter  CBetaPBE         ....  0.030000
 LDA part of GGA corr.  LDAOpt          .... PW91-LDA
 Gradients option       PostSCFGGA      .... off
 Hybrid DFT is turned on
   Fraction HF Exchange ScalHFX         ....  0.420000
   Scaling of DF-GGA-X  ScalDFX         ....  0.580000
   Scaling of DF-GGA-C  ScalDFC         ....  1.000000
   Scaling of DF-LDA-C  ScalLDAC        ....  1.000000
   Perturbative correction              ....  0.000000
   Density functional embedding theory  .... OFF
 RI-approximation to the Coulomb term is turned on
   Number of AuxJ basis functions       .... 1231
   RIJ-ON(X) (HFX calculated with O(N)) .... on
   Number of AuxJ basis functions       .... 1231
   RIJ-COSX (HFX calculated with COS-X)).... on


General Settings:
 Integral files         IntName         .... reaction4-IEIP_ts_guess_scan_3-1_orca
 Hartree-Fock type      HFTyp           .... RHF
 Total Charge           Charge          ....    1
 Multiplicity           Mult            ....    1
 Number of Electrons    NEL             ....  164
 Basis Dimension        Dim             ....  358
 Nuclear Repulsion      ENuc            ....   2043.7651019662 Eh

Convergence Acceleration:
 DIIS                   CNVDIIS         .... on
   Start iteration      DIISMaxIt       ....    12
   Startup error        DIISStart       ....  0.200000
   # of expansion vecs  DIISMaxEq       ....     5
   Bias factor          DIISBfac        ....   1.050
   Max. coefficient     DIISMaxC        ....  10.000
 Trust-Rad. Augm. Hess. CNVTRAH         .... auto
   Auto Start mean grad. ratio tolernc. ....  1.125000
   Auto Start start iteration           ....    20
   Auto Start num. interpolation iter.  ....    10
   Max. Number of Micro iterations      ....    16
   Max. Number of Macro iterations      .... Maxiter - #DIIS iter
   Number of Davidson start vectors     ....     2
   Converg. threshold I  (grad. norm)   ....   1.000e-05
   Converg. threshold II (energy diff.) ....   1.000e-08
   Grad. Scal. Fac. for Micro threshold ....   0.100
   Minimum threshold for Micro iter.    ....   0.010
   NR start threshold (gradient norm)   ....   0.001
   Initial trust radius                 ....   0.400
   Minimum AH scaling param. (alpha)    ....   1.000
   Maximum AH scaling param. (alpha)    .... 1000.000
   Orbital update algorithm             .... Taylor
   White noise on init. David. guess    .... on
   Maximum white noise                  ....   0.010
   Quad. conv. algorithm                .... NR
   COSX micro iterations for RIJONX calc.... off
 SOSCF                  CNVSOSCF        .... off
 Level Shifting         CNVShift        .... on
   Level shift para.    LevelShift      ....    0.2500
   Turn off err/grad.   ShiftErr        ....    0.0010
 Zerner damping         CNVZerner       .... off
 Static damping         CNVDamp         .... on
   Fraction old density DampFac         ....    0.7000
   Max. Damping (<1)    DampMax         ....    0.9800
   Min. Damping (>=0)   DampMin         ....    0.0000
   Turn off err/grad.   DampErr         ....    0.1000
 Fernandez-Rico         CNVRico         .... off

SCF Procedure:
 Maximum # iterations   MaxIter         ....   250
 SCF integral mode      SCFMode         .... Direct
   Integral package                     .... SHARK and LIBINT hybrid scheme
 Reset frequency        DirectResetFreq ....    20
 Integral Threshold     Thresh          ....  2.500e-11 Eh
 Primitive CutOff       TCut            ....  2.500e-12 Eh

Convergence Tolerance:
 Convergence Check Mode ConvCheckMode   .... Total+1el-Energy
 Convergence forced     ConvForced      .... 0
 Energy Change          TolE            ....  1.000e-08 Eh
 1-El. energy change                    ....  1.000e-05 Eh
 DIIS Error             TolErr          ....  5.000e-07


Diagonalization of the overlap matrix:
Smallest eigenvalue                        ... 1.083e-03
Time for diagonalization                   ...    0.016 sec
Threshold for overlap eigenvalues          ... 1.000e-08
Number of eigenvalues below threshold      ... 0
Time for construction of square roots      ...    0.007 sec
Total time needed                          ...    0.023 sec

--------------------
INITIAL GUESS: HCORE
--------------------
                      -----------------
                      INTIAL GUESS DONE 
                      -----------------
-------------------
DFT GRID GENERATION
-------------------

General Integration Accuracy     IntAcc      ... 4.159
Radial Grid Type                 RadialGrid  ... OptM3 with GC (2021)
Angular Grid (max. ang.)         AngularGrid ... 3 (Lebedev-194)
Angular grid pruning method      GridPruning ... 4 (adaptive)
Weight generation scheme         WeightScheme... Becke
Basis function cutoff            BFCut       ... 1.0000e-11
Integration weight cutoff        WCut        ... 1.0000e-14
Angular grids for H and He will be reduced by one unit
Partially contracted basis set               ... off
Rotationally invariant grid construction     ... off

Total number of grid points                  ...    93293
Total number of batches                      ...     1477
Average number of points per batch           ...       63
Average number of grid points per atom       ...     2392
Time for grid setup =    1.709 sec

--------------------
COSX GRID GENERATION
--------------------

GRIDX 1
-------
General Integration Accuracy     IntAcc      ... 3.816
Radial Grid Type                 RadialGrid  ... OptM3 with GC (2021)
Angular Grid (max. ang.)         AngularGrid ... 1 (Lebedev-50)
Angular grid pruning method      GridPruning ... 4 (adaptive)
Weight generation scheme         WeightScheme... Becke
Basis function cutoff            BFCut       ... 1.0000e-11
Integration weight cutoff        WCut        ... 1.0000e-14
Angular grids for H and He will be reduced by one unit
Partially contracted basis set               ... on
Rotationally invariant grid construction     ... off

Total number of grid points                  ...    23169
Total number of batches                      ...      380
Average number of points per batch           ...       60
Average number of grid points per atom       ...      594
UseSFitting                                  ... on

GRIDX 2
-------
General Integration Accuracy     IntAcc      ... 4.020
Radial Grid Type                 RadialGrid  ... OptM3 with GC (2021)
Angular Grid (max. ang.)         AngularGrid ... 2 (Lebedev-110)
Angular grid pruning method      GridPruning ... 4 (adaptive)
Weight generation scheme         WeightScheme... Becke
Basis function cutoff            BFCut       ... 1.0000e-11
Integration weight cutoff        WCut        ... 1.0000e-14
Angular grids for H and He will be reduced by one unit
Partially contracted basis set               ... on
Rotationally invariant grid construction     ... off

Total number of grid points                  ...    50302
Total number of batches                      ...      807
Average number of points per batch           ...       62
Average number of grid points per atom       ...     1290
UseSFitting                                  ... on

GRIDX 3
-------
General Integration Accuracy     IntAcc      ... 4.338
Radial Grid Type                 RadialGrid  ... OptM3 with GC (2021)
Angular Grid (max. ang.)         AngularGrid ... 3 (Lebedev-194)
Angular grid pruning method      GridPruning ... 4 (adaptive)
Weight generation scheme         WeightScheme... Becke
Basis function cutoff            BFCut       ... 1.0000e-11
Integration weight cutoff        WCut        ... 1.0000e-14
Angular grids for H and He will be reduced by one unit
Partially contracted basis set               ... on
Rotationally invariant grid construction     ... off

Total number of grid points                  ...   108771
Total number of batches                      ...     1719
Average number of points per batch           ...       63
Average number of grid points per atom       ...     2789
UseSFitting                                  ... on

Time for X-Grid setup             =    4.564 sec

--------------
SCF ITERATIONS
--------------
ITER       Energy         Delta-E        Max-DP      RMS-DP      [F,P]     Damp
               ***  Starting incremental Fock matrix formation  ***
  0   -861.4450462870   0.00000000000019.67218608  0.14633282  2.7311548 0.7000
  1  -1098.0030049325-236.557958645415 9.29888913  0.12126570  1.4770281 0.7000
  2  -1166.6146705011 -68.611665568640 5.54959513  0.06548664  1.0614107 0.7000
  3  -1192.5384039707 -25.923733469568 3.85030679  0.04525557  0.7728457 0.7000
  4  -1210.3512274837 -17.812823513005 2.71846638  0.03636640  0.4598719 0.7000
  5  -1224.7760583703 -14.424830886631 2.43719537  0.03116813  0.3683781 0.7000
  6  -1233.5213515298  -8.745293159521 1.81592117  0.02761086  0.3518146 0.7000
  7  -1241.7990465097  -8.277694979899 1.86729747  0.02486222  0.3304231 0.7000
  8  -1246.9032607946  -5.104214284833 1.86606396  0.02549231  0.3710182 0.7000
  9  -1250.5803203448  -3.677059550208 1.64970125  0.02330359  0.3531084 0.7000
 10  -1253.1310552468  -2.550734902004 1.56704467  0.02363542  0.3949912 0.7000
 11  -1255.0163297056  -1.885274458812 1.55353206  0.02330897  0.3609201 0.7000
                               ***Turning on DIIS***
 12  -1256.3950943541  -1.378764648548 1.53009808  0.02340915  0.4033318 0.7000
 13  -1257.3290783567  -0.933984002559 1.40266648  0.01981603  0.3636533 0.7000
 14  -1267.3767500175 -10.047671660783 0.99068323  0.01401162  0.2308302 0.7000
 15  -1274.0824212533  -6.705671235865 0.68969084  0.00994815  0.1819028 0.7000
 16  -1278.4633255568  -4.380904303480 1.61774957  0.02344998  0.0846414 0.0000
 17  -1288.0638039893  -9.600478432511 0.02056161  0.00057804  0.1453647 0.7000
 18  -1288.1634312526  -0.099627263284 0.02830838  0.00066584  0.1108246 0.7000
 19  -1288.2517399799  -0.088308727282 0.08736226  0.00214637  0.0780045 0.0000
               *** Restarting incremental Fock matrix formation ***
                                   *** Resetting DIIS ***
 20  -1288.4335066697  -0.181766689846 0.02331593  0.00065190  0.0106565 0.0000
 21  -1288.4423037964  -0.008797126711 0.00816381  0.00022508  0.0108097 0.0000
 22  -1288.4446566014  -0.002352804928 0.00720745  0.00015264  0.0027154 0.0000
 23  -1288.4451501014  -0.000493500075 0.00491620  0.00007275  0.0020387 0.0000
 24  -1288.4453337767  -0.000183675297 0.00340596  0.00004532  0.0014631 0.0000
 25  -1288.4453953630  -0.000061586287 0.00250373  0.00005019  0.0007483 0.0000
               *** Restarting incremental Fock matrix formation ***
                                   *** Resetting DIIS ***
 26  -1288.4462946717  -0.000899308689 0.00465906  0.00008592  0.0008146 0.0000
 27  -1288.4463064891  -0.000011817377 0.00140648  0.00001537  0.0011289 0.0000
 28  -1288.4463161526  -0.000009663518 0.00057277  0.00000826  0.0002271 0.0000
 29  -1288.4463164780  -0.000000325384 0.00026207  0.00000309  0.0002134 0.0000
 30  -1288.4463168342  -0.000000356185 0.00015128  0.00000174  0.0000711 0.0000
 31  -1288.4463168846  -0.000000050453 0.00005330  0.00000077  0.0000238 0.0000
 32  -1288.4463168867  -0.000000002034 0.00003145  0.00000039  0.0000129 0.0000
 33  -1288.4463168762   0.000000010474 0.00002148  0.00000023  0.0000064 0.0000
 34  -1288.4463168643   0.000000011942 0.00001407  0.00000016  0.0000031 0.0000
 35  -1288.4463168584   0.000000005858 0.00000224  0.00000004  0.0000019 0.0000
 36  -1288.4463168549   0.000000003525 0.00000407  0.00000003  0.0000021 0.0000
                            ***DIIS convergence achieved***

               *****************************************************
               *                     SUCCESS                       *
               *           SCF CONVERGED AFTER  37 CYCLES          *
               *****************************************************

Old exchange energy                            =    -59.663668675 Eh
New exchange energy                            =    -59.663609334 Eh
Exchange energy change after final integration =      0.000059341 Eh
Total energy after final integration           =  -1288.446257517 Eh
Final COS-X integration done in                =    58.236 sec

----------------
TOTAL SCF ENERGY
----------------

Total Energy       :        -1288.44625752 Eh          -35060.40510 eV

Components:
Nuclear Repulsion  :         2043.76510197 Eh           55613.67577 eV
Electronic Energy  :        -3332.21135948 Eh          -90674.08087 eV
One Electron Energy:        -5842.90489472 Eh         -158993.52526 eV
Two Electron Energy:         2510.69353524 Eh           68319.44439 eV
Max COSX asymmetry :            0.00001918 Eh               0.00052 eV

Virial components:
Potential Energy   :        -2501.58989647 Eh          -68071.72178 eV
Kinetic Energy     :         1213.14363895 Eh           33011.31668 eV
Virial Ratio       :            2.06207230


DFT components:
N(Alpha)           :       82.000389694357 electrons
N(Beta)            :       82.000389694357 electrons
N(Total)           :      164.000779388714 electrons
E(X)               :      -79.596492265115 Eh       
E(C)               :       -7.454798744603 Eh       
E(XC)              :      -87.051291009718 Eh       
DFET-embed. en.    :        0.000000000000 Eh       

---------------
SCF CONVERGENCE
---------------

  Last Energy change         ...   -3.2414e-09  Tolerance :   1.0000e-08
  Last MAX-Density change    ...    0.0000e+00  Tolerance :   1.0000e-07
  Last RMS-Density change    ...    0.0000e+00  Tolerance :   5.0000e-09
  Last DIIS Error            ...    9.7339e-07  Tolerance :   5.0000e-07

             **** THE GBW FILE WAS UPDATED (reaction4-IEIP_ts_guess_scan_3-1_orca.gbw) ****
             **** DENSITY reaction4-IEIP_ts_guess_scan_3-1_orca.scfp WAS UPDATED ****
             **** ENERGY FILE WAS UPDATED (reaction4-IEIP_ts_guess_scan_3-1_orca.en.tmp) ****
             **** THE GBW FILE WAS UPDATED (reaction4-IEIP_ts_guess_scan_3-1_orca.gbw) ****
             **** DENSITY reaction4-IEIP_ts_guess_scan_3-1_orca.scfp WAS UPDATED ****
----------------
ORBITAL ENERGIES
----------------

  NO   OCC          E(Eh)            E(eV) 
   0   2.0000     -89.764580     -2442.6184 
   1   2.0000     -19.619877      -533.8840 
   2   2.0000     -19.581023      -532.8267 
   3   2.0000     -14.843434      -403.9104 
   4   2.0000     -10.675646      -290.4991 
   5   2.0000     -10.664313      -290.1907 
   6   2.0000     -10.638477      -289.4877 
   7   2.0000     -10.637205      -289.4531 
   8   2.0000     -10.634705      -289.3850 
   9   2.0000     -10.634224      -289.3720 
  10   2.0000     -10.632831      -289.3341 
  11   2.0000     -10.631736      -289.3042 
  12   2.0000     -10.617263      -288.9104 
  13   2.0000     -10.612176      -288.7720 
  14   2.0000     -10.586621      -288.0766 
  15   2.0000     -10.585103      -288.0353 
  16   2.0000     -10.557851      -287.2937 
  17   2.0000     -10.552859      -287.1579 
  18   2.0000     -10.529802      -286.5305 
  19   2.0000      -8.403819      -228.6795 
  20   2.0000      -6.293935      -171.2667 
  21   2.0000      -6.290268      -171.1669 
  22   2.0000      -6.288498      -171.1187 
  23   2.0000      -4.031185      -109.6941 
  24   2.0000      -2.350318       -63.9554 
  25   2.0000      -2.316277       -63.0291 
  26   2.0000      -2.314861       -62.9906 
  27   2.0000      -1.299408       -35.3587 
  28   2.0000      -1.217107       -33.1192 
  29   2.0000      -1.203328       -32.7442 
  30   2.0000      -1.174516       -31.9602 
  31   2.0000      -1.129489       -30.7350 
  32   2.0000      -1.029458       -28.0130 
  33   2.0000      -0.989546       -26.9269 
  34   2.0000      -0.979556       -26.6551 
  35   2.0000      -0.967959       -26.3395 
  36   2.0000      -0.962962       -26.2035 
  37   2.0000      -0.922924       -25.1140 
  38   2.0000      -0.904519       -24.6132 
  39   2.0000      -0.875896       -23.8343 
  40   2.0000      -0.799407       -21.7530 
  41   2.0000      -0.790629       -21.5141 
  42   2.0000      -0.788926       -21.4678 
  43   2.0000      -0.783311       -21.3150 
  44   2.0000      -0.774134       -21.0653 
  45   2.0000      -0.756302       -20.5800 
  46   2.0000      -0.744468       -20.2580 
  47   2.0000      -0.724472       -19.7139 
  48   2.0000      -0.695859       -18.9353 
  49   2.0000      -0.671631       -18.2760 
  50   2.0000      -0.665928       -18.1208 
  51   2.0000      -0.652808       -17.7638 
  52   2.0000      -0.647945       -17.6315 
  53   2.0000      -0.641327       -17.4514 
  54   2.0000      -0.635022       -17.2798 
  55   2.0000      -0.626594       -17.0505 
  56   2.0000      -0.623951       -16.9786 
  57   2.0000      -0.613543       -16.6954 
  58   2.0000      -0.610086       -16.6013 
  59   2.0000      -0.609177       -16.5765 
  60   2.0000      -0.598633       -16.2896 
  61   2.0000      -0.589882       -16.0515 
  62   2.0000      -0.579962       -15.7816 
  63   2.0000      -0.574958       -15.6454 
  64   2.0000      -0.565209       -15.3801 
  65   2.0000      -0.554132       -15.0787 
  66   2.0000      -0.552362       -15.0305 
  67   2.0000      -0.548879       -14.9357 
  68   2.0000      -0.539564       -14.6823 
  69   2.0000      -0.536070       -14.5872 
  70   2.0000      -0.528523       -14.3818 
  71   2.0000      -0.522227       -14.2105 
  72   2.0000      -0.516697       -14.0600 
  73   2.0000      -0.506320       -13.7777 
  74   2.0000      -0.487773       -13.2730 
  75   2.0000      -0.482049       -13.1172 
  76   2.0000      -0.467344       -12.7171 
  77   2.0000      -0.449962       -12.2441 
  78   2.0000      -0.440420       -11.9844 
  79   2.0000      -0.425479       -11.5779 
  80   2.0000      -0.416932       -11.3453 
  81   2.0000      -0.404609       -11.0100 
  82   0.0000      -0.199954        -5.4410 
  83   0.0000      -0.164711        -4.4820 
  84   0.0000      -0.142390        -3.8746 
  85   0.0000      -0.105437        -2.8691 
  86   0.0000      -0.078200        -2.1279 
  87   0.0000      -0.069750        -1.8980 
  88   0.0000      -0.062733        -1.7070 
  89   0.0000      -0.049724        -1.3531 
  90   0.0000      -0.044777        -1.2184 
  91   0.0000      -0.035515        -0.9664 
  92   0.0000      -0.004545        -0.1237 
  93   0.0000      -0.002296        -0.0625 
  94   0.0000       0.009582         0.2607 
  95   0.0000       0.022155         0.6029 
  96   0.0000       0.025788         0.7017 
  97   0.0000       0.034994         0.9522 
  98   0.0000       0.044320         1.2060 
  99   0.0000       0.054876         1.4933 
 100   0.0000       0.067777         1.8443 
 101   0.0000       0.068796         1.8720 
 102   0.0000       0.070083         1.9071 
 103   0.0000       0.078088         2.1249 
 104   0.0000       0.082479         2.2444 
 105   0.0000       0.088423         2.4061 
 106   0.0000       0.092538         2.5181 
 107   0.0000       0.099615         2.7107 
 108   0.0000       0.107938         2.9371 
 109   0.0000       0.113440         3.0869 
 110   0.0000       0.114765         3.1229 
 111   0.0000       0.119986         3.2650 
 112   0.0000       0.121802         3.3144 
 113   0.0000       0.125878         3.4253 
 114   0.0000       0.131526         3.5790 
 115   0.0000       0.139428         3.7940 
 116   0.0000       0.143593         3.9074 
 117   0.0000       0.151961         4.1351 
 118   0.0000       0.155138         4.2215 
 119   0.0000       0.160906         4.3785 
 120   0.0000       0.164512         4.4766 
 121   0.0000       0.177001         4.8165 
 122   0.0000       0.186345         5.0707 
 123   0.0000       0.199376         5.4253 
 124   0.0000       0.220051         5.9879 
 125   0.0000       0.229486         6.2446 
 126   0.0000       0.256511         6.9800 
 127   0.0000       0.268254         7.2996 
 128   0.0000       0.279123         7.5953 
 129   0.0000       0.293334         7.9820 
 130   0.0000       0.301663         8.2087 
 131   0.0000       0.309379         8.4186 
 132   0.0000       0.321889         8.7590 
 133   0.0000       0.334823         9.1110 
 134   0.0000       0.341692         9.2979 
 135   0.0000       0.357021         9.7150 
 136   0.0000       0.364347         9.9144 
 137   0.0000       0.367112         9.9896 
 138   0.0000       0.383475        10.4349 
 139   0.0000       0.395924        10.7736 
 140   0.0000       0.399961        10.8835 
 141   0.0000       0.414806        11.2875 
 142   0.0000       0.422647        11.5008 
 143   0.0000       0.434937        11.8352 
 144   0.0000       0.444971        12.1083 
 145   0.0000       0.447135        12.1672 
 146   0.0000       0.453097        12.3294 
 147   0.0000       0.458748        12.4832 
 148   0.0000       0.469291        12.7701 
 149   0.0000       0.472332        12.8528 
 150   0.0000       0.477699        12.9988 
 151   0.0000       0.487194        13.2572 
 152   0.0000       0.496975        13.5234 
 153   0.0000       0.501937        13.6584 
 154   0.0000       0.507503        13.8099 
 155   0.0000       0.514845        14.0097 
 156   0.0000       0.529249        14.4016 
 157   0.0000       0.530004        14.4221 
 158   0.0000       0.542717        14.7681 
 159   0.0000       0.550750        14.9867 
 160   0.0000       0.556332        15.1386 
 161   0.0000       0.569401        15.4942 
 162   0.0000       0.571567        15.5531 
 163   0.0000       0.583377        15.8745 
 164   0.0000       0.589712        16.0469 
[...]

----------------------
LOEWDIN ATOMIC CHARGES
----------------------
   0 Ir:   -0.218786
   1 C :   -0.038574
   2 C :   -0.059099
   3 C :   -0.049668
   4 C :   -0.057924
   5 C :   -0.024279
   6 N :   -0.002041
   7 C :   -0.068428
   8 C :   -0.364994
   9 H :    0.158009
  10 H :    0.133935
  11 H :    0.147226
  12 C :   -0.343295
  13 H :    0.157468
  14 H :    0.153458
  15 H :    0.137260
  16 H :    0.134755
  17 C :    0.035776
  18 C :   -0.179793
  19 H :    0.163993
  20 C :   -0.181089
  21 C :   -0.137538
  22 S :    0.465656
  23 C :   -0.263403
  24 H :    0.274954
  25 H :    0.163636
  26 H :    0.168323
  27 H :    0.185713
  28 H :    0.186376
  29 H :    0.194184
  30 O :   -0.276430
  31 O :   -0.213540
  32 C :    0.148032
  33 C :   -0.377785
  34 H :    0.158466
  35 H :    0.165421
  36 H :    0.151554
  37 H :    0.187355
  38 H :    0.185116

-------------------------------
LOEWDIN REDUCED ORBITAL CHARGES
-------------------------------
  0 Irs       :     2.451014  s :     2.451014
      pz      :     2.239633  p :     6.746015
      px      :     2.236928
      py      :     2.269454
      dz2     :     1.849369  d :     7.931953
      dxz     :     1.751554
      dyz     :     1.258930
      dx2y2   :     1.637721
      dxy     :     1.434379
      f0      :     0.011570  f :     0.089804
      f+1     :     0.003098
      f-1     :     0.013180
      f+2     :     0.017466
      f-2     :     0.016433
      f+3     :     0.011051
      f-3     :     0.017005
  1 C s       :     2.876015  s :     2.876015
      pz      :     1.046505  p :     3.058268
      px      :     1.088780
      py      :     0.922983
      dz2     :     0.026509  d :     0.104290
      dxz     :     0.027187
      dyz     :     0.017533
      dx2y2   :     0.018389
      dxy     :     0.014672
  2 C s       :     2.874821  s :     2.874821
      pz      :     1.047294  p :     3.081760
      px      :     1.074117
      py      :     0.960349
      dz2     :     0.025777  d :     0.102518
      dxz     :     0.027575
      dyz     :     0.017649
      dx2y2   :     0.018303
      dxy     :     0.013213
  3 C s       :     2.875088  s :     2.875088
      pz      :     1.037514  p :     3.072302
      px      :     1.075657
      py      :     0.959131
      dz2     :     0.024362  d :     0.102278
      dxz     :     0.032137
      dyz     :     0.016227
      dx2y2   :     0.015101
      dxy     :     0.014451
  4 C s       :     2.874174  s :     2.874174
      pz      :     1.094286  p :     3.081846
      px      :     1.035826
      py      :     0.951734
      dz2     :     0.022458  d :     0.101904
      dxz     :     0.031824
      dyz     :     0.012899
      dx2y2   :     0.017507
      dxy     :     0.017216
  5 C s       :     2.877201  s :     2.877201
      pz      :     1.063841  p :     3.042860
      px      :     1.032994
      py      :     0.946026
      dz2     :     0.025468  d :     0.104218
      dxz     :     0.029923
      dyz     :     0.015765
      dx2y2   :     0.015509
      dxy     :     0.017553
  6 N s       :     3.123342  s :     3.123342
      pz      :     1.269822  p :     3.779752
      px      :     1.290307
      py      :     1.219624
      dz2     :     0.030027  d :     0.098947
      dxz     :     0.027759
      dyz     :     0.019475
      dx2y2   :     0.011528
      dxy     :     0.010158
  7 C s       :     2.861993  s :     2.861993
      pz      :     1.060242  p :     3.072004
      px      :     0.938128
      py      :     1.073635
      dz2     :     0.021701  d :     0.134431
      dxz     :     0.029853
      dyz     :     0.021797
      dx2y2   :     0.028457
      dxy     :     0.032623
  8 C s       :     2.953082  s :     2.953082
      pz      :     1.128261  p :     3.344488
      px      :     1.122484
      py      :     1.093743
      dz2     :     0.010361  d :     0.067425
      dxz     :     0.018352
      dyz     :     0.012292
      dx2y2   :     0.008400
      dxy     :     0.018020
  9 H s       :     0.841991  s :     0.841991
 10 H s       :     0.866065  s :     0.866065
 11 H s       :     0.852774  s :     0.852774
 12 C s       :     2.952879  s :     2.952879
      pz      :     1.137557  p :     3.322549
      px      :     1.112842
      py      :     1.072149
      dz2     :     0.008317  d :     0.067867
      dxz     :     0.014048
      dyz     :     0.017549
      dx2y2   :     0.010361
      dxy     :     0.017593
 13 H s       :     0.842532  s :     0.842532
 14 H s       :     0.846542  s :     0.846542
 15 H s       :     0.862740  s :     0.862740
 16 H s       :     0.865245  s :     0.865245
 17 C s       :     2.878762  s :     2.878762
      pz      :     1.024192  p :     2.944804
      px      :     1.057539
      py      :     0.863073
      dz2     :     0.040994  d :     0.140658
      dxz     :     0.051033
      dyz     :     0.024470
      dx2y2   :     0.011766
      dxy     :     0.012396
 18 C s       :     2.897133  s :     2.897133
      pz      :     1.035644  p :     3.171067
      px      :     1.088567
      py      :     1.046856
      dz2     :     0.029181  d :     0.111593
      dxz     :     0.028181
      dyz     :     0.016814
      dx2y2   :     0.022663
      dxy     :     0.014754
 19 H s       :     0.836007  s :     0.836007
 20 C s       :     2.914486  s :     2.914486
      pz      :     1.079620  p :     3.176930
      px      :     1.043632
      py      :     1.053678
      dz2     :     0.010002  d :     0.089672
      dxz     :     0.031722
      dyz     :     0.009692
      dx2y2   :     0.018015
      dxy     :     0.020242
 21 C s       :     2.898312  s :     2.898312
      pz      :     1.059044  p :     3.145394
      px      :     1.089441
      py      :     0.996909
      dz2     :     0.022761  d :     0.093832
      dxz     :     0.026213
      dyz     :     0.014593
      dx2y2   :     0.018061
      dxy     :     0.012204
 22 S s       :     5.505235  s :     5.505235
      pz      :     3.307049  p :     9.876940
      px      :     3.083171
      py      :     3.486719
      dz2     :     0.035068  d :     0.152169
      dxz     :     0.031291
      dyz     :     0.025929
      dx2y2   :     0.035087
      dxy     :     0.024793
 23 C s       :     2.964390  s :     2.964390
      pz      :     1.112245  p :     3.213237
      px      :     1.020091
      py      :     1.080901
      dz2     :     0.019192  d :     0.085777
      dxz     :     0.025787
      dyz     :     0.012829
      dx2y2   :     0.015209
      dxy     :     0.012760
 24 H s       :     0.725046  s :     0.725046
 25 H s       :     0.836364  s :     0.836364
 26 H s       :     0.831677  s :     0.831677
 27 H s       :     0.814287  s :     0.814287
 28 H s       :     0.813624  s :     0.813624
 29 H s       :     0.805816  s :     0.805816
 30 O s       :     3.506979  s :     3.506979
      pz      :     1.474565  p :     4.715087
      px      :     1.508848
      py      :     1.731674
      dz2     :     0.018101  d :     0.054363
      dxz     :     0.012678
      dyz     :     0.016437
      dx2y2   :     0.003603
      dxy     :     0.003545
 31 O s       :     3.447453  s :     3.447453
      pz      :     1.694353  p :     4.707521
      px      :     1.639031
      py      :     1.374137
      dz2     :     0.009506  d :     0.058566
      dxz     :     0.003204
      dyz     :     0.016155
      dx2y2   :     0.016098
      dxy     :     0.013603
 32 C s       :     2.814642  s :     2.814642
      pz      :     1.014971  p :     2.713822
      px      :     0.752907
      py      :     0.945943
      dz2     :     0.078204  d :     0.323505
      dxz     :     0.042737
      dyz     :     0.109246
      dx2y2   :     0.045486
      dxy     :     0.047832
 33 C s       :     2.960489  s :     2.960489
      pz      :     1.093850  p :     3.354600
      px      :     1.148568
      py      :     1.112181
      dz2     :     0.006832  d :     0.062697
      dxz     :     0.017260
      dyz     :     0.018245
      dx2y2   :     0.017868
      dxy     :     0.002491
 34 H s       :     0.841534  s :     0.841534
 35 H s       :     0.834579  s :     0.834579
 36 H s       :     0.848446  s :     0.848446
 37 H s       :     0.812645  s :     0.812645
 38 H s       :     0.814884  s :     0.814884


                      *****************************
                      * MAYER POPULATION ANALYSIS *
                      *****************************

  NA   - Mulliken gross atomic population
  ZA   - Total nuclear charge
  QA   - Mulliken gross atomic charge
  VA   - Mayer's total valence
  BVA  - Mayer's bonded valence
  FA   - Mayer's free valence

  ATOM       NA         ZA         QA         VA         BVA        FA
  0 Ir    16.3836    17.0000     0.6164     3.7503     3.7503    -0.0000
  1 C      6.2083     6.0000    -0.2083     3.6973     3.6973     0.0000
  2 C      6.2930     6.0000    -0.2930     3.7438     3.7438    -0.0000
  3 C      6.2332     6.0000    -0.2332     3.7304     3.7304     0.0000
  4 C      6.2472     6.0000    -0.2472     3.7209     3.7209    -0.0000
  5 C      6.1638     6.0000    -0.1638     3.6902     3.6902    -0.0000
  6 N      7.4216     7.0000    -0.4216     3.2167     3.2167    -0.0000
  7 C      6.1167     6.0000    -0.1167     3.6969     3.6969     0.0000
  8 C      6.6960     6.0000    -0.6960     3.6864     3.6864    -0.0000
  9 H      0.7263     1.0000     0.2737     0.8961     0.8961     0.0000
 10 H      0.7742     1.0000     0.2258     0.9093     0.9093     0.0000
 11 H      0.7387     1.0000     0.2613     0.8970     0.8970    -0.0000
 12 C      6.6402     6.0000    -0.6402     3.6725     3.6725    -0.0000
 13 H      0.7174     1.0000     0.2826     0.8751     0.8751    -0.0000
 14 H      0.7346     1.0000     0.2654     0.8962     0.8962    -0.0000
 15 H      0.7692     1.0000     0.2308     0.9093     0.9093    -0.0000
 16 H      0.7663     1.0000     0.2337     0.9050     0.9050     0.0000
 17 C      5.9308     6.0000     0.0692     3.6292     3.6292    -0.0000
 18 C      6.2083     6.0000    -0.2083     3.7116     3.7116     0.0000
 19 H      0.7059     1.0000     0.2941     0.8850     0.8850    -0.0000
 20 C      6.4279     6.0000    -0.4279     3.4561     3.4561     0.0000
 21 C      6.1302     6.0000    -0.1302     3.7398     3.7398     0.0000
 22 S     15.7019    16.0000     0.2981     2.5683     2.5683     0.0000
 23 C      6.4318     6.0000    -0.4318     3.7414     3.7414     0.0000
 24 H      0.5051     1.0000     0.4949     0.7518     0.7518    -0.0000
 25 H      0.7307     1.0000     0.2693     0.9014     0.9014     0.0000
 26 H      0.7017     1.0000     0.2983     0.8972     0.8972     0.0000
 27 H      0.7078     1.0000     0.2922     0.9014     0.9014     0.0000
 28 H      0.7064     1.0000     0.2936     0.9045     0.9045    -0.0000
 29 H      0.6924     1.0000     0.3076     0.8912     0.8912    -0.0000
 30 O      8.4753     8.0000    -0.4753     2.1248     2.1248     0.0000
 31 O      8.5462     8.0000    -0.5462     2.0661     2.0661    -0.0000
 32 C      5.3918     6.0000     0.6082     3.9324     3.9324     0.0000
 33 C      6.7455     6.0000    -0.7455     3.6709     3.6709     0.0000
 34 H      0.7322     1.0000     0.2678     0.8961     0.8961     0.0000
 35 H      0.7361     1.0000     0.2639     0.8965     0.8965     0.0000
 36 H      0.7501     1.0000     0.2499     0.9022     0.9022    -0.0000
 37 H      0.7056     1.0000     0.2944     0.9012     0.9012    -0.0000
 38 H      0.7060     1.0000     0.2940     0.9041     0.9041    -0.0000

  Mayer bond orders larger than 0.100000
B(  0-Ir,  1-C ) :   0.4183 B(  0-Ir,  2-C ) :   0.5388 B(  0-Ir,  3-C ) :   0.4640 
B(  0-Ir,  4-C ) :   0.4478 B(  0-Ir,  5-C ) :   0.4013 B(  0-Ir,  6-N ) :   0.4597 
B(  0-Ir, 20-C ) :   0.2333 B(  0-Ir, 31-O ) :   0.5963 B(  1-C ,  2-C ) :   1.1159 
B(  1-C ,  4-C ) :   1.2486 B(  1-C , 27-H ) :   0.9031 B(  2-C ,  5-C ) :   1.1339 
B(  2-C , 28-H ) :   0.9069 B(  3-C ,  4-C ) :   1.1040 B(  3-C ,  5-C ) :   1.2334 
B(  3-C , 37-H ) :   0.9035 B(  4-C , 38-H ) :   0.8982 B(  5-C , 29-H ) :   0.8974 
B(  6-N ,  7-C ) :   0.8910 B(  6-N , 17-C ) :   1.7035 B(  7-C ,  8-C ) :   0.9925 
B(  7-C , 12-C ) :   0.9694 B(  7-C , 13-H ) :   0.8700 B(  8-C ,  9-H ) :   0.9031 
B(  8-C , 10-H ) :   0.9123 B(  8-C , 11-H ) :   0.9076 B( 12-C , 14-H ) :   0.9061 
B( 12-C , 15-H ) :   0.9152 B( 12-C , 16-H ) :   0.9105 B( 17-C , 18-C ) :   1.0409 
B( 17-C , 19-H ) :   0.8735 B( 18-C , 20-C ) :   1.2987 B( 18-C , 22-S ) :   1.2283 
B( 20-C , 21-C ) :   1.2533 B( 20-C , 24-H ) :   0.5174 B( 21-C , 23-C ) :   1.5525 
B( 21-C , 25-H ) :   0.9032 B( 22-S , 23-C ) :   1.1980 B( 23-C , 26-H ) :   0.8921 
B( 24-H , 30-O ) :   0.2159 B( 30-O , 32-C ) :   1.7313 B( 31-O , 32-C ) :   1.2513 
B( 32-C , 33-C ) :   0.9450 B( 33-C , 34-H ) :   0.9062 B( 33-C , 35-H ) :   0.9003 
B( 33-C , 36-H ) :   0.9105 


------------------
HIRSHFELD ANALYSIS
------------------

Total integrated alpha density =     82.000429586
Total integrated beta density  =     82.000429586

  ATOM     CHARGE      SPIN    
   0 Ir   0.207151    0.000000
   1 C    0.008158    0.000000
   2 C    0.002953    0.000000
   3 C    0.002968    0.000000
   4 C   -0.005651    0.000000
   5 C    0.018950    0.000000
   6 N   -0.064209    0.000000
   7 C    0.054833    0.000000
   8 C   -0.070672    0.000000
   9 H    0.054519    0.000000
  10 H    0.037894    0.000000
  11 H    0.044377    0.000000
  12 C   -0.069934    0.000000
  13 H    0.047881    0.000000
  14 H    0.051979    0.000000
  15 H    0.036603    0.000000
  16 H    0.030937    0.000000
  17 C    0.102938    0.000000
  18 C   -0.000839    0.000000
  19 H    0.079587    0.000000
  20 C   -0.059518    0.000000
  21 C   -0.030532    0.000000
  22 S    0.123217    0.000000
  23 C   -0.027218    0.000000
  24 H    0.056773    0.000000
  25 H    0.071022    0.000000
  26 H    0.077893    0.000000
  27 H    0.084387    0.000000
  28 H    0.086218    0.000000
  29 H    0.095326    0.000000
  30 O   -0.269082    0.000000
  31 O   -0.263947    0.000000
  32 C    0.237062    0.000000
  33 C   -0.069536    0.000000
  34 H    0.053053    0.000000
  35 H    0.057518    0.000000
  36 H    0.046587    0.000000
  37 H    0.085298    0.000000
  38 H    0.074197    0.000000

  TOTAL   0.999141    0.000000

-------
TIMINGS
-------

Total SCF time: 0 days 0 hours 4 min 41 sec 

Total time                  ....     281.412 sec
Sum of individual times     ....     280.715 sec  ( 99.8%)

Fock matrix formation       ....     272.711 sec  ( 96.9%)
  Split-RI-J                ....      22.603 sec  (  8.3% of F)
  Chain of spheres X        ....     235.962 sec  ( 86.5% of F)
  XC integration            ....      13.923 sec  (  5.1% of F)
    Basis function eval.    ....       6.411 sec  ( 46.0% of XC)
    Density eval.           ....       3.638 sec  ( 26.1% of XC)
    XC-Functional eval.     ....       1.036 sec  (  7.4% of XC)
    XC-Potential eval.      ....       2.284 sec  ( 16.4% of XC)
Diagonalization             ....       0.222 sec  (  0.1%)
Density matrix formation    ....       0.033 sec  (  0.0%)
Population analysis         ....       1.131 sec  (  0.4%)
Initial guess               ....       0.043 sec  (  0.0%)
Orbital Transformation      ....       0.000 sec  (  0.0%)
Orbital Orthonormalization  ....       0.032 sec  (  0.0%)
DIIS solution               ....       0.093 sec  (  0.0%)
Grid generation             ....       6.482 sec  (  2.3%)

Maximum memory used throughout the entire SCF-calculation: 173.9 MB


-------------------------------------------------------------------------------
                          DFT DISPERSION CORRECTION                            
                                                                               
                              DFTD3 V3.1  Rev 1                                
                          USING Becke-Johnson damping                          
-------------------------------------------------------------------------------
The PBEh-3c composite method is recognized
Using three-body term ABC
Active option DFTDOPT                   ...         4   

molecular C6(AA) [au] = 19555.407119 


            DFT-D V3
 parameters
 s6 scaling factor         :     1.0000 
 a1 scaling factor         :     0.4860 
 s8 scaling factor         :     0.0000 
 a2 scaling factor         :     4.5000 
 Damping factor alpha9(ATM):    16.0000 
 ad hoc parameters k1-k3   :    16.0000     1.3333    -4.0000 

 Edisp/kcal,au: -19.436045381581  -0.030973306558 
 E6   /kcal   : -19.788256222 
 E8   /kcal   :  -0.000000000 
 E6(ABC)      :   0.352210841 
 % E8         :   0.000000000 
 % E6(ABC)    :  -1.812152801 

-------------------------   ----------------
Dispersion correction           -0.030973307
-------------------------   ----------------

 ** NOTE ** -> element ir will be treated as co
NOTIFICATION: Different basis set in ORCA and otool_gcp:
ORCA: 358  gCP: 357 
If you are NOT using ECPs, check your basis set inputs!
------------------   -----------------
gCP correction             0.078048651
------------------   -----------------

-------------------------   --------------------
FINAL SINGLE POINT ENERGY     -1288.399342452357
-------------------------   --------------------

                                *** OPTIMIZATION RUN DONE ***

                            ***************************************
                            *     ORCA property calculations      *
                            ***************************************

                                    ---------------------
                                    Active property flags
                                    ---------------------
   (+) Dipole Moment


------------------------------------------------------------------------------
                       ORCA ELECTRIC PROPERTIES CALCULATION
------------------------------------------------------------------------------

Dipole Moment Calculation                       ... on
Quadrupole Moment Calculation                   ... off
Polarizability Calculation                      ... off
GBWName                                         ... reaction4-IEIP_ts_guess_scan_3-1_orca.gbw
Electron density                                ... reaction4-IEIP_ts_guess_scan_3-1_orca.scfp
The origin for moment calculation is the CENTER OF MASS  = ( 0.853899, -0.634274 -0.145293)

-------------
DIPOLE MOMENT
-------------
                                X             Y             Z
Electronic contribution:     35.80101     -66.88177      70.86903
Nuclear contribution   :    -36.43859      65.54932     -71.21497
                        -----------------------------------------
Total Dipole Moment    :     -0.63759      -1.33245      -0.34594
                        -----------------------------------------
Magnitude (a.u.)       :      1.51711
Magnitude (Debye)      :      3.85618



--------------------
Rotational spectrum 
--------------------
 
Rotational constants in cm-1:     0.010825     0.009140     0.008282 
Rotational constants in MHz :   324.516888   274.012230   248.295863 

 Dipole components along the rotational axes: 
x,y,z [a.u.] :    -0.408961    -0.448394     1.390435 
x,y,z [Debye]:    -1.039497    -1.139726     3.534206 

 

Timings for individual modules:

Sum of individual times         ...     4293.073 sec (=  71.551 min)
GTO integral calculation        ...       13.193 sec (=   0.220 min)   0.3 %
SCF iterations                  ...     3493.649 sec (=  58.227 min)  81.4 %
SCF Gradient evaluation         ...      784.498 sec (=  13.075 min)  18.3 %
Geometry relaxation             ...        1.732 sec (=   0.029 min)   0.0 %
                             ****ORCA TERMINATED NORMALLY****
TOTAL RUN TIME: 0 days 1 hours 11 minutes 36 seconds 97 msec
