
                                 *****************
                                 * O   R   C   A *
                                 *****************

                                            #,                                       
                                            ###                                      
                                            ####                                     
                                            #####                                    
                                            ######                                   
                                           ########,                                 
                                     ,,################,,,,,                         
                               ,,#################################,,                 
                          ,,##########################################,,             
                       ,#########################################, ''#####,          
                    ,#############################################,,   '####,        
                  ,##################################################,,,,####,       
                ,###########''''           ''''###############################       
              ,#####''   ,,,,##########,,,,          '''####'''          '####       
            ,##' ,,,,###########################,,,                        '##       
           ' ,,###''''                  '''############,,,                           
         ,,##''                                '''############,,,,        ,,,,,,###''
      ,#''                                            '''#######################'''  
     '                                                          ''''####''''         
             ,#######,   #######,   ,#######,      ##                                
            ,#'     '#,  ##    ##  ,#'     '#,    #''#        ######   ,####,        
            ##       ##  ##   ,#'  ##            #'  '#       #        #'  '#        
            ##       ##  #######   ##           ,######,      #####,   #    #        
            '#,     ,#'  ##    ##  '#,     ,#' ,#      #,         ##   #,  ,#        
             '#######'   ##     ##  '#######'  #'      '#     #####' # '####'        



                  #######################################################
                  #                        -***-                        #
                  #          Department of theory and spectroscopy      #
                  #    Directorship and core code : Frank Neese         #
                  #        Max Planck Institute fuer Kohlenforschung    #
                  #                Kaiser Wilhelm Platz 1               #
                  #                 D-45470 Muelheim/Ruhr               #
                  #                      Germany                        #
                  #                                                     #
                  #                  All rights reserved                #
                  #                        -***-                        #
                  #######################################################


                         Program Version 5.0.3 -  RELEASE  -


 With contributions from (in alphabetic order):
   Daniel Aravena         : Magnetic Suceptibility
   Michael Atanasov       : Ab Initio Ligand Field Theory (pilot matlab implementation)
   Alexander A. Auer      : GIAO ZORA, VPT2 properties, NMR spectrum
   Ute Becker             : Parallelization
   Giovanni Bistoni       : ED, misc. LED, open-shell LED, HFLD
   Martin Brehm           : Molecular dynamics
   Dmytro Bykov           : SCF Hessian
   Vijay G. Chilkuri      : MRCI spin determinant printing, contributions to CSF-ICE
   Dipayan Datta          : RHF DLPNO-CCSD density
   Achintya Kumar Dutta   : EOM-CC, STEOM-CC
   Dmitry Ganyushin       : Spin-Orbit,Spin-Spin,Magnetic field MRCI
   Miquel Garcia          : C-PCM and meta-GGA Hessian, CC/C-PCM, Gaussian charge scheme
   Yang Guo               : DLPNO-NEVPT2, F12-NEVPT2, CIM, IAO-localization
   Andreas Hansen         : Spin unrestricted coupled pair/coupled cluster methods
   Benjamin Helmich-Paris : MC-RPA, TRAH-SCF, COSX integrals
   Lee Huntington         : MR-EOM, pCC
   Robert Izsak           : Overlap fitted RIJCOSX, COSX-SCS-MP3, EOM
   Marcus Kettner         : VPT2
   Christian Kollmar      : KDIIS, OOCD, Brueckner-CCSD(T), CCSD density, CASPT2, CASPT2-K
   Simone Kossmann        : Meta GGA functionals, TD-DFT gradient, OOMP2, MP2 Hessian
   Martin Krupicka        : Initial AUTO-CI
   Lucas Lang             : DCDCAS
   Marvin Lechner         : AUTO-CI (C++ implementation), FIC-MRCC
   Dagmar Lenk            : GEPOL surface, SMD
   Dimitrios Liakos       : Extrapolation schemes; Compound Job, initial MDCI parallelization
   Dimitrios Manganas     : Further ROCIS development; embedding schemes
   Dimitrios Pantazis     : SARC Basis sets
   Anastasios Papadopoulos: AUTO-CI, single reference methods and gradients
   Taras Petrenko         : DFT Hessian,TD-DFT gradient, ASA, ECA, R-Raman, ABS, FL, XAS/XES, NRVS
   Peter Pinski           : DLPNO-MP2, DLPNO-MP2 Gradient
   Christoph Reimann      : Effective Core Potentials
   Marius Retegan         : Local ZFS, SOC
   Christoph Riplinger    : Optimizer, TS searches, QM/MM, DLPNO-CCSD(T), (RO)-DLPNO pert. Triples
   Tobias Risthaus        : Range-separated hybrids, TD-DFT gradient, RPA, STAB
   Michael Roemelt        : Original ROCIS implementation
   Masaaki Saitow         : Open-shell DLPNO-CCSD energy and density
   Barbara Sandhoefer     : DKH picture change effects
   Avijit Sen             : IP-ROCIS
   Kantharuban Sivalingam : CASSCF convergence, NEVPT2, FIC-MRCI
   Bernardo de Souza      : ESD, SOC TD-DFT
   Georgi Stoychev        : AutoAux, RI-MP2 NMR, DLPNO-MP2 response
   Willem Van den Heuvel  : Paramagnetic NMR
   Boris Wezisla          : Elementary symmetry handling
   Frank Wennmohs         : Technical directorship


 We gratefully acknowledge several colleagues who have allowed us to
 interface, adapt or use parts of their codes:
   Stefan Grimme, W. Hujo, H. Kruse, P. Pracht,  : VdW corrections, initial TS optimization,
                  C. Bannwarth, S. Ehlert          DFT functionals, gCP, sTDA/sTD-DF
   Ed Valeev, F. Pavosevic, A. Kumar             : LibInt (2-el integral package), F12 methods
   Garnet Chan, S. Sharma, J. Yang, R. Olivares  : DMRG
   Ulf Ekstrom                                   : XCFun DFT Library
   Mihaly Kallay                                 : mrcc  (arbitrary order and MRCC methods)
   Jiri Pittner, Ondrej Demel                    : Mk-CCSD
   Frank Weinhold                                : gennbo (NPA and NBO analysis)
   Christopher J. Cramer and Donald G. Truhlar   : smd solvation model
   Lars Goerigk                                  : TD-DFT with DH, B97 family of functionals
   V. Asgeirsson, H. Jonsson                     : NEB implementation
   FAccTs GmbH                                   : IRC, NEB, NEB-TS, DLPNO-Multilevel, CI-OPT
                                                   MM, QMMM, 2- and 3-layer-ONIOM, Crystal-QMMM,
                                                   LR-CPCM, SF, NACMEs, symmetry and pop. for TD-DFT,
                                                   nearIR, NL-DFT gradient (VV10), updates on ESD,
                                                   ML-optimized integration grids
   S Lehtola, MJT Oliveira, MAL Marques          : LibXC Library
   Liviu Ungur et al                             : ANISO software


 Your calculation uses the libint2 library for the computation of 2-el integrals
 For citations please refer to: http://libint.valeyev.net

 Your ORCA version has been built with support for libXC version: 5.1.0
 For citations please refer to: https://tddft.org/programs/libxc/

 This ORCA versions uses:
   CBLAS   interface :  Fast vector & matrix operations
   LAPACKE interface :  Fast linear algebra routines
   SCALAPACK package :  Parallel linear algebra routines
   Shared memory     :  Shared parallel matrices
   BLAS/LAPACK       :  OpenBLAS 0.3.15  USE64BITINT DYNAMIC_ARCH NO_AFFINITY SkylakeX SINGLE_THREADED
        Core in use  :  SkylakeX
   Copyright (c) 2011-2014, The OpenBLAS Project


Your calculation utilizes the geometrical counterpoise correction gCP
Please cite in your paper:
H.Kruse, S. Grimme J.Chem.Phys., 136, (2012), 154101 
   

Your calculation utilizes the atom-pairwise dispersion correction
with the Becke-Johnson damping scheme (D3BJ)
Cite in your paper:
S.Grimme, S.Ehrlich, L.Goerigk, J Comput Chem, (2011), 32, 1456–1465 
S.Grimme, J.Antony, S.Ehrlich and H.Krieg, J.Chem.Phys., 132, (2010), 154104 
   

Your calculation employs the composite approach PBEh-3c.
Please cite in your paper:
S. Grimme, J. G. Brandenburg, C. Bannwarth, A. Hansen J.Chem.Phys., 143, (2015), 054107 
   

================================================================================

cite the ECPs for Ir [Def2-ECP] as follows:
Ce-Yb(ecp-28): M. Dolg, H. Stoll, H.Preuss, J. Chem. Phys., 1989, 90, 1730-1734.
Y-Cd(ecp-28), Hf-Hg(ecp-46): D. Andrae,U. Haeussermann, M. Dolg, H. Stoll, H. Preuss, Theor. Chim. Acta, 1990, 77, 123-141.
In-Sb(ecp-28), Tl-Bi(ecp-46): B. Metz, H. Stoll, M. Dolg, J. Chem. Phys., 2000, 113, 2563-2569.
Te-Xe(ecp-28), Po-Rn(ecp-46): K. A. Peterson, D. Figgen, E. Goll, H. Stoll, M. Dolg, J. Chem. Phys., 2003, 119, 11113-11123.
Rb(ecp-28), Cs(ecp-46): T. Leininger, A. Nicklass, W. Kuechle, H. Stoll, M. Dolg, A. Bergner, Chem. Phys. Lett., 1996, 255, 274-280.
Sr(ecp-28), Ba(ecp-46): M. Kaupp, P. V. Schleyer, H. Stoll and H. Preuss, J. Chem. Phys., 1991, 94, 1360-1366.
La(ecp-46): M. Dolg, H. Stoll, A. Savin, H. Preuss, Theor. Chim. Acta, 1989, 75, 173-194.
Lu(ecp-28): X. Cao, M. Dolg, J. Chem. Phys., 2001, 115, 7348-7355.

ECP parameters for Ir [Def2-ECP] have been obtained from:
TURBOMOLE (7.0.2)

----- Orbital basis set information -----
Your calculation utilizes the basis: def2-mSVP

----- AuxJ basis set information -----
Your calculation utilizes the auxiliary basis: def2/J
   F. Weigend, Phys. Chem. Chem. Phys. 8, 1057 (2006).

================================================================================
                                        WARNINGS
                       Please study these warnings very carefully!
================================================================================


WARNING: Geometry Optimization
  ===> : Switching off AutoStart
         For restart on a previous wavefunction, please use MOREAD

WARNING: No Hueckel Guess possible with ECP basis!
  ===> : Switching to HCORE guess!

INFO   : the flag for use of the SHARK integral package has been found!

================================================================================
                                       INPUT FILE
================================================================================
NAME = reaction4-IEIP_ts_guess_scan_1-4_orca.inp
|  1> ! Opt PBEh-3c
|  2> %geom Constraints
|  3> { B 0 20 2.5571428571428574 C }
|  4> { B 24 30 1.4428571428571428 C }
|  5>     end
|  6> end
|  7> %output 
|  8> xyzfile=True 
|  9> end 
| 10> %scf 
| 11> maxiter 250 
| 12> end
| 13> %output
| 14> Print[P_Hirshfeld] = 1
| 15> end
| 16> % maxcore
| 17> 4000
| 18> *xyz 1 1
| 19> Ir   0.57530666  -0.73192943   0.47883455 
| 20> C    0.02300566  -2.81078215   0.33862541 
| 21> C    0.11371492  -2.37146268   1.71152940 
| 22> C    2.19161594  -2.14480293   0.75126572 
| 23> C    1.28336715  -2.64112790  -0.25878395 
| 24> C    1.48457513  -2.02098237   1.95871732 
| 25> N   -1.03974228   0.17769608  -0.51106408 
| 26> C   -2.31240153   0.52154453   0.14253790 
| 27> C   -3.13099919   1.54889770  -0.62185346 
| 28> H   -3.96538204   1.86710248   0.00153817 
| 29> H   -3.56417442   1.14914497  -1.54021444 
| 30> H   -2.55040258   2.43973773  -0.86368282 
| 31> C   -3.11068135  -0.74909019   0.40657363 
| 32> H   -2.02161106   0.95522020   1.10093324 
| 33> H   -4.02593902  -0.49995565   0.94129598 
| 34> H   -3.39349052  -1.24064688  -0.52528538 
| 35> H   -2.56139487  -1.45934421   1.02309974 
| 36> C   -0.82250767   0.37906045  -1.75196920 
| 37> C    0.53133048   0.14544896  -2.21422041 
| 38> H   -1.59417292   0.74168140  -2.42528888 
| 39> C    1.64544370   0.56949599  -1.50134186 
| 40> C    2.84128210   0.13814953  -2.14356795 
| 41> S    0.93803859  -0.70358298  -3.64293941 
| 42> C    2.61241737  -0.54891633  -3.29412452 
| 43> H    1.55404210   1.41900845  -0.70562403 
| 44> H    3.83267348   0.37712515  -1.78713063 
| 45> H    3.34052305  -0.95866373  -3.97779968 
| 46> H   -0.87030419  -3.16700387  -0.15394565 
| 47> H   -0.67133419  -2.41108332   2.45265619 
| 48> H    1.87809251  -1.64025371   2.89024790 
| 49> O    1.26928917   2.45442781   0.27930632 
| 50> O    0.54171708   0.88856692   1.69342057 
| 51> C    0.88951940   2.09889020   1.38926569 
| 52> C    0.82600363   3.06537799   2.53915877 
| 53> H    0.76876754   4.08808633   2.17654973 
| 54> H    1.73626693   2.97235992   3.13471078 
| 55> H   -0.01314283   2.85623829   3.19949103 
| 56> H    3.23421012  -1.90751123   0.59882912 
| 57> H    1.53584794  -2.84693150  -1.28901073 
| 58> *
| 59> 
| 60>                          ****END OF INPUT****
================================================================================

                       *****************************
                       * Geometry Optimization Run *
                       *****************************

Geometry optimization settings:
Update method            Update   .... BFGS
Choice of coordinates    CoordSys .... Z-matrix Internals
Initial Hessian          InHess   .... Almoef's Model

Convergence Tolerances:
Energy Change            TolE     ....  5.0000e-06 Eh
Max. Gradient            TolMAXG  ....  3.0000e-04 Eh/bohr
RMS Gradient             TolRMSG  ....  1.0000e-04 Eh/bohr
Max. Displacement        TolMAXD  ....  4.0000e-03 bohr
RMS Displacement         TolRMSD  ....  2.0000e-03 bohr
Strict Convergence                ....  False
------------------------------------------------------------------------------
                        ORCA OPTIMIZATION COORDINATE SETUP
------------------------------------------------------------------------------

The optimization will be done in new redundant internal coordinates
Making redundant internal coordinates   ...  (new redundants) done
Evaluating the initial hessian          ...  (Almloef) done
Evaluating the coordinates              ...  done
Calculating the B-matrix                .... done
Calculating the G-matrix                .... done
Diagonalizing the G-matrix              .... done
Imposing constraints:
 Iter   0:  RMS(Cart)=    0.0240691874 RMS(Int)=    0.0026301245
 Iter   1:  RMS(Cart)=    0.0010708771 RMS(Int)=    0.0001300704
 Iter   2:  RMS(Cart)=    0.0000522488 RMS(Int)=    0.0000062415
 Iter   3:  RMS(Cart)=    0.0000024710 RMS(Int)=    0.0000002911
 Iter   4:  RMS(Cart)=    0.0000001139 RMS(Int)=    0.0000000133
 Iter   5:  RMS(Cart)=    0.0000000052 RMS(Int)=    0.0000000006
CONVERGED
Small eigenvalue found = 1.213e-02
Small eigenvalue found = 1.560e-02
Small eigenvalue found = 2.185e-02
Small eigenvalue found = 2.395e-02
Small eigenvalue found = 2.939e-02
The first mode is                       ....  227
The number of degrees of freedom        ....  111
Storing new coordinates                 .... done

    -----------------------------------------------------------------
                    Redundant Internal Coordinates


    -----------------------------------------------------------------
         Definition                    Initial Value    Approx d2E/dq
    -----------------------------------------------------------------
      1. B(C   1,Ir  0)                  2.1555         0.087363   
      2. B(C   2,C   1)                  1.4444         0.511747   
      3. B(C   2,Ir  0)                  2.1026         0.106140   
      4. B(C   3,Ir  0)                  2.1640         0.084689   
      5. B(C   4,Ir  0)                  2.1658         0.084145   
      6. B(C   4,C   3)                  1.4462         0.508273   
      7. B(C   4,C   1)                  1.4051         0.591170   
      8. B(C   5,Ir  0)                  2.1630         0.085006   
      9. B(C   5,C   2)                  1.4364         0.526911   
     10. B(C   5,C   3)                  1.4047         0.591954   
     11. B(N   6,Ir  0)                  2.1009         0.095478   
     12. B(C   7,N   6)                  1.4714         0.414924   
     13. B(C   8,C   7)                  1.5198         0.387811   
     14. B(H   9,C   8)                  1.0891         0.361337   
     15. B(H  10,C   8)                  1.0913         0.358448   
     16. B(H  11,C   8)                  1.0905         0.359452   
     17. B(C  12,C   7)                  1.5236         0.382406   
     18. B(H  13,C   7)                  1.0914         0.358252   
     19. B(H  14,C  12)                  1.0889         0.361565   
     20. B(H  15,C  12)                  1.0909         0.358967   
     21. B(H  16,C  12)                  1.0892         0.361206   
     22. B(C  17,N   6)                  1.2741         0.851384   
     23. B(C  18,C  17)                  1.4486         0.502073   
     24. B(H  19,C  17)                  1.0864         0.364860   
     25. B(C  20,C  18)                  1.3887         0.627147   
     26. B(C  20,Ir  0)                  2.5571         0.017069 C 
     27. B(C  21,C  20)                  1.4244         0.550889   
     28. B(S  22,C  18)                  1.7110         0.518059   
     29. B(C  23,C  21)                  1.3597         0.698895   
     30. B(C  23,S  22)                  1.7175         0.506187   
     31. B(H  24,C  20)                  1.1674         0.270822   
     32. B(H  25,C  21)                  1.0804         0.373185   
     33. B(H  26,C  23)                  1.0796         0.374184   
     34. B(H  27,C   1)                  1.0805         0.372862   
     35. B(H  28,C   2)                  1.0804         0.373104   
     36. B(H  29,C   5)                  1.0806         0.372839   
     37. B(O  30,H  24)                  1.4429         0.083716 C 
     38. B(O  31,Ir  0)                  2.0256         0.126195   
     39. B(C  32,O  30)                  1.2258         1.022844   
     40. B(C  32,O  31)                  1.2956         0.791809   
     41. B(C  33,C  32)                  1.5035         0.411835   
     42. B(H  34,C  33)                  1.0866         0.364630   
     43. B(H  35,C  33)                  1.0918         0.357795   
     44. B(H  36,C  33)                  1.0881         0.362632   
     45. B(H  37,C   3)                  1.0801         0.373481   
     46. B(H  38,C   4)                  1.0805         0.372896   
     47. A(C   2,Ir  0,O  31)          105.5801         0.269134   
     48. A(C   1,Ir  0,O  31)          143.7389         0.261369   
     49. A(C   5,Ir  0,N   6)          154.6040         0.249824   
     50. A(C   1,Ir  0,C   3)           64.5269         0.247625   
     51. A(C   1,Ir  0,C   5)           65.0055         0.247759   
     52. A(C   3,Ir  0,O  31)          117.3370         0.260160   
     53. A(C   3,Ir  0,N   6)          156.3468         0.249688   
     54. A(C   2,Ir  0,C   5)           39.3251         0.254911   
     55. A(C   3,Ir  0,C   4)           39.0251         0.246283   
     56. A(C   2,Ir  0,C   4)           65.4223         0.254529   
     57. A(C   5,Ir  0,O  31)           94.2109         0.260305   
     58. A(C   4,Ir  0,N   6)          118.1926         0.249454   
     59. A(C   1,Ir  0,C   2)           39.6324         0.255941   
     60. A(C   4,Ir  0,C   5)           64.5475         0.246416   
     61. A(C   4,Ir  0,O  31)          156.1975         0.259911   
     62. A(C   1,Ir  0,N   6)          100.9464         0.250823   
     63. A(C   2,Ir  0,C   3)           65.2323         0.254771   
     64. A(C   2,Ir  0,N   6)          116.4226         0.258113   
     65. A(C   1,Ir  0,C   4)           37.9500         0.247394   
     66. A(N   6,Ir  0,O  31)           85.6096         0.263611   
     67. A(C   3,Ir  0,C   5)           37.8876         0.246646   
     68. A(Ir  0,C   1,H  27)          124.0160         0.269984   
     69. A(C   2,C   1,C   4)          108.1253         0.415858   
     70. A(Ir  0,C   1,C   4)           71.4195         0.321265   
     71. A(C   4,C   1,H  27)          125.9860         0.352146   
     72. A(Ir  0,C   1,C   2)           68.2069         0.313803   
     73. A(C   2,C   1,H  27)          125.8391         0.343692   
     74. A(C   5,C   2,H  28)          125.7614         0.345419   
     75. A(Ir  0,C   2,C   5)           72.6090         0.325488   
     76. A(C   1,C   2,C   5)          107.3214         0.407455   
     77. A(Ir  0,C   2,C   1)           72.1607         0.323930   
     78. A(Ir  0,C   2,H  28)          126.1811         0.278165   
     79. A(C   1,C   2,H  28)          126.5338         0.343729   
     80. A(Ir  0,C   3,H  37)          124.0418         0.268782   
     81. A(C   4,C   3,C   5)          108.3307         0.415453   
     82. A(C   4,C   3,H  37)          125.6659         0.343395   
     83. A(Ir  0,C   3,C   4)           70.5518         0.311883   
     84. A(Ir  0,C   3,C   5)           71.0172         0.319706   
     85. A(C   5,C   3,H  37)          126.0031         0.352324   
     86. A(Ir  0,C   4,C   1)           70.6305         0.319301   
     87. A(Ir  0,C   4,H  38)          124.6835         0.268457   
     88. A(C   1,C   4,H  38)          126.3012         0.352152   
     89. A(C   3,C   4,H  38)          125.7706         0.343305   
     90. A(Ir  0,C   4,C   3)           70.4231         0.311559   
     91. A(C   1,C   4,C   3)          107.9279         0.415355   
     92. A(Ir  0,C   5,H  29)          122.2061         0.268864   
     93. A(C   3,C   5,H  29)          126.0715         0.352221   
     94. A(C   2,C   5,H  29)          125.5843         0.345377   
     95. A(Ir  0,C   5,C   3)           71.0952         0.319901   
     96. A(C   2,C   5,C   3)          108.1166         0.418125   
     97. A(Ir  0,C   5,C   2)           68.0659         0.313897   
     98. A(Ir  0,N   6,C  17)          112.8295         0.342433   
     99. A(C   7,N   6,C  17)          123.0869         0.421982   
    100. A(Ir  0,N   6,C   7)          124.0667         0.304382   
    101. A(N   6,C   7,C   8)          113.6039         0.370005   
    102. A(N   6,C   7,C  12)          109.5880         0.369114   
    103. A(C   8,C   7,C  12)          111.6344         0.367151   
    104. A(N   6,C   7,H  13)          104.6238         0.327716   
    105. A(C   8,C   7,H  13)          108.4554         0.326043   
    106. A(C  12,C   7,H  13)          108.5899         0.325291   
    107. A(C   7,C   8,H  11)          112.1465         0.326222   
    108. A(H   9,C   8,H  11)          107.2273         0.290914   
    109. A(H  10,C   8,H  11)          108.9033         0.290547   
    110. A(C   7,C   8,H   9)          108.8002         0.326503   
    111. A(C   7,C   8,H  10)          112.9202         0.326072   
    112. A(H   9,C   8,H  10)          106.5367         0.290786   
    113. A(C   7,C  12,H  14)          109.5532         0.325784   
    114. A(C   7,C  12,H  15)          111.3204         0.325398   
    115. A(H  14,C  12,H  15)          107.7387         0.290881   
    116. A(C   7,C  12,H  16)          112.1905         0.325731   
    117. A(H  14,C  12,H  16)          107.1651         0.291165   
    118. A(H  15,C  12,H  16)          108.6901         0.290836   
    119. A(N   6,C  17,C  18)          115.8143         0.439550   
    120. A(N   6,C  17,H  19)          122.5742         0.371053   
    121. A(C  18,C  17,H  19)          121.5725         0.341352   
    122. A(C  17,C  18,C  20)          122.2603         0.418830   
    123. A(C  17,C  18,S  22)          124.7478         0.427044   
    124. A(C  20,C  18,S  22)          112.9678         0.444499   
    125. A(C  18,C  20,C  21)          110.4350         0.425830   
    126. A(C  18,C  20,H  24)          120.6154         0.337070   
    127. A(C  21,C  20,H  24)          126.4122         0.329896   
    128. A(C  20,C  21,H  25)          123.6950         0.348027   
    129. A(C  23,C  21,H  25)          123.0597         0.362361   
    130. A(C  20,C  21,C  23)          113.1621         0.434191   
    131. A(C  18,S  22,C  23)           90.9712         0.451445   
    132. A(C  21,C  23,H  26)          127.8927         0.362526   
    133. A(S  22,C  23,H  26)          119.6536         0.361117   
    134. A(C  21,C  23,S  22)          112.4358         0.451415   
    135. A(Ir  0,O  31,C  32)          127.1071         0.354553   
    136. A(O  30,C  32,O  31)          124.5480         0.490771   
    137. A(O  30,C  32,C  33)          121.2654         0.438390   
    138. A(O  31,C  32,C  33)          114.1699         0.418719   
    139. A(C  32,C  33,H  34)          110.6109         0.330251   
    140. A(C  32,C  33,H  35)          109.0997         0.329220   
    141. A(H  34,C  33,H  35)          107.8286         0.291117   
    142. A(C  32,C  33,H  36)          111.9128         0.329952   
    143. A(H  34,C  33,H  36)          110.0474         0.291733   
    144. A(H  35,C  33,H  36)          107.1922         0.290866   
    145. D(C   2,C   1,Ir  0,C   4)    119.2008         0.001710   
    146. D(C   2,C   1,Ir  0,C   5)     39.1787         0.001710   
    147. D(H  27,C   1,Ir  0,O  31)     98.4845         0.001710   
    148. D(C   4,C   1,Ir  0,C   2)   -119.2008         0.001710   
    149. D(C   2,C   1,Ir  0,O  31)    -20.9157         0.001710   
    150. D(H  27,C   1,Ir  0,C   3)   -159.3606         0.001710   
    151. D(C   4,C   1,Ir  0,O  31)   -140.1165         0.001710   
    152. D(H  27,C   1,Ir  0,C   2)    119.4002         0.001710   
    153. D(C   4,C   1,Ir  0,C   3)    -37.9616         0.001710   
    154. D(H  27,C   1,Ir  0,N   6)      0.9084         0.001710   
    155. D(C   2,C   1,Ir  0,C   3)     81.2392         0.001710   
    156. D(C   4,C   1,Ir  0,N   6)    122.3074         0.001710   
    157. D(H  27,C   1,Ir  0,C   4)   -121.3990         0.001710   
    158. D(H  27,C   1,Ir  0,C   5)    158.5788         0.001710   
    159. D(C   4,C   1,Ir  0,C   5)    -80.0221         0.001710   
    160. D(C   2,C   1,Ir  0,N   6)   -118.4918         0.001710   
    161. D(Ir  0,C   2,C   1,H  27)   -117.0272         0.020763   
    162. D(C   1,C   2,Ir  0,C   5)   -115.3756         0.001809   
    163. D(C   1,C   2,Ir  0,C   4)    -36.1785         0.001809   
    164. D(H  28,C   2,C   1,H  27)      5.2072         0.020763   
    165. D(H  28,C   2,C   1,Ir  0)    122.2344         0.020763   
    166. D(C   5,C   2,C   1,H  27)    178.3941         0.020763   
    167. D(C   1,C   2,Ir  0,C   3)    -79.3096         0.001809   
    168. D(H  28,C   2,Ir  0,C   4)   -158.8214         0.001809   
    169. D(H  28,C   2,Ir  0,C   5)    121.9815         0.001809   
    170. D(C   5,C   2,Ir  0,C   3)     36.0659         0.001809   
    171. D(C   5,C   2,Ir  0,C   1)    115.3756         0.001809   
    172. D(H  28,C   2,C   1,C   4)   -177.2351         0.020763   
    173. D(C   5,C   2,Ir  0,C   4)     79.1971         0.001809   
    174. D(C   5,C   2,C   1,Ir  0)    -64.5787         0.020763   
    175. D(H  28,C   2,Ir  0,N   6)    -48.1601         0.001809   
    176. D(H  28,C   2,Ir  0,O  31)     44.6948         0.001809   
    177. D(Ir  0,C   2,C   1,C   4)     60.5305         0.020763   
    178. D(C   5,C   2,C   1,C   4)     -4.0482         0.020763   
    179. D(C   1,C   2,Ir  0,N   6)     74.4828         0.001809   
    180. D(C   5,C   2,Ir  0,O  31)    -77.2867         0.001809   
    181. D(H  28,C   2,Ir  0,C   1)   -122.6429         0.001809   
    182. D(C   1,C   2,Ir  0,O  31)    167.3377         0.001809   
    183. D(H  28,C   2,Ir  0,C   3)    158.0475         0.001809   
    184. D(C   5,C   2,Ir  0,N   6)   -170.1416         0.001809   
    185. D(C   4,C   3,Ir  0,C   5)    118.3058         0.001698   
    186. D(C   4,C   3,Ir  0,C   1)     36.9261         0.001698   
    187. D(C   4,C   3,Ir  0,O  31)    176.3167         0.001698   
    188. D(C   4,C   3,Ir  0,C   2)     80.8961         0.001698   
    189. D(C   5,C   3,Ir  0,O  31)     58.0109         0.001698   
    190. D(C   5,C   3,Ir  0,C   2)    -37.4097         0.001698   
    191. D(C   4,C   3,Ir  0,N   6)    -18.7819         0.001698   
    192. D(H  37,C   3,Ir  0,C   4)    120.5090         0.001698   
    193. D(H  37,C   3,Ir  0,C   1)    157.4351         0.001698   
    194. D(C   5,C   3,Ir  0,C   1)    -81.3797         0.001698   
    195. D(C   5,C   3,Ir  0,C   4)   -118.3058         0.001698   
    196. D(C   5,C   3,Ir  0,N   6)   -137.0877         0.001698   
    197. D(H  37,C   3,Ir  0,C   5)   -121.1852         0.001698   
    198. D(H  37,C   3,Ir  0,N   6)    101.7271         0.001698   
    199. D(H  37,C   3,Ir  0,O  31)    -63.1743         0.001698   
    200. D(H  37,C   3,Ir  0,C   2)   -158.5949         0.001698   
    201. D(C   1,C   4,Ir  0,C   3)    118.1207         0.001695   
    202. D(H  38,C   4,C   3,H  37)      0.7090         0.020474   
    203. D(C   1,C   4,Ir  0,C   5)     81.3365         0.001695   
    204. D(C   1,C   4,Ir  0,N   6)    -70.3069         0.001695   
    205. D(C   1,C   4,Ir  0,O  31)    109.9919         0.001695   
    206. D(C   1,C   4,Ir  0,C   2)     37.7538         0.001695   
    207. D(C   3,C   4,Ir  0,C   1)   -118.1207         0.001695   
    208. D(H  38,C   4,C   3,C   5)   -179.4914         0.020474   
    209. D(C   3,C   4,Ir  0,C   5)    -36.7842         0.001695   
    210. D(C   3,C   4,Ir  0,N   6)    171.5723         0.001695   
    211. D(C   3,C   4,Ir  0,O  31)     -8.1289         0.001695   
    212. D(Ir  0,C   4,C   1,C   2)    -58.5229         0.028074   
    213. D(H  38,C   4,Ir  0,C   2)    159.0778         0.001695   
    214. D(H  38,C   4,Ir  0,C   3)   -120.5553         0.001695   
    215. D(H  38,C   4,C   1,C   2)   -177.8758         0.028074   
    216. D(H  38,C   4,Ir  0,N   6)     51.0170         0.001695   
    217. D(H  38,C   4,Ir  0,O  31)   -128.6842         0.001695   
    218. D(Ir  0,C   4,C   1,H  27)    119.0303         0.028074   
    219. D(C   3,C   4,C   1,Ir  0)     60.8539         0.028074   
    220. D(C   3,C   4,C   1,H  27)    179.8842         0.028074   
    221. D(H  38,C   4,C   1,Ir  0)   -119.3530         0.028074   
    222. D(H  38,C   4,Ir  0,C   5)   -157.3396         0.001695   
    223. D(H  38,C   4,C   1,H  27)     -0.3226         0.028074   
    224. D(Ir  0,C   4,C   3,C   5)     61.2889         0.020474   
    225. D(Ir  0,C   4,C   3,H  37)   -118.5107         0.020474   
    226. D(C   3,C   4,C   1,C   2)      2.3310         0.028074   
    227. D(C   1,C   4,C   3,C   5)      0.3031         0.020474   
    228. D(C   1,C   4,C   3,H  37)   -179.4965         0.020474   
    229. D(H  38,C   4,C   3,Ir  0)    119.2197         0.020474   
    230. D(H  38,C   4,Ir  0,C   1)    121.3240         0.001695   
    231. D(C   1,C   4,C   3,Ir  0)    -60.9857         0.020474   
    232. D(C   3,C   4,Ir  0,C   2)    -80.3669         0.001695   
    233. D(C   2,C   5,Ir  0,C   1)    -39.4844         0.001699   
    234. D(H  29,C   5,C   3,C   4)   -177.5781         0.028153   
    235. D(C   2,C   5,Ir  0,C   4)    -81.6114         0.001699   
    236. D(C   2,C   5,Ir  0,N   6)     20.9477         0.001699   
    237. D(C   2,C   5,Ir  0,O  31)    109.5784         0.001699   
    238. D(C   3,C   5,Ir  0,C   1)     80.0035         0.001699   
    239. D(C   3,C   5,Ir  0,C   2)    119.4879         0.001699   
    240. D(C   3,C   5,Ir  0,C   4)     37.8765         0.001699   
    241. D(H  29,C   5,C   2,C   1)    179.0118         0.022054   
    242. D(C   3,C   5,Ir  0,O  31)   -130.9337         0.001699   
    243. D(H  29,C   5,Ir  0,C   1)   -158.6761         0.001699   
    244. D(C   3,C   5,C   2,Ir  0)    -60.0498         0.022054   
    245. D(H  29,C   5,Ir  0,C   3)    121.3204         0.001699   
    246. D(H  29,C   5,Ir  0,C   4)    159.1969         0.001699   
    247. D(H  29,C   5,Ir  0,N   6)    -98.2440         0.001699   
    248. D(H  29,C   5,Ir  0,O  31)     -9.6133         0.001699   
    249. D(Ir  0,C   5,C   2,C   1)     64.2811         0.022054   
    250. D(H  29,C   5,Ir  0,C   2)   -119.1917         0.001699   
    251. D(Ir  0,C   5,C   2,H  28)   -122.4649         0.022054   
    252. D(C   3,C   5,C   2,C   1)      4.2313         0.022054   
    253. D(C   3,C   5,C   2,H  28)    177.4853         0.022054   
    254. D(C   3,C   5,Ir  0,N   6)    140.4356         0.001699   
    255. D(H  29,C   5,C   2,Ir  0)    114.7307         0.022054   
    256. D(H  29,C   5,C   2,H  28)     -7.7342         0.022054   
    257. D(Ir  0,C   5,C   3,C   4)    -60.9945         0.028153   
    258. D(Ir  0,C   5,C   3,H  37)    118.8043         0.028153   
    259. D(C   2,C   5,C   3,Ir  0)     58.1647         0.028153   
    260. D(C   2,C   5,C   3,C   4)     -2.8298         0.028153   
    261. D(C   2,C   5,C   3,H  37)    176.9689         0.028153   
    262. D(C   2,C   5,Ir  0,C   3)   -119.4879         0.001699   
    263. D(H  29,C   5,C   3,Ir  0)   -116.5836         0.028153   
    264. D(H  29,C   5,C   3,H  37)      2.2207         0.028153   
    265. D(C  17,N   6,Ir  0,C   1)    -93.6611         0.001770   
    266. D(C   7,N   6,Ir  0,C   2)     46.1277         0.001770   
    267. D(C   7,N   6,Ir  0,C   3)    134.3197         0.001770   
    268. D(C   7,N   6,Ir  0,C   4)    121.0215         0.001770   
    269. D(C   7,N   6,Ir  0,C   5)     31.4731         0.001770   
    270. D(C   7,N   6,Ir  0,C   1)     84.8833         0.001770   
    271. D(C   7,N   6,Ir  0,O  31)    -59.0994         0.001770   
    272. D(C  17,N   6,Ir  0,C   2)   -132.4167         0.001770   
    273. D(C  17,N   6,Ir  0,C   3)    -44.2248         0.001770   
    274. D(C  17,N   6,Ir  0,C   4)    -57.5229         0.001770   
    275. D(C  17,N   6,Ir  0,C   5)   -147.0714         0.001770   
    276. D(C  17,N   6,Ir  0,O  31)    122.3561         0.001770   
    277. D(C   8,C   7,N   6,Ir  0)    161.1845         0.014683   
    278. D(C   8,C   7,N   6,C  17)    -20.4167         0.014683   
    279. D(C  12,C   7,N   6,Ir  0)    -73.1851         0.014683   
    280. D(C  12,C   7,N   6,C  17)    105.2137         0.014683   
    281. D(H  13,C   7,N   6,Ir  0)     43.0819         0.014683   
    282. D(H  13,C   7,N   6,C  17)   -138.5193         0.014683   
    283. D(H   9,C   8,C   7,N   6)   -170.7436         0.011963   
    284. D(H   9,C   8,C   7,C  12)     64.7218         0.011963   
    285. D(H   9,C   8,C   7,H  13)    -54.8761         0.011963   
    286. D(H  10,C   8,C   7,N   6)     71.1969         0.011963   
    287. D(H  10,C   8,C   7,C  12)    -53.3377         0.011963   
    288. D(H  10,C   8,C   7,H  13)   -172.9356         0.011963   
    289. D(H  11,C   8,C   7,N   6)    -52.2975         0.011963   
    290. D(H  11,C   8,C   7,C  12)   -176.8320         0.011963   
    291. D(H  11,C   8,C   7,H  13)     63.5700         0.011963   
    292. D(H  14,C  12,C   7,N   6)    176.7734         0.011647   
    293. D(H  14,C  12,C   7,C   8)    -56.4746         0.011647   
    294. D(H  14,C  12,C   7,H  13)     63.0439         0.011647   
    295. D(H  15,C  12,C   7,N   6)    -64.1687         0.011647   
    296. D(H  15,C  12,C   7,C   8)     62.5834         0.011647   
    297. D(H  15,C  12,C   7,H  13)   -177.8982         0.011647   
    298. D(H  16,C  12,C   7,N   6)     57.8846         0.011647   
    299. D(H  16,C  12,C   7,C   8)   -175.3633         0.011647   
    300. D(H  16,C  12,C   7,H  13)    -55.8449         0.011647   
    301. D(C  18,C  17,N   6,Ir  0)     -8.8364         0.062785   
    302. D(C  18,C  17,N   6,C   7)    172.6027         0.062785   
    303. D(H  19,C  17,N   6,Ir  0)    173.4022         0.062785   
    304. D(H  19,C  17,N   6,C   7)     -5.1586         0.062785   
    305. D(C  20,C  18,C  17,N   6)    -42.9388         0.017172   
    306. D(C  20,C  18,C  17,H  19)    134.8469         0.017172   
    307. D(S  22,C  18,C  17,N   6)    135.1438         0.017172   
    308. D(S  22,C  18,C  17,H  19)    -47.0704         0.017172   
    309. D(C  21,C  20,C  18,C  17)    176.4762         0.029620   
    310. D(C  21,C  20,C  18,S  22)     -1.8128         0.029620   
    311. D(H  24,C  20,C  18,C  17)    -20.4774         0.029620   
    312. D(H  24,C  20,C  18,S  22)    161.2336         0.029620   
    313. D(C  23,C  21,C  20,C  18)      1.2427         0.022532   
    314. D(C  23,C  21,C  20,H  24)   -160.5878         0.022532   
    315. D(H  25,C  21,C  20,C  18)    178.0102         0.022532   
    316. D(H  25,C  21,C  20,H  24)     16.1797         0.022532   
    317. D(C  23,S  22,C  18,C  17)   -176.7447         0.005492   
    318. D(C  23,S  22,C  18,C  20)      1.4943         0.005492   
    319. D(S  22,C  23,C  21,C  20)     -0.1405         0.034393   
    320. D(S  22,C  23,C  21,H  25)   -176.9315         0.034393   
    321. D(H  26,C  23,C  21,C  20)    178.2964         0.034393   
    322. D(H  26,C  23,C  21,H  25)      1.5054         0.034393   
    323. D(C  21,C  23,S  22,C  18)     -0.7591         0.005302   
    324. D(H  26,C  23,S  22,C  18)   -179.3397         0.005302   
    325. D(C  32,O  31,Ir  0,C   1)   -173.2922         0.001946   
    326. D(C  32,O  31,Ir  0,C   2)    173.0338         0.001946   
    327. D(C  32,O  31,Ir  0,C   3)    103.2434         0.001946   
    328. D(C  32,O  31,Ir  0,C   4)    108.9957         0.001946   
    329. D(C  32,O  31,Ir  0,C   5)    134.7281         0.001946   
    330. D(C  32,O  31,Ir  0,N   6)    -70.7402         0.001946   
    331. D(O  30,C  32,O  31,Ir  0)      1.9481         0.048204   
    332. D(C  33,C  32,O  31,Ir  0)   -176.5710         0.048204   
    333. D(H  34,C  33,C  32,O  30)     22.0179         0.012558   
    334. D(H  34,C  33,C  32,O  31)   -159.4091         0.012558   
    335. D(H  35,C  33,C  32,O  30)    -96.4324         0.012558   
    336. D(H  35,C  33,C  32,O  31)     82.1406         0.012558   
    337. D(H  36,C  33,C  32,O  30)    145.1141         0.012558   
    338. D(H  36,C  33,C  32,O  31)    -36.3129         0.012558   
    -----------------------------------------------------------------

Number of atoms                         .... 39
Number of degrees of freedom            .... 338

         *************************************************************
         *                GEOMETRY OPTIMIZATION CYCLE   1            *
         *************************************************************
---------------------------------
CARTESIAN COORDINATES (ANGSTROEM)
---------------------------------
  Ir     0.575930   -0.727080    0.463882
  C      0.026706   -2.806791    0.324449
  C      0.125504   -2.369152    1.697370
  C      2.196732   -2.137198    0.723897
  C      1.282884   -2.633898   -0.280936
  C      1.497298   -2.016369    1.936120
  N     -1.046908    0.180527   -0.514005
  C     -2.317941    0.523734    0.143103
  C     -3.139389    1.550307   -0.619284
  H     -3.972214    1.868152    0.006377
  H     -3.574906    1.149982   -1.536291
  H     -2.560070    2.441457   -0.863037
  C     -3.114628   -0.747348    0.409798
  H     -2.024718    0.957900    1.100538
  H     -4.028533   -0.498655    0.947041
  H     -3.399756   -1.239382   -0.521106
  H     -2.563120   -1.457047    1.024985
  C     -0.828701    0.379588   -1.753377
  C      0.527741    0.139541   -2.201580
  H     -1.596008    0.742602   -2.431480
  C      1.633868    0.560944   -1.475381
  C      2.836100    0.124199   -2.102136
  S      0.948282   -0.714166   -3.623447
  C      2.618954   -0.564374   -3.254286
  H      1.535424    1.412027   -0.682402
  H      3.823947    0.360333   -1.733934
  H      3.354073   -0.978044   -3.928141
  H     -0.869125   -3.164061   -0.162791
  H     -0.654648   -2.411281    2.443550
  H      1.896136   -1.636140    2.865607
  O      1.262195    2.463720    0.266874
  O      0.547110    0.891771    1.681078
  C      0.890208    2.103802    1.378003
  C      0.831563    3.066779    2.531116
  H      0.769619    4.090410    2.171852
  H      1.745766    2.974196    3.120713
  H     -0.002961    2.853706    3.196077
  H      3.237878   -1.897690    0.565009
  H      1.529078   -2.837812   -1.313081

----------------------------
CARTESIAN COORDINATES (A.U.)
----------------------------
  NO LB      ZA    FRAG     MASS         X           Y           Z
   0 Ir   17.0000*   0   192.220    1.088350   -1.373982    0.876610
   1 C     6.0000    0    12.011    0.050467   -5.304067    0.613120
   2 C     6.0000    0    12.011    0.237168   -4.477048    3.207564
   3 C     6.0000    0    12.011    4.151221   -4.038719    1.367967
   4 C     6.0000    0    12.011    2.424300   -4.977347   -0.530893
   5 C     6.0000    0    12.011    2.829484   -3.810384    3.658736
   6 N     7.0000    0    14.007   -1.978370    0.341147   -0.971329
   7 C     6.0000    0    12.011   -4.380273    0.989714    0.270425
   8 C     6.0000    0    12.011   -5.932586    2.929656   -1.170277
   9 H     1.0000    0     1.008   -7.506396    3.530295    0.012051
  10 H     1.0000    0     1.008   -6.755593    2.173152   -2.903170
  11 H     1.0000    0     1.008   -4.837831    4.613686   -1.630904
  12 C     6.0000    0    12.011   -5.885794   -1.412284    0.774406
  13 H     1.0000    0     1.008   -3.826162    1.810168    2.079716
  14 H     1.0000    0     1.008   -7.612825   -0.942322    1.789648
  15 H     1.0000    0     1.008   -6.424608   -2.342092   -0.984748
  16 H     1.0000    0     1.008   -4.843596   -2.753420    1.936941
  17 C     6.0000    0    12.011   -1.566018    0.717317   -3.313402
  18 C     6.0000    0    12.011    0.997286    0.263694   -4.160384
  19 H     1.0000    0     1.008   -3.016017    1.403315   -4.594831
  20 C     6.0000    0    12.011    3.087563    1.060031   -2.788066
  21 C     6.0000    0    12.011    5.359453    0.234703   -3.972461
  22 S    16.0000    0    32.060    1.791992   -1.349578   -6.847322
  23 C     6.0000    0    12.011    4.949106   -1.066512   -6.149709
  24 H     1.0000    0     1.008    2.901532    2.668343   -1.289552
  25 H     1.0000    0     1.008    7.226213    0.680931   -3.276661
  26 H     1.0000    0     1.008    6.338279   -1.848235   -7.423111
  27 H     1.0000    0     1.008   -1.642409   -5.979208   -0.307631
  28 H     1.0000    0     1.008   -1.237106   -4.556660    4.617640
  29 H     1.0000    0     1.008    3.583178   -3.091857    5.415212
  30 O     8.0000    0    15.999    2.385203    4.655756    0.504318
  31 O     8.0000    0    15.999    1.033887    1.685203    3.176778
  32 C     6.0000    0    12.011    1.682249    3.975610    2.604048
  33 C     6.0000    0    12.011    1.571425    5.795373    4.783116
  34 H     1.0000    0     1.008    1.454370    7.729755    4.104205
  35 H     1.0000    0     1.008    3.299021    5.620416    5.897292
  36 H     1.0000    0     1.008   -0.005596    5.392723    6.039709
  37 H     1.0000    0     1.008    6.118703   -3.586114    1.067713
  38 H     1.0000    0     1.008    2.889539   -5.362688   -2.481364
* core charge reduced due to ECP

--------------------------------
INTERNAL COORDINATES (ANGSTROEM)
--------------------------------
 Ir     0   0   0     0.000000000000     0.00000000     0.00000000
 C      1   0   0     2.155533258614     0.00000000     0.00000000
 C      2   1   0     1.444332071350    68.20611791     0.00000000
 C      1   2   3     2.163997679759    64.52557325    81.23948227
 C      2   1   3     1.405059284669    71.41983753   240.79905390
 C      4   1   2     1.404698403369    71.01711168   278.62014130
 N      1   2   3     2.101356929394   100.94734696   241.50738035
 C      7   1   2     1.471424096390   123.82501584    84.86067185
 C      8   7   1     1.519819336668   113.60396787   161.19670251
 H      9   8   7     1.089066640175   108.80029861   189.25641428
 H      9   8   7     1.091251535905   112.91995666    71.19683632
 H      9   8   7     1.090490633592   112.14663902   307.70240656
 C      8   7   1     1.523639763660   109.58782040   286.82719220
 H      8   7   1     1.091400619354   104.62393322    43.09426699
 H     13   8   7     1.088895134117   109.55294558   176.77337772
 H     13   8   7     1.090857562030   111.32054992   295.83139695
 H     13   8   7     1.089165209850   112.19063934    57.88460417
 C      7   1   2     1.275768004823   113.30689177   266.34725172
 C     18   7   1     1.449526904132   116.34547385   351.03814213
 H     18   7   1     1.086425608549   122.31396745   173.28042949
 C     19  18   7     1.388978033549   122.43118093   316.91859704
 C     21  19  18     1.424269496319   110.46138686   176.51481313
 S     19  18   7     1.710995237527   124.62973503   135.08399178
 C     22  21  19     1.359492177758   113.16177593     1.26123807
 H     21  19  18     1.167558365632   120.60544437   339.56753029
 H     22  21  19     1.080284119286   123.69359460   178.02079220
 H     24  22  21     1.079556639300   127.89692012   178.28841649
 H      2   1   3     1.080519620857   124.01654241   119.40040065
 H      3   2   1     1.080342917356   126.53347244   122.23474986
 H      6   4   1     1.080536654808   126.07143566   243.41771474
 O     25  21  19     1.457142846998   173.20672075    14.77232082
 O      1   2   3     2.025427332744   143.74291231   339.08264749
 C     31  25  21     1.225822937206   117.80664680    71.67994751
 C     33  31  25     1.503458345512   121.27719485   168.13825625
 H     34  33  31     1.086597273415   110.61204518    22.01873969
 H     34  33  31     1.091748063103   109.10035141   263.56892202
 H     34  33  31     1.088092316416   111.91163819   145.11530118
 H      4   1   2     1.080068003451   124.04085103   157.43502475
 H      5   2   1     1.080494742848   126.29992948   240.64611060

---------------------------
INTERNAL COORDINATES (A.U.)
---------------------------
 Ir     0   0   0     0.000000000000     0.00000000     0.00000000
 C      1   0   0     4.073367531340     0.00000000     0.00000000
 C      2   1   0     2.729392061290    68.20611791     0.00000000
 C      1   2   3     4.089362969186    64.52557325    81.23948227
 C      2   1   3     2.655177249947    71.41983753   240.79905390
 C      4   1   2     2.654495283123    71.01711168   278.62014130
 N      1   2   3     3.970989106173   100.94734696   241.50738035
 C      7   1   2     2.780588569030   123.82501584    84.86067185
 C      8   7   1     2.872042319340   113.60396787   161.19670251
 H      9   8   7     2.058037691521   108.80029861   189.25641428
 H      9   8   7     2.062166546081   112.91995666    71.19683632
 H      9   8   7     2.060728649095   112.14663902   307.70240656
 C      8   7   1     2.879261880070   109.58782040   286.82719220
 H      8   7   1     2.062448272971   104.62393322    43.09426699
 H     13   8   7     2.057713592041   109.55294558   176.77337772
 H     13   8   7     2.061422043354   111.32054992   295.83139695
 H     13   8   7     2.058223961212   112.19063934    57.88460417
 C      7   1   2     2.410852139534   113.30689177   266.34725172
 C     18   7   1     2.739208872560   116.34547385   351.03814213
 H     18   7   1     2.053046865037   122.31396745   173.28042949
 C     19  18   7     2.624788089439   122.43118093   316.91859704
 C     21  19  18     2.691479288942   110.46138686   176.51481313
 S     19  18   7     3.233312415370   124.62973503   135.08399178
 C     22  21  19     2.569067897171   113.16177593     1.26123807
 H     21  19  18     2.206365556414   120.60544437   339.56753029
 H     22  21  19     2.041441132275   123.69359460   178.02079220
 H     24  22  21     2.040066394333   127.89692012   178.28841649
 H      2   1   3     2.041886165748   124.01654241   119.40040065
 H      3   2   1     2.041552244525   126.53347244   122.23474986
 H      6   4   1     2.041918355250   126.07143566   243.41771474
 O     25  21  19     2.753600918829   173.20672075    14.77232082
 O      1   2   3     3.827502963045   143.74291231   339.08264749
 C     31  25  21     2.316469639999   117.80664680    71.67994751
 C     33  31  25     2.841124526776   121.27719485   168.13825625
 H     34  33  31     2.053371264621   110.61204518    22.01873969
 H     34  33  31     2.063104846503   109.10035141   263.56892202
 H     34  33  31     2.056196486450   111.91163819   145.11530118
 H      4   1   2     2.041032732533   124.04085103   157.43502475
 H      5   2   1     2.041839153124   126.29992948   240.64611060

---------------------
BASIS SET INFORMATION
---------------------
There are 6 groups of distinct atoms

 Group   1 Type Ir  : 7s6p5d1f contracted to 6s3p2d1f pattern {211111/411/41/1}
 Group   2 Type C   : 8s4p1d contracted to 4s2p1d pattern {5111/31/1}
 Group   3 Type N   : 8s4p1d contracted to 4s2p1d pattern {5111/31/1}
 Group   4 Type H   : 4s contracted to 2s pattern {31}
 Group   5 Type S   : 10s7p1d contracted to 4s3p1d pattern {5311/511/1}
 Group   6 Type O   : 8s4p1d contracted to 4s2p1d pattern {5111/31/1}

Atom   0Ir   basis set group =>   1
Atom   1C    basis set group =>   2
Atom   2C    basis set group =>   2
Atom   3C    basis set group =>   2
Atom   4C    basis set group =>   2
Atom   5C    basis set group =>   2
Atom   6N    basis set group =>   3
Atom   7C    basis set group =>   2
Atom   8C    basis set group =>   2
Atom   9H    basis set group =>   4
Atom  10H    basis set group =>   4
Atom  11H    basis set group =>   4
Atom  12C    basis set group =>   2
Atom  13H    basis set group =>   4
Atom  14H    basis set group =>   4
Atom  15H    basis set group =>   4
Atom  16H    basis set group =>   4
Atom  17C    basis set group =>   2
Atom  18C    basis set group =>   2
Atom  19H    basis set group =>   4
Atom  20C    basis set group =>   2
Atom  21C    basis set group =>   2
Atom  22S    basis set group =>   5
Atom  23C    basis set group =>   2
Atom  24H    basis set group =>   4
Atom  25H    basis set group =>   4
Atom  26H    basis set group =>   4
Atom  27H    basis set group =>   4
Atom  28H    basis set group =>   4
Atom  29H    basis set group =>   4
Atom  30O    basis set group =>   6
Atom  31O    basis set group =>   6
Atom  32C    basis set group =>   2
Atom  33C    basis set group =>   2
Atom  34H    basis set group =>   4
Atom  35H    basis set group =>   4
Atom  36H    basis set group =>   4
Atom  37H    basis set group =>   4
Atom  38H    basis set group =>   4
---------------------------------
AUXILIARY/J BASIS SET INFORMATION
---------------------------------
There are 6 groups of distinct atoms

 Group   1 Type Ir  : 11s5p5d3f3g contracted to 8s5p5d2f3g pattern {41111111/11111/11111/21/111}
 Group   2 Type C   : 12s5p4d2f1g contracted to 6s4p3d1f1g pattern {711111/2111/211/2/1}
 Group   3 Type N   : 12s5p4d2f1g contracted to 6s4p3d1f1g pattern {711111/2111/211/2/1}
 Group   4 Type H   : 5s2p1d contracted to 3s1p1d pattern {311/2/1}
 Group   5 Type S   : 14s5p5d2f1g contracted to 8s4p3d1f1g pattern {71111111/2111/311/2/1}
 Group   6 Type O   : 12s5p4d2f1g contracted to 6s4p3d1f1g pattern {711111/2111/211/2/1}

Atom   0Ir   basis set group =>   1
Atom   1C    basis set group =>   2
Atom   2C    basis set group =>   2
Atom   3C    basis set group =>   2
Atom   4C    basis set group =>   2
Atom   5C    basis set group =>   2
Atom   6N    basis set group =>   3
Atom   7C    basis set group =>   2
Atom   8C    basis set group =>   2
Atom   9H    basis set group =>   4
Atom  10H    basis set group =>   4
Atom  11H    basis set group =>   4
Atom  12C    basis set group =>   2
Atom  13H    basis set group =>   4
Atom  14H    basis set group =>   4
Atom  15H    basis set group =>   4
Atom  16H    basis set group =>   4
Atom  17C    basis set group =>   2
Atom  18C    basis set group =>   2
Atom  19H    basis set group =>   4
Atom  20C    basis set group =>   2
Atom  21C    basis set group =>   2
Atom  22S    basis set group =>   5
Atom  23C    basis set group =>   2
Atom  24H    basis set group =>   4
Atom  25H    basis set group =>   4
Atom  26H    basis set group =>   4
Atom  27H    basis set group =>   4
Atom  28H    basis set group =>   4
Atom  29H    basis set group =>   4
Atom  30O    basis set group =>   6
Atom  31O    basis set group =>   6
Atom  32C    basis set group =>   2
Atom  33C    basis set group =>   2
Atom  34H    basis set group =>   4
Atom  35H    basis set group =>   4
Atom  36H    basis set group =>   4
Atom  37H    basis set group =>   4
Atom  38H    basis set group =>   4
-------------------------
ECP PARAMETER INFORMATION
-------------------------

 Group 1, Type Ir ECP Def2-ECP (replacing 60 core electrons, lmax=3)

Atom   0Ir   ECP group =>   1

------------------------------------------------------------------------------
                           ORCA GTO INTEGRAL CALCULATION
                           -- RI-GTO INTEGRALS CHOSEN --
------------------------------------------------------------------------------
------------------------------------------------------------------------------
                   ___                                                        
                  /   \      - P O W E R E D   B Y -                         
                 /     \                                                     
                 |  |  |   _    _      __       _____    __    __             
                 |  |  |  | |  | |    /  \     |  _  \  |  |  /  |          
                  \  \/   | |  | |   /    \    | | | |  |  | /  /          
                 / \  \   | |__| |  /  /\  \   | |_| |  |  |/  /          
                |  |  |   |  __  | /  /__\  \  |    /   |      \           
                |  |  |   | |  | | |   __   |  |    \   |  |\   \          
                \     /   | |  | | |  |  |  |  | |\  \  |  | \   \       
                 \___/    |_|  |_| |__|  |__|  |_| \__\ |__|  \__/        
                                                                              
                      - O R C A' S   B I G   F R I E N D -                    
                                      &                                       
                       - I N T E G R A L  F E E D E R -                       
                                                                              
 v1 FN, 2020, v2 2021                                                         
------------------------------------------------------------------------------


Reading SHARK input file reaction4-IEIP_ts_guess_scan_1-4_orca.SHARKINP.tmp ... ok
----------------------
SHARK INTEGRAL PACKAGE
----------------------

Number of atoms                             ...     39
Number of basis functions                   ...    358
Number of shells                            ...    184
Maximum angular momentum                    ...      3
Integral batch strategy                     ... SHARK/LIBINT Hybrid
RI-J (if used) integral strategy            ... SPLIT-RIJ (Revised 2003 algorithm where possible)
Printlevel                                  ...      1
Contraction scheme used                     ... SEGMENTED contraction
Coulomb Range Separation                    ... NOT USED
Exchange Range Separation                   ... NOT USED
Finite Nucleus Model                        ... NOT USED
Auxiliary Coulomb fitting basis             ... AVAILABLE
   # of basis functions in Aux-J            ...   1231
   # of shells in Aux-J                     ...    405
   Maximum angular momentum in Aux-J        ...      4
Auxiliary J/K fitting basis                 ... NOT available
Auxiliary Correlation fitting basis         ... NOT available
Auxiliary 'external' fitting basis          ... NOT available
Integral threshold                          ...     2.500000e-11
Primitive cut-off                           ...     2.500000e-12
Primitive pair pre-selection threshold      ...     2.500000e-12

Calculating pre-screening integrals         ... done (  0.1 sec) Dimension = 184
Organizing shell pair data                  ... done (  0.1 sec)
Shell pair information
Total number of shell pairs                 ...     17020
Shell pairs after pre-screening             ...     12986
Total number of primitive shell pairs       ...     60705
Primitive shell pairs kept                  ...     29210
          la=0 lb=0:   4973 shell pairs
          la=1 lb=0:   4261 shell pairs
          la=1 lb=1:    857 shell pairs
          la=2 lb=0:   1751 shell pairs
          la=2 lb=1:    786 shell pairs
          la=2 lb=2:    181 shell pairs
          la=3 lb=0:    113 shell pairs
          la=3 lb=1:     42 shell pairs
          la=3 lb=2:     21 shell pairs
          la=3 lb=3:      1 shell pairs

Calculating one electron integrals          ... done (  0.1 sec)
Calculating ECP integrals                   ... done (  0.8 sec)
Calculating RI/J V-Matrix + Cholesky decomp.... done (  0.1 sec)
Calculating Nuclear repulsion               ... done (  0.0 sec) ENN=   2040.105803156166 Eh

SHARK setup successfully completed in   1.4 seconds

Maximum memory used throughout the entire GTOINT-calculation: 91.3 MB
-------------------------------------------------------------------------------
                                 ORCA SCF
-------------------------------------------------------------------------------

------------
SCF SETTINGS
------------
Hamiltonian:
 Density Functional     Method          .... DFT(GTOs)
 Exchange Functional    Exchange        .... PBE
   PBE kappa parameter   XKappa         ....  1.024500
   PBE mue parameter    XMuePBE         ....  0.123457
 Correlation Functional Correlation     .... PBE
   PBE beta parameter  CBetaPBE         ....  0.030000
 LDA part of GGA corr.  LDAOpt          .... PW91-LDA
 Gradients option       PostSCFGGA      .... off
 Hybrid DFT is turned on
   Fraction HF Exchange ScalHFX         ....  0.420000
   Scaling of DF-GGA-X  ScalDFX         ....  0.580000
   Scaling of DF-GGA-C  ScalDFC         ....  1.000000
   Scaling of DF-LDA-C  ScalLDAC        ....  1.000000
   Perturbative correction              ....  0.000000
   Density functional embedding theory  .... OFF
 RI-approximation to the Coulomb term is turned on
   Number of AuxJ basis functions       .... 1231
   RIJ-ON(X) (HFX calculated with O(N)) .... on
   Number of AuxJ basis functions       .... 1231
   RIJ-COSX (HFX calculated with COS-X)).... on


General Settings:
 Integral files         IntName         .... reaction4-IEIP_ts_guess_scan_1-4_orca
 Hartree-Fock type      HFTyp           .... RHF
 Total Charge           Charge          ....    1
 Multiplicity           Mult            ....    1
 Number of Electrons    NEL             ....  164
 Basis Dimension        Dim             ....  358
 Nuclear Repulsion      ENuc            ....   2040.1058031562 Eh

Convergence Acceleration:
 DIIS                   CNVDIIS         .... on
   Start iteration      DIISMaxIt       ....    12
   Startup error        DIISStart       ....  0.200000
   # of expansion vecs  DIISMaxEq       ....     5
   Bias factor          DIISBfac        ....   1.050
   Max. coefficient     DIISMaxC        ....  10.000
 Trust-Rad. Augm. Hess. CNVTRAH         .... auto
   Auto Start mean grad. ratio tolernc. ....  1.125000
   Auto Start start iteration           ....    20
   Auto Start num. interpolation iter.  ....    10
   Max. Number of Micro iterations      ....    16
   Max. Number of Macro iterations      .... Maxiter - #DIIS iter
   Number of Davidson start vectors     ....     2
   Converg. threshold I  (grad. norm)   ....   1.000e-05
   Converg. threshold II (energy diff.) ....   1.000e-08
   Grad. Scal. Fac. for Micro threshold ....   0.100
   Minimum threshold for Micro iter.    ....   0.010
   NR start threshold (gradient norm)   ....   0.001
   Initial trust radius                 ....   0.400
   Minimum AH scaling param. (alpha)    ....   1.000
   Maximum AH scaling param. (alpha)    .... 1000.000
   Orbital update algorithm             .... Taylor
   White noise on init. David. guess    .... on
   Maximum white noise                  ....   0.010
   Quad. conv. algorithm                .... NR
   COSX micro iterations for RIJONX calc.... off
 SOSCF                  CNVSOSCF        .... off
 Level Shifting         CNVShift        .... on
   Level shift para.    LevelShift      ....    0.2500
   Turn off err/grad.   ShiftErr        ....    0.0010
 Zerner damping         CNVZerner       .... off
 Static damping         CNVDamp         .... on
   Fraction old density DampFac         ....    0.7000
   Max. Damping (<1)    DampMax         ....    0.9800
   Min. Damping (>=0)   DampMin         ....    0.0000
   Turn off err/grad.   DampErr         ....    0.1000
 Fernandez-Rico         CNVRico         .... off

SCF Procedure:
 Maximum # iterations   MaxIter         ....   250
 SCF integral mode      SCFMode         .... Direct
   Integral package                     .... SHARK and LIBINT hybrid scheme
 Reset frequency        DirectResetFreq ....    20
 Integral Threshold     Thresh          ....  2.500e-11 Eh
 Primitive CutOff       TCut            ....  2.500e-12 Eh

Convergence Tolerance:
 Convergence Check Mode ConvCheckMode   .... Total+1el-Energy
 Convergence forced     ConvForced      .... 0
 Energy Change          TolE            ....  1.000e-08 Eh
 1-El. energy change                    ....  1.000e-05 Eh
 DIIS Error             TolErr          ....  5.000e-07


Diagonalization of the overlap matrix:
Smallest eigenvalue                        ... 1.034e-03
Time for diagonalization                   ...    0.025 sec
Threshold for overlap eigenvalues          ... 1.000e-08
Number of eigenvalues below threshold      ... 0
Time for construction of square roots      ...    0.009 sec
Total time needed                          ...    0.036 sec

--------------------
INITIAL GUESS: HCORE
--------------------
                      -----------------
                      INTIAL GUESS DONE 
                      -----------------
-------------------
DFT GRID GENERATION
-------------------

General Integration Accuracy     IntAcc      ... 4.159
Radial Grid Type                 RadialGrid  ... OptM3 with GC (2021)
Angular Grid (max. ang.)         AngularGrid ... 3 (Lebedev-194)
Angular grid pruning method      GridPruning ... 4 (adaptive)
Weight generation scheme         WeightScheme... Becke
Basis function cutoff            BFCut       ... 1.0000e-11
Integration weight cutoff        WCut        ... 1.0000e-14
Angular grids for H and He will be reduced by one unit
Partially contracted basis set               ... off
Rotationally invariant grid construction     ... off

Total number of grid points                  ...    93314
Total number of batches                      ...     1477
Average number of points per batch           ...       63
Average number of grid points per atom       ...     2393
Time for grid setup =    1.809 sec

--------------------
COSX GRID GENERATION
--------------------

GRIDX 1
-------
General Integration Accuracy     IntAcc      ... 3.816
Radial Grid Type                 RadialGrid  ... OptM3 with GC (2021)
Angular Grid (max. ang.)         AngularGrid ... 1 (Lebedev-50)
Angular grid pruning method      GridPruning ... 4 (adaptive)
Weight generation scheme         WeightScheme... Becke
Basis function cutoff            BFCut       ... 1.0000e-11
Integration weight cutoff        WCut        ... 1.0000e-14
Angular grids for H and He will be reduced by one unit
Partially contracted basis set               ... on
Rotationally invariant grid construction     ... off

Total number of grid points                  ...    23173
Total number of batches                      ...      381
Average number of points per batch           ...       60
Average number of grid points per atom       ...      594
UseSFitting                                  ... on

GRIDX 2
-------
General Integration Accuracy     IntAcc      ... 4.020
Radial Grid Type                 RadialGrid  ... OptM3 with GC (2021)
Angular Grid (max. ang.)         AngularGrid ... 2 (Lebedev-110)
Angular grid pruning method      GridPruning ... 4 (adaptive)
Weight generation scheme         WeightScheme... Becke
Basis function cutoff            BFCut       ... 1.0000e-11
Integration weight cutoff        WCut        ... 1.0000e-14
Angular grids for H and He will be reduced by one unit
Partially contracted basis set               ... on
Rotationally invariant grid construction     ... off

Total number of grid points                  ...    50312
Total number of batches                      ...      805
Average number of points per batch           ...       62
Average number of grid points per atom       ...     1290
UseSFitting                                  ... on

GRIDX 3
-------
General Integration Accuracy     IntAcc      ... 4.338
Radial Grid Type                 RadialGrid  ... OptM3 with GC (2021)
Angular Grid (max. ang.)         AngularGrid ... 3 (Lebedev-194)
Angular grid pruning method      GridPruning ... 4 (adaptive)
Weight generation scheme         WeightScheme... Becke
Basis function cutoff            BFCut       ... 1.0000e-11
Integration weight cutoff        WCut        ... 1.0000e-14
Angular grids for H and He will be reduced by one unit
Partially contracted basis set               ... on
Rotationally invariant grid construction     ... off

Total number of grid points                  ...   108803
Total number of batches                      ...     1721
Average number of points per batch           ...       63
Average number of grid points per atom       ...     2790
UseSFitting                                  ... on

Time for X-Grid setup             =    4.558 sec

--------------
SCF ITERATIONS
--------------
ITER       Energy         Delta-E        Max-DP      RMS-DP      [F,P]     Damp
               ***  Starting incremental Fock matrix formation  ***
  0   -864.2229194990   0.00000000000019.73659476  0.14460921  2.7213540 0.7000
  1  -1099.5872627848-235.364343285731 9.56387474  0.11641586  1.4767238 0.7000
  2  -1168.6760180858 -69.088755301060 5.48122752  0.05995212  1.0588156 0.7000
  3  -1194.4806996150 -25.804681529188 3.80454669  0.04322206  0.7706764 0.7000
  4  -1211.4170361771 -16.936336562039 2.68600325  0.03536543  0.4577827 0.7000
  5  -1225.9150707865 -14.498034609394 2.39085119  0.02974100  0.3663863 0.7000
  6  -1235.0784144530  -9.163343666511 1.74303321  0.02751436  0.3368841 0.7000
  7  -1242.4406543216  -7.362239868608 1.90035589  0.02479616  0.3290076 0.7000
  8  -1246.8157070778  -4.375052756247 1.66746717  0.02459103  0.3867781 0.7000
  9  -1250.7084332907  -3.892726212872 1.62158624  0.02359920  0.3572841 0.7000
 10  -1252.7133408815  -2.004907590788 1.64577038  0.02367157  0.4098671 0.7000
 11  -1254.7932432078  -2.079902326357 1.49947711  0.02342633  0.3689954 0.7000
                               ***Turning on DIIS***
 12  -1255.6403476306  -0.847104422794 1.61635516  0.02350581  0.4213696 0.7000
 13  -1256.8224211664  -1.182073535782 1.43191445  0.01987587  0.3745457 0.7000
 14  -1267.5904616650 -10.768040498561 1.00442984  0.01405042  0.2574544 0.7000
 15  -1273.9537919171  -6.363330252081 0.70872599  0.00999890  0.1033777 0.7000
 16  -1277.9684075085  -4.014615591416 0.49296539  0.00706384  0.1333376 0.7000
 17  -1280.6790970082  -2.710689499750 0.33810228  0.00498927  0.1688312 0.7000
 18  -1282.6831181100  -2.004021101777 0.23556993  0.00357812  0.1692449 0.7000
 19  -1284.1962098557  -1.513091745678 0.16318846  0.00271462  0.1581670 0.7000
               *** Restarting incremental Fock matrix formation ***
                                   *** Resetting DIIS ***
 20  -1285.3963729885  -1.200163132770 0.12697595  0.00248232  0.1319365 0.7000
 21  -1286.3505560677  -0.954183079218 0.29149180  0.00563432  0.0466835 0.0000
 22  -1288.3638189777  -2.013262910061 0.03895245  0.00099149  0.0624033 0.0000
 23  -1288.4221081321  -0.058289154397 0.04865696  0.00083946  0.0345899 0.0000
 24  -1288.4356436207  -0.013535488596 0.02847024  0.00035476  0.0228259 0.0000
 25  -1288.4404540807  -0.004810459950 0.00993616  0.00017032  0.0058596 0.0000
 26  -1288.4414549978  -0.001000917159 0.00547230  0.00009200  0.0039536 0.0000
 27  -1288.4418182388  -0.000363240915 0.00497219  0.00007394  0.0017936 0.0000
 28  -1288.4420030531  -0.000184814374 0.00320001  0.00004455  0.0010498 0.0000
 29  -1288.4420725085  -0.000069455337 0.00472392  0.00006444  0.0007717 0.0000
               *** Restarting incremental Fock matrix formation ***
                                   *** Resetting DIIS ***
 30  -1288.4429130521  -0.000840543633 0.00512463  0.00008605  0.0008235 0.0000
 31  -1288.4429266043  -0.000013552188 0.00152470  0.00002112  0.0009969 0.0000
 32  -1288.4429323909  -0.000005786603 0.00148083  0.00001285  0.0007304 0.0000
 33  -1288.4429363470  -0.000003956127 0.00056574  0.00000496  0.0004039 0.0000
 34  -1288.4429371192  -0.000000772166 0.00029027  0.00000238  0.0000939 0.0000
 35  -1288.4429372584  -0.000000139207 0.00012178  0.00000118  0.0000478 0.0000
 36  -1288.4429372874  -0.000000028983 0.00010365  0.00000098  0.0000303 0.0000
 37  -1288.4429373001  -0.000000012722 0.00004720  0.00000044  0.0000121 0.0000
 38  -1288.4429373069  -0.000000006792 0.00002437  0.00000020  0.0000064 0.0000
 39  -1288.4429373047   0.000000002180 0.00001737  0.00000014  0.0000097 0.0000
 40  -1288.4429373149  -0.000000010152 0.00000494  0.00000005  0.0000026 0.0000
 41  -1288.4429372926   0.000000022266 0.00000297  0.00000003  0.0000018 0.0000
                            ***DIIS convergence achieved***

               *****************************************************
               *                     SUCCESS                       *
               *           SCF CONVERGED AFTER  42 CYCLES          *
               *****************************************************

Old exchange energy                            =    -59.662902695 Eh
New exchange energy                            =    -59.662853941 Eh
Exchange energy change after final integration =      0.000048755 Eh
Total energy after final integration           =  -1288.442888548 Eh
Final COS-X integration done in                =    57.667 sec

----------------
TOTAL SCF ENERGY
----------------

Total Energy       :        -1288.44288855 Eh          -35060.31343 eV

Components:
Nuclear Repulsion  :         2040.10580316 Eh           55514.10119 eV
Electronic Energy  :        -3328.54869170 Eh          -90574.41462 eV
One Electron Energy:        -5835.62240457 Eh         -158795.35863 eV
Two Electron Energy:         2507.07371287 Eh           68220.94401 eV
Max COSX asymmetry :            0.00001623 Eh               0.00044 eV

Virial components:
Potential Energy   :        -2501.58917243 Eh          -68071.70208 eV
Kinetic Energy     :         1213.14628388 Eh           33011.38865 eV
Virial Ratio       :            2.06206721


DFT components:
N(Alpha)           :       82.000346710788 electrons
N(Beta)            :       82.000346710788 electrons
N(Total)           :      164.000693421577 electrons
E(X)               :      -79.595332843203 Eh       
E(C)               :       -7.453623571881 Eh       
E(XC)              :      -87.048956415084 Eh       
DFET-embed. en.    :        0.000000000000 Eh       

---------------
SCF CONVERGENCE
---------------

  Last Energy change         ...   -1.0453e-08  Tolerance :   1.0000e-08
  Last MAX-Density change    ...    0.0000e+00  Tolerance :   1.0000e-07
  Last RMS-Density change    ...    0.0000e+00  Tolerance :   5.0000e-09
  Last DIIS Error            ...    9.3895e-07  Tolerance :   5.0000e-07

             **** THE GBW FILE WAS UPDATED (reaction4-IEIP_ts_guess_scan_1-4_orca.gbw) ****
             **** DENSITY reaction4-IEIP_ts_guess_scan_1-4_orca.scfp WAS UPDATED ****
             **** ENERGY FILE WAS UPDATED (reaction4-IEIP_ts_guess_scan_1-4_orca.en.tmp) ****
             **** THE GBW FILE WAS UPDATED (reaction4-IEIP_ts_guess_scan_1-4_orca.gbw) ****
             **** DENSITY reaction4-IEIP_ts_guess_scan_1-4_orca.scfp WAS UPDATED ****
----------------
ORBITAL ENERGIES
----------------

  NO   OCC          E(Eh)            E(eV) 
   0   2.0000     -89.760669     -2442.5120 
   1   2.0000     -19.622167      -533.9463 
   2   2.0000     -19.583151      -532.8846 
   3   2.0000     -14.842393      -403.8820 
   4   2.0000     -10.678300      -290.5713 
   5   2.0000     -10.663277      -290.1625 
   6   2.0000     -10.639354      -289.5115 
   7   2.0000     -10.637082      -289.4497 
   8   2.0000     -10.635476      -289.4060 
   9   2.0000     -10.634605      -289.3823 
  10   2.0000     -10.633275      -289.3461 
  11   2.0000     -10.632535      -289.3260 
  12   2.0000     -10.617315      -288.9118 
  13   2.0000     -10.609741      -288.7057 
  14   2.0000     -10.582806      -287.9728 
  15   2.0000     -10.581142      -287.9275 
  16   2.0000     -10.557936      -287.2961 
  17   2.0000     -10.552735      -287.1545 
  18   2.0000     -10.531064      -286.5648 
  19   2.0000      -8.399907      -228.5731 
  20   2.0000      -6.290046      -171.1608 
  21   2.0000      -6.286397      -171.0616 
  22   2.0000      -6.284548      -171.0112 
  23   2.0000      -4.032381      -109.7267 
  24   2.0000      -2.351871       -63.9977 
  25   2.0000      -2.317442       -63.0608 
  26   2.0000      -2.315844       -63.0173 
  27   2.0000      -1.302202       -35.4347 
  28   2.0000      -1.215598       -33.0781 
  29   2.0000      -1.206209       -32.8226 
  30   2.0000      -1.176069       -32.0025 
  31   2.0000      -1.125755       -30.6333 
  32   2.0000      -1.028190       -27.9785 
  33   2.0000      -0.991229       -26.9727 
  34   2.0000      -0.980964       -26.6934 
  35   2.0000      -0.964798       -26.2535 
  36   2.0000      -0.959881       -26.1197 
  37   2.0000      -0.924758       -25.1639 
  38   2.0000      -0.904399       -24.6099 
  39   2.0000      -0.874192       -23.7880 
  40   2.0000      -0.797924       -21.7126 
  41   2.0000      -0.791991       -21.5512 
  42   2.0000      -0.790078       -21.4991 
  43   2.0000      -0.781431       -21.2638 
  44   2.0000      -0.774833       -21.0843 
  45   2.0000      -0.756418       -20.5832 
  46   2.0000      -0.745076       -20.2745 
  47   2.0000      -0.723386       -19.6843 
  48   2.0000      -0.695799       -18.9337 
  49   2.0000      -0.672162       -18.2905 
  50   2.0000      -0.665810       -18.1176 
  51   2.0000      -0.652883       -17.7659 
  52   2.0000      -0.649347       -17.6696 
  53   2.0000      -0.641661       -17.4605 
  54   2.0000      -0.636680       -17.3249 
  55   2.0000      -0.628411       -17.0999 
  56   2.0000      -0.624399       -16.9908 
  57   2.0000      -0.612961       -16.6795 
  58   2.0000      -0.611340       -16.6354 
  59   2.0000      -0.609623       -16.5887 
  60   2.0000      -0.596947       -16.2438 
  61   2.0000      -0.588266       -16.0075 
  62   2.0000      -0.577078       -15.7031 
  63   2.0000      -0.572235       -15.5713 
  64   2.0000      -0.564332       -15.3563 
  65   2.0000      -0.554274       -15.0826 
  66   2.0000      -0.552716       -15.0402 
  67   2.0000      -0.548663       -14.9299 
  68   2.0000      -0.539376       -14.6772 
  69   2.0000      -0.535169       -14.5627 
  70   2.0000      -0.528470       -14.3804 
  71   2.0000      -0.522579       -14.2201 
  72   2.0000      -0.516736       -14.0611 
  73   2.0000      -0.508305       -13.8317 
  74   2.0000      -0.489043       -13.3075 
  75   2.0000      -0.481382       -13.0991 
  76   2.0000      -0.464510       -12.6400 
  77   2.0000      -0.451991       -12.2993 
  78   2.0000      -0.440428       -11.9847 
  79   2.0000      -0.424043       -11.5388 
  80   2.0000      -0.417357       -11.3569 
  81   2.0000      -0.404622       -11.0103 
  82   0.0000      -0.199829        -5.4376 
  83   0.0000      -0.166820        -4.5394 
  84   0.0000      -0.141986        -3.8636 
  85   0.0000      -0.104149        -2.8340 
  86   0.0000      -0.077502        -2.1089 
  87   0.0000      -0.070090        -1.9072 
  88   0.0000      -0.061046        -1.6611 
  89   0.0000      -0.050507        -1.3744 
  90   0.0000      -0.044540        -1.2120 
  91   0.0000      -0.036637        -0.9969 
  92   0.0000      -0.005145        -0.1400 
  93   0.0000      -0.002295        -0.0624 
  94   0.0000       0.008457         0.2301 
  95   0.0000       0.021624         0.5884 
  96   0.0000       0.028272         0.7693 
  97   0.0000       0.035730         0.9723 
  98   0.0000       0.043857         1.1934 
  99   0.0000       0.053758         1.4628 
 100   0.0000       0.067539         1.8378 
 101   0.0000       0.069328         1.8865 
 102   0.0000       0.070762         1.9255 
 103   0.0000       0.077210         2.1010 
 104   0.0000       0.081773         2.2252 
 105   0.0000       0.087455         2.3798 
 106   0.0000       0.092556         2.5186 
 107   0.0000       0.099770         2.7149 
 108   0.0000       0.107776         2.9327 
 109   0.0000       0.113278         3.0825 
 110   0.0000       0.114890         3.1263 
 111   0.0000       0.119940         3.2637 
 112   0.0000       0.121998         3.3197 
 113   0.0000       0.125585         3.4173 
 114   0.0000       0.131749         3.5851 
 115   0.0000       0.138567         3.7706 
 116   0.0000       0.142676         3.8824 
 117   0.0000       0.150557         4.0969 
 118   0.0000       0.156082         4.2472 
 119   0.0000       0.160336         4.3630 
 120   0.0000       0.164674         4.4810 
 121   0.0000       0.175942         4.7876 
 122   0.0000       0.185876         5.0579 
 123   0.0000       0.200637         5.4596 
 124   0.0000       0.220220         5.9925 
 125   0.0000       0.229462         6.2440 
 126   0.0000       0.257565         7.0087 
 127   0.0000       0.272083         7.4038 
 128   0.0000       0.279750         7.6124 
 129   0.0000       0.295140         8.0312 
 130   0.0000       0.300405         8.1744 
 131   0.0000       0.309413         8.4196 
 132   0.0000       0.322090         8.7645 
 133   0.0000       0.336635         9.1603 
 134   0.0000       0.342969         9.3327 
 135   0.0000       0.358725         9.7614 
 136   0.0000       0.364727         9.9247 
 137   0.0000       0.370472        10.0811 
 138   0.0000       0.384460        10.4617 
 139   0.0000       0.396010        10.7760 
 140   0.0000       0.399602        10.8737 
 141   0.0000       0.414211        11.2712 
 142   0.0000       0.422306        11.4915 
 143   0.0000       0.435350        11.8465 
 144   0.0000       0.444547        12.0967 
 145   0.0000       0.447005        12.1636 
 146   0.0000       0.452038        12.3006 
 147   0.0000       0.459381        12.5004 
 148   0.0000       0.468907        12.7596 
 149   0.0000       0.473090        12.8734 
 150   0.0000       0.479157        13.0385 
 151   0.0000       0.487190        13.2571 
 152   0.0000       0.498647        13.5689 
 153   0.0000       0.500949        13.6315 
 154   0.0000       0.507985        13.8230 
 155   0.0000       0.515519        14.0280 
[...]

----------------------
LOEWDIN ATOMIC CHARGES
----------------------
   0 Ir:   -0.208134
   1 C :   -0.038842
   2 C :   -0.053902
   3 C :   -0.045551
   4 C :   -0.055312
   5 C :   -0.026270
   6 N :   -0.006471
   7 C :   -0.068034
   8 C :   -0.365101
   9 H :    0.157941
  10 H :    0.134215
  11 H :    0.147071
  12 C :   -0.343392
  13 H :    0.156832
  14 H :    0.153461
  15 H :    0.137353
  16 H :    0.134716
  17 C :    0.037121
  18 C :   -0.189203
  19 H :    0.163526
  20 C :   -0.178817
  21 C :   -0.144989
  22 S :    0.455688
  23 C :   -0.262562
  24 H :    0.274886
  25 H :    0.162429
  26 H :    0.167560
  27 H :    0.186344
  28 H :    0.186926
  29 H :    0.194457
  30 O :   -0.277354
  31 O :   -0.212232
  32 C :    0.151557
  33 C :   -0.377436
  34 H :    0.158888
  35 H :    0.166004
  36 H :    0.152100
  37 H :    0.188493
  38 H :    0.186031

-------------------------------
LOEWDIN REDUCED ORBITAL CHARGES
-------------------------------
  0 Irs       :     2.454179  s :     2.454179
      pz      :     2.236559  p :     6.739536
      px      :     2.233740
      py      :     2.269237
      dz2     :     1.855148  d :     7.924680
      dxz     :     1.756391
      dyz     :     1.246868
      dx2y2   :     1.644130
      dxy     :     1.422143
      f0      :     0.011653  f :     0.089739
      f+1     :     0.002994
      f-1     :     0.012777
      f+2     :     0.017683
      f-2     :     0.016391
      f+3     :     0.011152
      f-3     :     0.017088
  1 C s       :     2.875926  s :     2.875926
      pz      :     1.046468  p :     3.058714
      px      :     1.089046
      py      :     0.923200
      dz2     :     0.026583  d :     0.104201
      dxz     :     0.027200
      dyz     :     0.017425
      dx2y2   :     0.018353
      dxy     :     0.014640
  2 C s       :     2.874909  s :     2.874909
      pz      :     1.047342  p :     3.075789
      px      :     1.073974
      py      :     0.954473
      dz2     :     0.025927  d :     0.103205
      dxz     :     0.027683
      dyz     :     0.017796
      dx2y2   :     0.018462
      dxy     :     0.013336
  3 C s       :     2.875758  s :     2.875758
      pz      :     1.037834  p :     3.067295
      px      :     1.075136
      py      :     0.954325
      dz2     :     0.024452  d :     0.102498
      dxz     :     0.032310
      dyz     :     0.016387
      dx2y2   :     0.014932
      dxy     :     0.014418
  4 C s       :     2.874492  s :     2.874492
      pz      :     1.095090  p :     3.078747
      px      :     1.035364
      py      :     0.948293
      dz2     :     0.022667  d :     0.102074
      dxz     :     0.031983
      dyz     :     0.012846
      dx2y2   :     0.017459
      dxy     :     0.017118
  5 C s       :     2.877121  s :     2.877121
      pz      :     1.066043  p :     3.045160
      px      :     1.032225
      py      :     0.946892
      dz2     :     0.025674  d :     0.103989
      dxz     :     0.029974
      dyz     :     0.015602
      dx2y2   :     0.015476
      dxy     :     0.017263
  6 N s       :     3.122915  s :     3.122915
      pz      :     1.272273  p :     3.784914
      px      :     1.289261
      py      :     1.223380
      dz2     :     0.029762  d :     0.098642
      dxz     :     0.027773
      dyz     :     0.019305
      dx2y2   :     0.011577
      dxy     :     0.010224
  7 C s       :     2.861983  s :     2.861983
      pz      :     1.061052  p :     3.071606
      px      :     0.936934
      py      :     1.073620
      dz2     :     0.021536  d :     0.134444
      dxz     :     0.029485
      dyz     :     0.022309
      dx2y2   :     0.028545
      dxy     :     0.032570
  8 C s       :     2.953051  s :     2.953051
      pz      :     1.127274  p :     3.344617
      px      :     1.122616
      py      :     1.094728
      dz2     :     0.010207  d :     0.067432
      dxz     :     0.018261
      dyz     :     0.012757
      dx2y2   :     0.008327
      dxy     :     0.017880
  9 H s       :     0.842059  s :     0.842059
 10 H s       :     0.865785  s :     0.865785
 11 H s       :     0.852929  s :     0.852929
 12 C s       :     2.952822  s :     2.952822
      pz      :     1.136846  p :     3.322706
      px      :     1.113206
      py      :     1.072653
      dz2     :     0.008118  d :     0.067864
      dxz     :     0.013845
      dyz     :     0.018067
      dx2y2   :     0.010415
      dxy     :     0.017419
 13 H s       :     0.843168  s :     0.843168
 14 H s       :     0.846539  s :     0.846539
 15 H s       :     0.862647  s :     0.862647
 16 H s       :     0.865284  s :     0.865284
 17 C s       :     2.879072  s :     2.879072
      pz      :     1.024546  p :     2.942864
      px      :     1.059578
      py      :     0.858739
      dz2     :     0.040974  d :     0.140944
      dxz     :     0.051286
      dyz     :     0.024388
      dx2y2   :     0.011728
      dxy     :     0.012567
 18 C s       :     2.897064  s :     2.897064
      pz      :     1.036550  p :     3.180958
      px      :     1.087565
      py      :     1.056843
      dz2     :     0.028706  d :     0.111181
      dxz     :     0.027369
      dyz     :     0.016598
      dx2y2   :     0.023463
      dxy     :     0.015044
 19 H s       :     0.836474  s :     0.836474
 20 C s       :     2.923654  s :     2.923654
      pz      :     1.077319  p :     3.166324
      px      :     1.042361
      py      :     1.046644
      dz2     :     0.009945  d :     0.088839
      dxz     :     0.031093
      dyz     :     0.009336
      dx2y2   :     0.017529
      dxy     :     0.020936
 21 C s       :     2.898943  s :     2.898943
      pz      :     1.058279  p :     3.152255
      px      :     1.090198
      py      :     1.003778
      dz2     :     0.022261  d :     0.093791
      dxz     :     0.025574
      dyz     :     0.014742
      dx2y2   :     0.018484
      dxy     :     0.012731
 22 S s       :     5.506716  s :     5.506716
      pz      :     3.309426  p :     9.886040
      px      :     3.084483
      py      :     3.492131
      dz2     :     0.034986  d :     0.151555
      dxz     :     0.030106
      dyz     :     0.026119
      dx2y2   :     0.035290
      dxy     :     0.025054
 23 C s       :     2.964942  s :     2.964942
      pz      :     1.111894  p :     3.211627
      px      :     1.020930
      py      :     1.078803
      dz2     :     0.018971  d :     0.085993
      dxz     :     0.025165
      dyz     :     0.012705
      dx2y2   :     0.015747
      dxy     :     0.013404
 24 H s       :     0.725114  s :     0.725114
 25 H s       :     0.837571  s :     0.837571
 26 H s       :     0.832440  s :     0.832440
 27 H s       :     0.813656  s :     0.813656
 28 H s       :     0.813074  s :     0.813074
 29 H s       :     0.805543  s :     0.805543
 30 O s       :     3.505210  s :     3.505210
      pz      :     1.469998  p :     4.717691
      px      :     1.512308
      py      :     1.735385
      dz2     :     0.018120  d :     0.054453
      dxz     :     0.012617
      dyz     :     0.016669
      dx2y2   :     0.003573
      dxy     :     0.003474
 31 O s       :     3.446594  s :     3.446594
      pz      :     1.695646  p :     4.706998
      px      :     1.636305
      py      :     1.375047
      dz2     :     0.009470  d :     0.058639
      dxz     :     0.003289
      dyz     :     0.016344
      dx2y2   :     0.015964
      dxy     :     0.013572
 32 C s       :     2.814187  s :     2.814187
      pz      :     1.013201  p :     2.710808
      px      :     0.751354
      py      :     0.946253
      dz2     :     0.078006  d :     0.323447
      dxz     :     0.043311
      dyz     :     0.109768
      dx2y2   :     0.045007
      dxy     :     0.047355
 33 C s       :     2.960269  s :     2.960269
      pz      :     1.094618  p :     3.354464
      px      :     1.148934
      py      :     1.110912
      dz2     :     0.006575  d :     0.062703
      dxz     :     0.017232
      dyz     :     0.018549
      dx2y2   :     0.017930
      dxy     :     0.002417
 34 H s       :     0.841112  s :     0.841112
 35 H s       :     0.833996  s :     0.833996
 36 H s       :     0.847900  s :     0.847900
 37 H s       :     0.811507  s :     0.811507
 38 H s       :     0.813969  s :     0.813969


                      *****************************
                      * MAYER POPULATION ANALYSIS *
                      *****************************

  NA   - Mulliken gross atomic population
  ZA   - Total nuclear charge
  QA   - Mulliken gross atomic charge
  VA   - Mayer's total valence
  BVA  - Mayer's bonded valence
  FA   - Mayer's free valence

  ATOM       NA         ZA         QA         VA         BVA        FA
  0 Ir    16.3774    17.0000     0.6226     3.7549     3.7549    -0.0000
  1 C      6.2075     6.0000    -0.2075     3.6945     3.6945     0.0000
  2 C      6.2971     6.0000    -0.2971     3.7442     3.7442    -0.0000
  3 C      6.2305     6.0000    -0.2305     3.7280     3.7280     0.0000
  4 C      6.2454     6.0000    -0.2454     3.7195     3.7195    -0.0000
  5 C      6.1649     6.0000    -0.1649     3.6880     3.6880     0.0000
  6 N      7.4246     7.0000    -0.4246     3.2163     3.2163     0.0000
  7 C      6.1153     6.0000    -0.1153     3.6978     3.6978    -0.0000
  8 C      6.6967     6.0000    -0.6967     3.6871     3.6871    -0.0000
  9 H      0.7263     1.0000     0.2737     0.8961     0.8961    -0.0000
 10 H      0.7736     1.0000     0.2264     0.9091     0.9091     0.0000
 11 H      0.7390     1.0000     0.2610     0.8972     0.8972    -0.0000
 12 C      6.6408     6.0000    -0.6408     3.6725     3.6725    -0.0000
 13 H      0.7186     1.0000     0.2814     0.8752     0.8752     0.0000
 14 H      0.7343     1.0000     0.2657     0.8961     0.8961    -0.0000
 15 H      0.7691     1.0000     0.2309     0.9093     0.9093    -0.0000
 16 H      0.7665     1.0000     0.2335     0.9049     0.9049     0.0000
 17 C      5.9330     6.0000     0.0670     3.6330     3.6330    -0.0000
 18 C      6.2269     6.0000    -0.2269     3.7110     3.7110     0.0000
 19 H      0.7066     1.0000     0.2934     0.8853     0.8853     0.0000
 20 C      6.3938     6.0000    -0.3938     3.4495     3.4495    -0.0000
 21 C      6.1434     6.0000    -0.1434     3.7475     3.7475     0.0000
 22 S     15.7097    16.0000     0.2903     2.5559     2.5559    -0.0000
 23 C      6.4286     6.0000    -0.4286     3.7403     3.7403    -0.0000
 24 H      0.5058     1.0000     0.4942     0.7471     0.7471     0.0000
 25 H      0.7325     1.0000     0.2675     0.9019     0.9019    -0.0000
 26 H      0.7032     1.0000     0.2968     0.8978     0.8978     0.0000
 27 H      0.7068     1.0000     0.2932     0.9011     0.9011     0.0000
 28 H      0.7052     1.0000     0.2948     0.9038     0.9038    -0.0000
 29 H      0.6920     1.0000     0.3080     0.8911     0.8911     0.0000
 30 O      8.4804     8.0000    -0.4804     2.1123     2.1123    -0.0000
 31 O      8.5463     8.0000    -0.5463     2.0674     2.0674    -0.0000
 32 C      5.3891     6.0000     0.6109     3.9274     3.9274    -0.0000
 33 C      6.7461     6.0000    -0.7461     3.6699     3.6699    -0.0000
 34 H      0.7316     1.0000     0.2684     0.8958     0.8958     0.0000
 35 H      0.7353     1.0000     0.2647     0.8961     0.8961     0.0000
 36 H      0.7491     1.0000     0.2509     0.9018     0.9018     0.0000
 37 H      0.7031     1.0000     0.2969     0.8996     0.8996     0.0000
 38 H      0.7041     1.0000     0.2959     0.9033     0.9033     0.0000

  Mayer bond orders larger than 0.100000
B(  0-Ir,  1-C ) :   0.4203 B(  0-Ir,  2-C ) :   0.5568 B(  0-Ir,  3-C ) :   0.4649 
B(  0-Ir,  4-C ) :   0.4511 B(  0-Ir,  5-C ) :   0.4029 B(  0-Ir,  6-N ) :   0.4631 
B(  0-Ir, 20-C ) :   0.2055 B(  0-Ir, 31-O ) :   0.5972 B(  1-C ,  2-C ) :   1.1116 
B(  1-C ,  4-C ) :   1.2485 B(  1-C , 27-H ) :   0.9027 B(  2-C ,  5-C ) :   1.1288 
B(  2-C , 28-H ) :   0.9060 B(  3-C ,  4-C ) :   1.1028 B(  3-C ,  5-C ) :   1.2358 
B(  3-C , 37-H ) :   0.9021 B(  4-C , 38-H ) :   0.8969 B(  5-C , 29-H ) :   0.8973 
B(  6-N ,  7-C ) :   0.8905 B(  6-N , 17-C ) :   1.7038 B(  7-C ,  8-C ) :   0.9929 
B(  7-C , 12-C ) :   0.9698 B(  7-C , 13-H ) :   0.8707 B(  8-C ,  9-H ) :   0.9030 
B(  8-C , 10-H ) :   0.9121 B(  8-C , 11-H ) :   0.9076 B( 12-C , 14-H ) :   0.9061 
B( 12-C , 15-H ) :   0.9151 B( 12-C , 16-H ) :   0.9103 B( 17-C , 18-C ) :   1.0418 
B( 17-C , 19-H ) :   0.8734 B( 18-C , 20-C ) :   1.3118 B( 18-C , 22-S ) :   1.2132 
B( 20-C , 21-C ) :   1.2615 B( 20-C , 24-H ) :   0.5187 B( 21-C , 23-C ) :   1.5483 
B( 21-C , 25-H ) :   0.9038 B( 22-S , 23-C ) :   1.2003 B( 23-C , 26-H ) :   0.8927 
B( 24-H , 30-O ) :   0.2111 B( 30-O , 32-C ) :   1.7222 B( 31-O , 32-C ) :   1.2541 
B( 32-C , 33-C ) :   0.9461 B( 33-C , 34-H ) :   0.9059 B( 33-C , 35-H ) :   0.8997 
B( 33-C , 36-H ) :   0.9101 


------------------
HIRSHFELD ANALYSIS
------------------

Total integrated alpha density =     82.000325532
Total integrated beta density  =     82.000325532

  ATOM     CHARGE      SPIN    
   0 Ir   0.212160    0.000000
   1 C    0.008385    0.000000
   2 C    0.005365    0.000000
   3 C    0.005545    0.000000
   4 C   -0.003810    0.000000
   5 C    0.018500    0.000000
   6 N   -0.066534    0.000000
   7 C    0.054753    0.000000
   8 C   -0.070608    0.000000
   9 H    0.054465    0.000000
  10 H    0.038090    0.000000
  11 H    0.044330    0.000000
  12 C   -0.070041    0.000000
  13 H    0.047690    0.000000
  14 H    0.051945    0.000000
  15 H    0.036657    0.000000
  16 H    0.030730    0.000000
  17 C    0.103246    0.000000
  18 C   -0.006738    0.000000
  19 H    0.078802    0.000000
  20 C   -0.059561    0.000000
  21 C   -0.034940    0.000000
  22 S    0.114961    0.000000
  23 C   -0.027480    0.000000
  24 H    0.055853    0.000000
  25 H    0.069597    0.000000
  26 H    0.077247    0.000000
  27 H    0.084950    0.000000
  28 H    0.086869    0.000000
  29 H    0.095609    0.000000
  30 O   -0.263645    0.000000
  31 O   -0.262853    0.000000
  32 C    0.239140    0.000000
  33 C   -0.069196    0.000000
  34 H    0.053427    0.000000
  35 H    0.058037    0.000000
  36 H    0.047085    0.000000
  37 H    0.086448    0.000000
  38 H    0.074867    0.000000

  TOTAL   0.999349    0.000000

-------
TIMINGS
-------

Total SCF time: 0 days 0 hours 4 min 47 sec 

Total time                  ....     287.048 sec
Sum of individual times     ....     286.410 sec  ( 99.8%)

Fock matrix formation       ....     277.649 sec  ( 96.7%)
  Split-RI-J                ....      22.553 sec  (  8.1% of F)
  Chain of spheres X        ....     239.056 sec  ( 86.1% of F)
  XC integration            ....      16.035 sec  (  5.8% of F)
    Basis function eval.    ....       7.389 sec  ( 46.1% of XC)
    Density eval.           ....       4.192 sec  ( 26.1% of XC)
    XC-Functional eval.     ....       1.173 sec  (  7.3% of XC)
    XC-Potential eval.      ....       2.695 sec  ( 16.8% of XC)
Diagonalization             ....       0.242 sec  (  0.1%)
Density matrix formation    ....       0.038 sec  (  0.0%)
Population analysis         ....       1.457 sec  (  0.5%)
Initial guess               ....       0.044 sec  (  0.0%)
Orbital Transformation      ....       0.000 sec  (  0.0%)
Orbital Orthonormalization  ....       0.032 sec  (  0.0%)
DIIS solution               ....       0.095 sec  (  0.0%)
Grid generation             ....       6.885 sec  (  2.4%)

Maximum memory used throughout the entire SCF-calculation: 173.8 MB


-------------------------------------------------------------------------------
                          DFT DISPERSION CORRECTION                            
                                                                               
                              DFTD3 V3.1  Rev 1                                
                          USING Becke-Johnson damping                          
-------------------------------------------------------------------------------
The PBEh-3c composite method is recognized
Using three-body term ABC
Active option DFTDOPT                   ...         4   

molecular C6(AA) [au] = 19581.222110 


            DFT-D V3
 parameters
 s6 scaling factor         :     1.0000 
 a1 scaling factor         :     0.4860 
 s8 scaling factor         :     0.0000 
 a2 scaling factor         :     4.5000 
 Damping factor alpha9(ATM):    16.0000 
 ad hoc parameters k1-k3   :    16.0000     1.3333    -4.0000 

 Edisp/kcal,au: -19.401176615976  -0.030917739649 
 E6   /kcal   : -19.753002715 
 E8   /kcal   :  -0.000000000 
 E6(ABC)      :   0.351826099 
 % E8         :   0.000000000 
 % E6(ABC)    :  -1.813426610 

-------------------------   ----------------
Dispersion correction           -0.030917740
-------------------------   ----------------

 ** NOTE ** -> element ir will be treated as co
NOTIFICATION: Different basis set in ORCA and otool_gcp:
ORCA: 358  gCP: 357 
If you are NOT using ECPs, check your basis set inputs!
------------------   -----------------
gCP correction             0.077283462
------------------   -----------------

-------------------------   --------------------
FINAL SINGLE POINT ENERGY     -1288.396631533053
-------------------------   --------------------

                                *** OPTIMIZATION RUN DONE ***

                            ***************************************
                            *     ORCA property calculations      *
                            ***************************************

                                    ---------------------
                                    Active property flags
                                    ---------------------
   (+) Dipole Moment


------------------------------------------------------------------------------
                       ORCA ELECTRIC PROPERTIES CALCULATION
------------------------------------------------------------------------------

Dipole Moment Calculation                       ... on
Quadrupole Moment Calculation                   ... off
Polarizability Calculation                      ... off
GBWName                                         ... reaction4-IEIP_ts_guess_scan_1-4_orca.gbw
Electron density                                ... reaction4-IEIP_ts_guess_scan_1-4_orca.scfp
The origin for moment calculation is the CENTER OF MASS  = ( 0.842078, -0.646732 -0.118675)

-------------
DIPOLE MOMENT
-------------
                                X             Y             Z
Electronic contribution:     34.05496     -67.76863      73.70890
Nuclear contribution   :    -34.69666      66.44979     -73.94339
                        -----------------------------------------
Total Dipole Moment    :     -0.64170      -1.31884      -0.23449
                        -----------------------------------------
Magnitude (a.u.)       :      1.48529
Magnitude (Debye)      :      3.77532



--------------------
Rotational spectrum 
--------------------
 
Rotational constants in cm-1:     0.010774     0.009083     0.008258 
Rotational constants in MHz :   323.004573   272.292526   247.570904 

 Dipole components along the rotational axes: 
x,y,z [a.u.] :    -0.275333    -0.532635     1.358894 
x,y,z [Debye]:    -0.699842    -1.353852     3.454033 

 

Timings for individual modules:

Sum of individual times         ...     3994.935 sec (=  66.582 min)
GTO integral calculation        ...       12.129 sec (=   0.202 min)   0.3 %
SCF iterations                  ...     3285.992 sec (=  54.767 min)  82.3 %
SCF Gradient evaluation         ...      695.196 sec (=  11.587 min)  17.4 %
Geometry relaxation             ...        1.618 sec (=   0.027 min)   0.0 %
                             ****ORCA TERMINATED NORMALLY****
TOTAL RUN TIME: 0 days 1 hours 6 minutes 37 seconds 603 msec
