
                                 *****************
                                 * O   R   C   A *
                                 *****************

                                            #,                                       
                                            ###                                      
                                            ####                                     
                                            #####                                    
                                            ######                                   
                                           ########,                                 
                                     ,,################,,,,,                         
                               ,,#################################,,                 
                          ,,##########################################,,             
                       ,#########################################, ''#####,          
                    ,#############################################,,   '####,        
                  ,##################################################,,,,####,       
                ,###########''''           ''''###############################       
              ,#####''   ,,,,##########,,,,          '''####'''          '####       
            ,##' ,,,,###########################,,,                        '##       
           ' ,,###''''                  '''############,,,                           
         ,,##''                                '''############,,,,        ,,,,,,###''
      ,#''                                            '''#######################'''  
     '                                                          ''''####''''         
             ,#######,   #######,   ,#######,      ##                                
            ,#'     '#,  ##    ##  ,#'     '#,    #''#        ######   ,####,        
            ##       ##  ##   ,#'  ##            #'  '#       #        #'  '#        
            ##       ##  #######   ##           ,######,      #####,   #    #        
            '#,     ,#'  ##    ##  '#,     ,#' ,#      #,         ##   #,  ,#        
             '#######'   ##     ##  '#######'  #'      '#     #####' # '####'        



                  #######################################################
                  #                        -***-                        #
                  #          Department of theory and spectroscopy      #
                  #    Directorship and core code : Frank Neese         #
                  #        Max Planck Institute fuer Kohlenforschung    #
                  #                Kaiser Wilhelm Platz 1               #
                  #                 D-45470 Muelheim/Ruhr               #
                  #                      Germany                        #
                  #                                                     #
                  #                  All rights reserved                #
                  #                        -***-                        #
                  #######################################################


                         Program Version 5.0.3 -  RELEASE  -


 With contributions from (in alphabetic order):
   Daniel Aravena         : Magnetic Suceptibility
   Michael Atanasov       : Ab Initio Ligand Field Theory (pilot matlab implementation)
   Alexander A. Auer      : GIAO ZORA, VPT2 properties, NMR spectrum
   Ute Becker             : Parallelization
   Giovanni Bistoni       : ED, misc. LED, open-shell LED, HFLD
   Martin Brehm           : Molecular dynamics
   Dmytro Bykov           : SCF Hessian
   Vijay G. Chilkuri      : MRCI spin determinant printing, contributions to CSF-ICE
   Dipayan Datta          : RHF DLPNO-CCSD density
   Achintya Kumar Dutta   : EOM-CC, STEOM-CC
   Dmitry Ganyushin       : Spin-Orbit,Spin-Spin,Magnetic field MRCI
   Miquel Garcia          : C-PCM and meta-GGA Hessian, CC/C-PCM, Gaussian charge scheme
   Yang Guo               : DLPNO-NEVPT2, F12-NEVPT2, CIM, IAO-localization
   Andreas Hansen         : Spin unrestricted coupled pair/coupled cluster methods
   Benjamin Helmich-Paris : MC-RPA, TRAH-SCF, COSX integrals
   Lee Huntington         : MR-EOM, pCC
   Robert Izsak           : Overlap fitted RIJCOSX, COSX-SCS-MP3, EOM
   Marcus Kettner         : VPT2
   Christian Kollmar      : KDIIS, OOCD, Brueckner-CCSD(T), CCSD density, CASPT2, CASPT2-K
   Simone Kossmann        : Meta GGA functionals, TD-DFT gradient, OOMP2, MP2 Hessian
   Martin Krupicka        : Initial AUTO-CI
   Lucas Lang             : DCDCAS
   Marvin Lechner         : AUTO-CI (C++ implementation), FIC-MRCC
   Dagmar Lenk            : GEPOL surface, SMD
   Dimitrios Liakos       : Extrapolation schemes; Compound Job, initial MDCI parallelization
   Dimitrios Manganas     : Further ROCIS development; embedding schemes
   Dimitrios Pantazis     : SARC Basis sets
   Anastasios Papadopoulos: AUTO-CI, single reference methods and gradients
   Taras Petrenko         : DFT Hessian,TD-DFT gradient, ASA, ECA, R-Raman, ABS, FL, XAS/XES, NRVS
   Peter Pinski           : DLPNO-MP2, DLPNO-MP2 Gradient
   Christoph Reimann      : Effective Core Potentials
   Marius Retegan         : Local ZFS, SOC
   Christoph Riplinger    : Optimizer, TS searches, QM/MM, DLPNO-CCSD(T), (RO)-DLPNO pert. Triples
   Tobias Risthaus        : Range-separated hybrids, TD-DFT gradient, RPA, STAB
   Michael Roemelt        : Original ROCIS implementation
   Masaaki Saitow         : Open-shell DLPNO-CCSD energy and density
   Barbara Sandhoefer     : DKH picture change effects
   Avijit Sen             : IP-ROCIS
   Kantharuban Sivalingam : CASSCF convergence, NEVPT2, FIC-MRCI
   Bernardo de Souza      : ESD, SOC TD-DFT
   Georgi Stoychev        : AutoAux, RI-MP2 NMR, DLPNO-MP2 response
   Willem Van den Heuvel  : Paramagnetic NMR
   Boris Wezisla          : Elementary symmetry handling
   Frank Wennmohs         : Technical directorship


 We gratefully acknowledge several colleagues who have allowed us to
 interface, adapt or use parts of their codes:
   Stefan Grimme, W. Hujo, H. Kruse, P. Pracht,  : VdW corrections, initial TS optimization,
                  C. Bannwarth, S. Ehlert          DFT functionals, gCP, sTDA/sTD-DF
   Ed Valeev, F. Pavosevic, A. Kumar             : LibInt (2-el integral package), F12 methods
   Garnet Chan, S. Sharma, J. Yang, R. Olivares  : DMRG
   Ulf Ekstrom                                   : XCFun DFT Library
   Mihaly Kallay                                 : mrcc  (arbitrary order and MRCC methods)
   Jiri Pittner, Ondrej Demel                    : Mk-CCSD
   Frank Weinhold                                : gennbo (NPA and NBO analysis)
   Christopher J. Cramer and Donald G. Truhlar   : smd solvation model
   Lars Goerigk                                  : TD-DFT with DH, B97 family of functionals
   V. Asgeirsson, H. Jonsson                     : NEB implementation
   FAccTs GmbH                                   : IRC, NEB, NEB-TS, DLPNO-Multilevel, CI-OPT
                                                   MM, QMMM, 2- and 3-layer-ONIOM, Crystal-QMMM,
                                                   LR-CPCM, SF, NACMEs, symmetry and pop. for TD-DFT,
                                                   nearIR, NL-DFT gradient (VV10), updates on ESD,
                                                   ML-optimized integration grids
   S Lehtola, MJT Oliveira, MAL Marques          : LibXC Library
   Liviu Ungur et al                             : ANISO software


 Your calculation uses the libint2 library for the computation of 2-el integrals
 For citations please refer to: http://libint.valeyev.net

 Your ORCA version has been built with support for libXC version: 5.1.0
 For citations please refer to: https://tddft.org/programs/libxc/

 This ORCA versions uses:
   CBLAS   interface :  Fast vector & matrix operations
   LAPACKE interface :  Fast linear algebra routines
   SCALAPACK package :  Parallel linear algebra routines
   Shared memory     :  Shared parallel matrices
   BLAS/LAPACK       :  OpenBLAS 0.3.15  USE64BITINT DYNAMIC_ARCH NO_AFFINITY SkylakeX SINGLE_THREADED
        Core in use  :  SkylakeX
   Copyright (c) 2011-2014, The OpenBLAS Project


Your calculation utilizes the geometrical counterpoise correction gCP
Please cite in your paper:
H.Kruse, S. Grimme J.Chem.Phys., 136, (2012), 154101 
   

Your calculation utilizes the atom-pairwise dispersion correction
with the Becke-Johnson damping scheme (D3BJ)
Cite in your paper:
S.Grimme, S.Ehrlich, L.Goerigk, J Comput Chem, (2011), 32, 1456–1465 
S.Grimme, J.Antony, S.Ehrlich and H.Krieg, J.Chem.Phys., 132, (2010), 154104 
   

Your calculation employs the composite approach PBEh-3c.
Please cite in your paper:
S. Grimme, J. G. Brandenburg, C. Bannwarth, A. Hansen J.Chem.Phys., 143, (2015), 054107 
   

================================================================================

cite the ECPs for Ir [Def2-ECP] as follows:
Ce-Yb(ecp-28): M. Dolg, H. Stoll, H.Preuss, J. Chem. Phys., 1989, 90, 1730-1734.
Y-Cd(ecp-28), Hf-Hg(ecp-46): D. Andrae,U. Haeussermann, M. Dolg, H. Stoll, H. Preuss, Theor. Chim. Acta, 1990, 77, 123-141.
In-Sb(ecp-28), Tl-Bi(ecp-46): B. Metz, H. Stoll, M. Dolg, J. Chem. Phys., 2000, 113, 2563-2569.
Te-Xe(ecp-28), Po-Rn(ecp-46): K. A. Peterson, D. Figgen, E. Goll, H. Stoll, M. Dolg, J. Chem. Phys., 2003, 119, 11113-11123.
Rb(ecp-28), Cs(ecp-46): T. Leininger, A. Nicklass, W. Kuechle, H. Stoll, M. Dolg, A. Bergner, Chem. Phys. Lett., 1996, 255, 274-280.
Sr(ecp-28), Ba(ecp-46): M. Kaupp, P. V. Schleyer, H. Stoll and H. Preuss, J. Chem. Phys., 1991, 94, 1360-1366.
La(ecp-46): M. Dolg, H. Stoll, A. Savin, H. Preuss, Theor. Chim. Acta, 1989, 75, 173-194.
Lu(ecp-28): X. Cao, M. Dolg, J. Chem. Phys., 2001, 115, 7348-7355.

ECP parameters for Ir [Def2-ECP] have been obtained from:
TURBOMOLE (7.0.2)

----- Orbital basis set information -----
Your calculation utilizes the basis: def2-mSVP

----- AuxJ basis set information -----
Your calculation utilizes the auxiliary basis: def2/J
   F. Weigend, Phys. Chem. Chem. Phys. 8, 1057 (2006).

================================================================================
                                        WARNINGS
                       Please study these warnings very carefully!
================================================================================


WARNING: Geometry Optimization
  ===> : Switching off AutoStart
         For restart on a previous wavefunction, please use MOREAD

WARNING: No Hueckel Guess possible with ECP basis!
  ===> : Switching to HCORE guess!

INFO   : the flag for use of the SHARK integral package has been found!

================================================================================
                                       INPUT FILE
================================================================================
NAME = reaction4-IEIP_ts_guess_scan_5-3_orca.inp
|  1> ! Opt PBEh-3c
|  2> %geom Constraints
|  3> { B 0 20 2.3857142857142857 C }
|  4> { B 24 30 1.457142857142857 C }
|  5>     end
|  6> end
|  7> %output 
|  8> xyzfile=True 
|  9> end 
| 10> %scf 
| 11> maxiter 250 
| 12> end
| 13> %output
| 14> Print[P_Hirshfeld] = 1
| 15> end
| 16> % maxcore
| 17> 4000
| 18> *xyz 1 1
| 19> Ir   0.59993733  -0.71448564   0.44061246 
| 20> C    0.04849705  -2.80053235   0.34216818 
| 21> C    0.12127055  -2.34619940   1.70855332 
| 22> C    2.21128737  -2.12340691   0.76529764 
| 23> C    1.31642197  -2.64050905  -0.24547590 
| 24> C    1.48439095  -1.97923573   1.96095288 
| 25> N   -1.04635035   0.16969533  -0.52482102 
| 26> C   -2.31384793   0.49321989   0.14787029 
| 27> C   -3.12304576   1.56524213  -0.56407524 
| 28> H   -3.94986371   1.86616283   0.07785464 
| 29> H   -3.56703821   1.21488555  -1.49730063 
| 30> H   -2.53043114   2.45755152  -0.76815719 
| 31> C   -3.12296424  -0.78202985   0.35093965 
| 32> H   -2.01722653   0.87668182   1.12541367 
| 33> H   -4.03330094  -0.55238208   0.90259145 
| 34> H   -3.41405099  -1.22312335  -0.60327435 
| 35> H   -2.57564139  -1.52728523   0.92636226 
| 36> C   -0.85264724   0.37969214  -1.76902576 
| 37> C    0.49659297   0.15388368  -2.23854521 
| 38> H   -1.63469836   0.74228554  -2.42976763 
| 39> C    1.59343719   0.46006574  -1.43857519 
| 40> C    2.80134779   0.04838524  -2.07413816 
| 41> S    0.93151790  -0.58460932  -3.71091476 
| 42> C    2.59618099  -0.52302762  -3.28998308 
| 43> H    1.53020201   1.35307286  -0.67599372 
| 44> H    3.78482487   0.22161320  -1.66203485 
| 45> H    3.33577981  -0.89289062  -3.98393134 
| 46> H   -0.83736667  -3.16693045  -0.15645795 
| 47> H   -0.67189184  -2.37710311   2.44092991 
| 48> H    1.86508276  -1.57923135   2.88977073 
| 49> O    1.31090044   2.47093466   0.25534612 
| 50> O    0.53404725   0.91697473   1.65409557 
| 51> C    0.90616980   2.11883347   1.35997215 
| 52> C    0.84233472   3.08825294   2.50742008 
| 53> H    0.80243784   4.11148452   2.14407865 
| 54> H    1.74463235   2.98338916   3.11307035 
| 55> H   -0.00694153   2.88982421   3.15797893 
| 56> H    3.25816347  -1.89700628   0.62851047 
| 57> H    1.58121942  -2.87295281  -1.26657740 
| 58> *
| 59> 
| 60>                          ****END OF INPUT****
================================================================================

                       *****************************
                       * Geometry Optimization Run *
                       *****************************

Geometry optimization settings:
Update method            Update   .... BFGS
Choice of coordinates    CoordSys .... Z-matrix Internals
Initial Hessian          InHess   .... Almoef's Model

Convergence Tolerances:
Energy Change            TolE     ....  5.0000e-06 Eh
Max. Gradient            TolMAXG  ....  3.0000e-04 Eh/bohr
RMS Gradient             TolRMSG  ....  1.0000e-04 Eh/bohr
Max. Displacement        TolMAXD  ....  4.0000e-03 bohr
RMS Displacement         TolRMSD  ....  2.0000e-03 bohr
Strict Convergence                ....  False
------------------------------------------------------------------------------
                        ORCA OPTIMIZATION COORDINATE SETUP
------------------------------------------------------------------------------

The optimization will be done in new redundant internal coordinates
Making redundant internal coordinates   ...  (new redundants) done
Evaluating the initial hessian          ...  (Almloef) done
Evaluating the coordinates              ...  done
Calculating the B-matrix                .... done
Calculating the G-matrix                .... done
Diagonalizing the G-matrix              .... done
Imposing constraints:
 Iter   0:  RMS(Cart)=    0.0241051660 RMS(Int)=    0.0025012167
 Iter   1:  RMS(Cart)=    0.0010132429 RMS(Int)=    0.0001173382
 Iter   2:  RMS(Cart)=    0.0000465284 RMS(Int)=    0.0000053215
 Iter   3:  RMS(Cart)=    0.0000020571 RMS(Int)=    0.0000002327
 Iter   4:  RMS(Cart)=    0.0000000879 RMS(Int)=    0.0000000099
CONVERGED
Small eigenvalue found = 1.244e-02
Small eigenvalue found = 1.594e-02
Small eigenvalue found = 2.254e-02
Small eigenvalue found = 2.327e-02
Small eigenvalue found = 2.887e-02
The first mode is                       ....  227
The number of degrees of freedom        ....  111
Storing new coordinates                 .... done

    -----------------------------------------------------------------
                    Redundant Internal Coordinates


    -----------------------------------------------------------------
         Definition                    Initial Value    Approx d2E/dq
    -----------------------------------------------------------------
      1. B(C   1,Ir  0)                  2.1599         0.085958   
      2. B(C   2,C   1)                  1.4418         0.516572   
      3. B(C   2,Ir  0)                  2.1212         0.099125   
      4. B(C   3,Ir  0)                  2.1650         0.084399   
      5. B(C   4,Ir  0)                  2.1665         0.083920   
      6. B(C   4,C   3)                  1.4456         0.509315   
      7. B(C   4,C   1)                  1.4067         0.587800   
      8. B(C   5,Ir  0)                  2.1664         0.083945   
      9. B(C   5,C   2)                  1.4341         0.531470   
     10. B(C   5,C   3)                  1.4067         0.587656   
     11. B(N   6,Ir  0)                  2.1029         0.094779   
     12. B(C   7,N   6)                  1.4710         0.415628   
     13. B(C   8,C   7)                  1.5202         0.387320   
     14. B(H   9,C   8)                  1.0892         0.361222   
     15. B(H  10,C   8)                  1.0912         0.358473   
     16. B(H  11,C   8)                  1.0904         0.359520   
     17. B(C  12,C   7)                  1.5239         0.382088   
     18. B(H  13,C   7)                  1.0912         0.358576   
     19. B(H  14,C  12)                  1.0889         0.361517   
     20. B(H  15,C  12)                  1.0908         0.359059   
     21. B(H  16,C  12)                  1.0891         0.361329   
     22. B(C  17,N   6)                  1.2750         0.848837   
     23. B(C  18,C  17)                  1.4454         0.507994   
     24. B(H  19,C  17)                  1.0861         0.365269   
     25. B(C  20,C  18)                  1.3916         0.620958   
     26. B(C  20,Ir  0)                  2.3857         0.032042 C 
     27. B(C  21,C  20)                  1.4258         0.548108   
     28. B(S  22,C  18)                  1.7036         0.532239   
     29. B(C  23,C  21)                  1.3592         0.700156   
     30. B(C  23,S  22)                  1.7184         0.504598   
     31. B(H  24,C  20)                  1.1759         0.262546   
     32. B(H  25,C  21)                  1.0804         0.373153   
     33. B(H  26,C  23)                  1.0796         0.374230   
     34. B(H  27,C   1)                  1.0806         0.372794   
     35. B(H  28,C   2)                  1.0800         0.373551   
     36. B(H  29,C   5)                  1.0806         0.372793   
     37. B(O  30,H  24)                  1.4571         0.079436 C 
     38. B(O  31,Ir  0)                  2.0345         0.122129   
     39. B(C  32,O  30)                  1.2280         1.014701   
     40. B(C  32,O  31)                  1.2921         0.801889   
     41. B(C  33,C  32)                  1.5035         0.411785   
     42. B(H  34,C  33)                  1.0866         0.364680   
     43. B(H  35,C  33)                  1.0918         0.357773   
     44. B(H  36,C  33)                  1.0881         0.362678   
     45. B(H  37,C   3)                  1.0798         0.373881   
     46. B(H  38,C   4)                  1.0802         0.373323   
     47. A(C   2,Ir  0,O  31)          104.6540         0.265058   
     48. A(C   1,Ir  0,O  31)          142.5053         0.259469   
     49. A(C   5,Ir  0,N   6)          152.5068         0.249101   
     50. A(C   1,Ir  0,C   3)           64.4273         0.246921   
     51. A(C   1,Ir  0,C   5)           64.6844         0.246729   
     52. A(C   3,Ir  0,O  31)          117.1633         0.258764   
     53. A(C   3,Ir  0,N   6)          157.6642         0.249297   
     54. A(C   2,Ir  0,C   5)           39.0622         0.251899   
     55. A(C   3,Ir  0,C   4)           38.9938         0.246066   
     56. A(C   2,Ir  0,C   4)           65.1702         0.251888   
     57. A(C   5,Ir  0,O  31)           93.5975         0.258557   
     58. A(C   4,Ir  0,N   6)          119.1573         0.249091   
     59. A(C   1,Ir  0,C   2)           39.3488         0.252776   
     60. A(C   4,Ir  0,C   5)           64.4200         0.245874   
     61. A(C   4,Ir  0,O  31)          155.8602         0.258546   
     62. A(C   1,Ir  0,N   6)          100.6746         0.249963   
     63. A(C   2,Ir  0,C   3)           65.0198         0.252098   
     64. A(C   2,Ir  0,N   6)          114.9044         0.255239   
     65. A(C   1,Ir  0,C   4)           37.9469         0.246718   
     66. A(N   6,Ir  0,O  31)           84.9138         0.262034   
     67. A(C   3,Ir  0,C   5)           37.9034         0.246076   
     68. A(Ir  0,C   1,H  27)          123.9038         0.269314   
     69. A(C   2,C   1,C   4)          108.3355         0.416130   
     70. A(Ir  0,C   1,C   4)           71.2787         0.320115   
     71. A(C   4,C   1,H  27)          125.7874         0.351795   
     72. A(Ir  0,C   1,C   2)           68.8749         0.313456   
     73. A(C   2,C   1,H  27)          125.8412         0.344223   
     74. A(C   5,C   2,H  28)          125.8772         0.345989   
     75. A(Ir  0,C   2,C   5)           72.1736         0.322311   
     76. A(C   1,C   2,C   5)          107.1823         0.408755   
     77. A(Ir  0,C   2,C   1)           71.7763         0.320814   
     78. A(Ir  0,C   2,H  28)          126.3771         0.275310   
     79. A(C   1,C   2,H  28)          126.6250         0.344340   
     80. A(Ir  0,C   3,H  37)          124.4841         0.268686   
     81. A(C   4,C   3,C   5)          108.1252         0.415066   
     82. A(C   4,C   3,H  37)          125.9142         0.343575   
     83. A(Ir  0,C   3,C   4)           70.5599         0.311813   
     84. A(Ir  0,C   3,C   5)           71.1051         0.319147   
     85. A(C   5,C   3,H  37)          125.9579         0.351954   
     86. A(Ir  0,C   4,C   1)           70.7744         0.318863   
     87. A(Ir  0,C   4,H  38)          124.8714         0.268394   
     88. A(C   1,C   4,H  38)          126.2581         0.351879   
     89. A(C   3,C   4,H  38)          125.8858         0.343489   
     90. A(Ir  0,C   4,C   3)           70.4463         0.311527   
     91. A(C   1,C   4,C   3)          107.8522         0.415084   
     92. A(Ir  0,C   5,H  29)          122.0706         0.268349   
     93. A(C   3,C   5,H  29)          125.9091         0.351780   
     94. A(C   2,C   5,H  29)          125.5133         0.345871   
     95. A(Ir  0,C   5,C   3)           70.9915         0.318866   
     96. A(C   2,C   5,C   3)          108.3831         0.418223   
     97. A(Ir  0,C   5,C   2)           68.7643         0.313696   
     98. A(Ir  0,N   6,C  17)          112.9745         0.341841   
     99. A(C   7,N   6,C  17)          122.9325         0.421884   
    100. A(Ir  0,N   6,C   7)          124.0809         0.304107   
    101. A(N   6,C   7,C   8)          113.5535         0.370032   
    102. A(N   6,C   7,C  12)          109.5364         0.369169   
    103. A(C   8,C   7,C  12)          111.7107         0.367019   
    104. A(N   6,C   7,H  13)          104.6403         0.327856   
    105. A(C   8,C   7,H  13)          108.4485         0.326024   
    106. A(C  12,C   7,H  13)          108.6051         0.325295   
    107. A(C   7,C   8,H  11)          112.0507         0.326165   
    108. A(H   9,C   8,H  11)          107.2647         0.290908   
    109. A(H  10,C   8,H  11)          108.8923         0.290559   
    110. A(C   7,C   8,H   9)          108.8387         0.326418   
    111. A(C   7,C   8,H  10)          112.9975         0.326008   
    112. A(H   9,C   8,H  10)          106.4917         0.290775   
    113. A(C   7,C  12,H  14)          109.5669         0.325732   
    114. A(C   7,C  12,H  15)          111.3167         0.325367   
    115. A(H  14,C  12,H  15)          107.7797         0.290887   
    116. A(C   7,C  12,H  16)          112.1001         0.325704   
    117. A(H  14,C  12,H  16)          107.2644         0.291175   
    118. A(H  15,C  12,H  16)          108.6389         0.290863   
    119. A(N   6,C  17,C  18)          115.0866         0.440243   
    120. A(N   6,C  17,H  19)          122.8442         0.370933   
    121. A(C  18,C  17,H  19)          122.0253         0.342087   
    122. A(C  17,C  18,C  20)          120.7566         0.418965   
    123. A(C  17,C  18,S  22)          126.0357         0.430020   
    124. A(C  20,C  18,S  22)          113.0674         0.445876   
    125. A(C  18,C  20,C  21)          110.3308         0.424691   
    126. A(C  18,C  20,H  24)          119.8409         0.334781   
    127. A(C  21,C  20,H  24)          123.6532         0.327936   
    128. A(C  20,C  21,H  25)          123.7087         0.347726   
    129. A(C  23,C  21,H  25)          123.1013         0.362467   
    130. A(C  20,C  21,C  23)          113.1022         0.433936   
    131. A(C  18,S  22,C  23)           91.1186         0.453407   
    132. A(C  21,C  23,H  26)          127.9997         0.362646   
    133. A(S  22,C  23,H  26)          119.6013         0.360931   
    134. A(C  21,C  23,S  22)          112.3761         0.451305   
    135. A(Ir  0,O  31,C  32)          126.9795         0.353348   
    136. A(O  30,C  32,O  31)          124.5164         0.491195   
    137. A(O  30,C  32,C  33)          121.0322         0.437749   
    138. A(O  31,C  32,C  33)          114.4344         0.419656   
    139. A(C  32,C  33,H  34)          110.7035         0.330252   
    140. A(C  32,C  33,H  35)          109.0472         0.329210   
    141. A(H  34,C  33,H  35)          107.8376         0.291121   
    142. A(C  32,C  33,H  36)          111.8319         0.329952   
    143. A(H  34,C  33,H  36)          110.0606         0.291745   
    144. A(H  35,C  33,H  36)          107.2103         0.290869   
    145. D(C   2,C   1,Ir  0,C   4)    119.1452         0.001703   
    146. D(C   2,C   1,Ir  0,C   5)     38.9405         0.001703   
    147. D(H  27,C   1,Ir  0,O  31)     98.8879         0.001703   
    148. D(C   4,C   1,Ir  0,C   2)   -119.1452         0.001703   
    149. D(C   2,C   1,Ir  0,O  31)    -20.8908         0.001703   
    150. D(H  27,C   1,Ir  0,C   3)   -159.1236         0.001703   
    151. D(C   4,C   1,Ir  0,O  31)   -140.0361         0.001703   
    152. D(H  27,C   1,Ir  0,C   2)    119.7787         0.001703   
    153. D(C   4,C   1,Ir  0,C   3)    -38.0475         0.001703   
    154. D(H  27,C   1,Ir  0,N   6)      3.2937         0.001703   
    155. D(C   2,C   1,Ir  0,C   3)     81.0977         0.001703   
    156. D(C   4,C   1,Ir  0,N   6)    124.3697         0.001703   
    157. D(H  27,C   1,Ir  0,C   4)   -121.0760         0.001703   
    158. D(H  27,C   1,Ir  0,C   5)    158.7192         0.001703   
    159. D(C   4,C   1,Ir  0,C   5)    -80.2047         0.001703   
    160. D(C   2,C   1,Ir  0,N   6)   -116.4851         0.001703   
    161. D(Ir  0,C   2,C   1,H  27)   -117.2961         0.021168   
    162. D(C   1,C   2,Ir  0,C   5)   -115.6310         0.001769   
    163. D(C   1,C   2,Ir  0,C   4)    -36.2832         0.001769   
    164. D(H  28,C   2,C   1,H  27)      4.9321         0.021168   
    165. D(H  28,C   2,C   1,Ir  0)    122.2282         0.021168   
    166. D(C   5,C   2,C   1,H  27)    178.7544         0.021168   
    167. D(C   1,C   2,Ir  0,C   3)    -79.4644         0.001769   
    168. D(H  28,C   2,Ir  0,C   4)   -158.8008         0.001769   
    169. D(H  28,C   2,Ir  0,C   5)    121.8514         0.001769   
    170. D(C   5,C   2,Ir  0,C   3)     36.1666         0.001769   
    171. D(C   5,C   2,Ir  0,C   1)    115.6310         0.001769   
    172. D(H  28,C   2,C   1,C   4)   -177.1478         0.021168   
    173. D(C   5,C   2,Ir  0,C   4)     79.3478         0.001769   
    174. D(C   5,C   2,C   1,Ir  0)    -63.9495         0.021168   
    175. D(H  28,C   2,Ir  0,N   6)    -46.6496         0.001769   
    176. D(H  28,C   2,Ir  0,O  31)     44.5178         0.001769   
    177. D(Ir  0,C   2,C   1,C   4)     60.6240         0.021168   
    178. D(C   5,C   2,C   1,C   4)     -3.3255         0.021168   
    179. D(C   1,C   2,Ir  0,N   6)     75.8680         0.001769   
    180. D(C   5,C   2,Ir  0,O  31)    -77.3336         0.001769   
    181. D(H  28,C   2,Ir  0,C   1)   -122.5176         0.001769   
    182. D(C   1,C   2,Ir  0,O  31)    167.0354         0.001769   
    183. D(H  28,C   2,Ir  0,C   3)    158.0180         0.001769   
    184. D(C   5,C   2,Ir  0,N   6)   -168.5010         0.001769   
    185. D(C   4,C   3,Ir  0,C   5)    118.0016         0.001696   
    186. D(C   4,C   3,Ir  0,C   1)     37.0350         0.001696   
    187. D(C   4,C   3,Ir  0,O  31)    175.0281         0.001696   
    188. D(C   4,C   3,Ir  0,C   2)     80.7481         0.001696   
    189. D(C   5,C   3,Ir  0,O  31)     57.0265         0.001696   
    190. D(C   5,C   3,Ir  0,C   2)    -37.2535         0.001696   
    191. D(C   4,C   3,Ir  0,N   6)    -14.3290         0.001696   
    192. D(H  37,C   3,Ir  0,C   4)    120.8112         0.001696   
    193. D(H  37,C   3,Ir  0,C   1)    157.8462         0.001696   
    194. D(C   5,C   3,Ir  0,C   1)    -80.9666         0.001696   
    195. D(C   5,C   3,Ir  0,C   4)   -118.0016         0.001696   
    196. D(C   5,C   3,Ir  0,N   6)   -132.3305         0.001696   
    197. D(H  37,C   3,Ir  0,C   5)   -121.1872         0.001696   
    198. D(H  37,C   3,Ir  0,N   6)    106.4822         0.001696   
    199. D(H  37,C   3,Ir  0,O  31)    -64.1608         0.001696   
    200. D(H  37,C   3,Ir  0,C   2)   -158.4407         0.001696   
    201. D(C   1,C   4,Ir  0,C   3)    117.9306         0.001694   
    202. D(H  38,C   4,C   3,H  37)      0.4065         0.020560   
    203. D(C   1,C   4,Ir  0,C   5)     80.9633         0.001694   
    204. D(C   1,C   4,Ir  0,N   6)    -68.2523         0.001694   
    205. D(C   1,C   4,Ir  0,O  31)    107.0625         0.001694   
    206. D(C   1,C   4,Ir  0,C   2)     37.6016         0.001694   
    207. D(C   3,C   4,Ir  0,C   1)   -117.9306         0.001694   
    208. D(H  38,C   4,C   3,C   5)   -179.0154         0.020560   
    209. D(C   3,C   4,Ir  0,C   5)    -36.9672         0.001694   
    210. D(C   3,C   4,Ir  0,N   6)    173.8172         0.001694   
    211. D(C   3,C   4,Ir  0,O  31)    -10.8681         0.001694   
    212. D(Ir  0,C   4,C   1,C   2)    -59.1225         0.027736   
    213. D(H  38,C   4,Ir  0,C   2)    158.9619         0.001694   
    214. D(H  38,C   4,Ir  0,C   3)   -120.7092         0.001694   
    215. D(H  38,C   4,C   1,C   2)   -178.8009         0.027736   
    216. D(H  38,C   4,Ir  0,N   6)     53.1080         0.001694   
    217. D(H  38,C   4,Ir  0,O  31)   -131.5772         0.001694   
    218. D(Ir  0,C   4,C   1,H  27)    118.7990         0.027736   
    219. D(C   3,C   4,C   1,Ir  0)     61.0068         0.027736   
    220. D(C   3,C   4,C   1,H  27)    179.8058         0.027736   
    221. D(H  38,C   4,C   1,Ir  0)   -119.6784         0.027736   
    222. D(H  38,C   4,Ir  0,C   5)   -157.6764         0.001694   
    223. D(H  38,C   4,C   1,H  27)     -0.8795         0.027736   
    224. D(Ir  0,C   4,C   3,C   5)     61.5187         0.020560   
    225. D(Ir  0,C   4,C   3,H  37)   -119.0594         0.020560   
    226. D(C   3,C   4,C   1,C   2)      1.8843         0.027736   
    227. D(C   1,C   4,C   3,C   5)      0.3026         0.020560   
    228. D(C   1,C   4,C   3,H  37)    179.7245         0.020560   
    229. D(H  38,C   4,C   3,Ir  0)    119.4659         0.020560   
    230. D(H  38,C   4,Ir  0,C   1)    121.3603         0.001694   
    231. D(C   1,C   4,C   3,Ir  0)    -61.2161         0.020560   
    232. D(C   3,C   4,Ir  0,C   2)    -80.3290         0.001694   
    233. D(C   2,C   5,Ir  0,C   1)    -39.2259         0.001694   
    234. D(H  29,C   5,C   3,C   4)   -177.5252         0.027722   
    235. D(C   2,C   5,Ir  0,C   4)    -81.4332         0.001694   
    236. D(C   2,C   5,Ir  0,N   6)     23.0587         0.001694   
    237. D(C   2,C   5,Ir  0,O  31)    108.9522         0.001694   
    238. D(C   3,C   5,Ir  0,C   1)     80.2281         0.001694   
    239. D(C   3,C   5,Ir  0,C   2)    119.4540         0.001694   
    240. D(C   3,C   5,Ir  0,C   4)     38.0208         0.001694   
    241. D(H  29,C   5,C   2,C   1)    178.6796         0.022452   
    242. D(C   3,C   5,Ir  0,O  31)   -131.5938         0.001694   
    243. D(H  29,C   5,Ir  0,C   1)   -158.6951         0.001694   
    244. D(C   3,C   5,C   2,Ir  0)    -60.1741         0.022452   
    245. D(H  29,C   5,Ir  0,C   3)    121.0768         0.001694   
    246. D(H  29,C   5,Ir  0,C   4)    159.0976         0.001694   
    247. D(H  29,C   5,Ir  0,N   6)    -96.4105         0.001694   
    248. D(H  29,C   5,Ir  0,O  31)    -10.5170         0.001694   
    249. D(Ir  0,C   5,C   2,C   1)     63.6866         0.022452   
    250. D(H  29,C   5,Ir  0,C   2)   -119.4692         0.001694   
    251. D(Ir  0,C   5,C   2,H  28)   -122.4321         0.022452   
    252. D(C   3,C   5,C   2,C   1)      3.5125         0.022452   
    253. D(C   3,C   5,C   2,H  28)    177.3939         0.022452   
    254. D(C   3,C   5,Ir  0,N   6)    142.5127         0.001694   
    255. D(H  29,C   5,C   2,Ir  0)    114.9930         0.022452   
    256. D(H  29,C   5,C   2,H  28)     -7.4390         0.022452   
    257. D(Ir  0,C   5,C   3,C   4)    -61.1719         0.027722   
    258. D(Ir  0,C   5,C   3,H  37)    119.4065         0.027722   
    259. D(C   2,C   5,C   3,Ir  0)     58.7896         0.027722   
    260. D(C   2,C   5,C   3,C   4)     -2.3822         0.027722   
    261. D(C   2,C   5,C   3,H  37)    178.1962         0.027722   
    262. D(C   2,C   5,Ir  0,C   3)   -119.4540         0.001694   
    263. D(H  29,C   5,C   3,Ir  0)   -116.3534         0.027722   
    264. D(H  29,C   5,C   3,H  37)      3.0532         0.027722   
    265. D(C  17,N   6,Ir  0,C   1)    -95.0693         0.001766   
    266. D(C   7,N   6,Ir  0,C   2)     44.9619         0.001766   
    267. D(C   7,N   6,Ir  0,C   3)    129.5026         0.001766   
    268. D(C   7,N   6,Ir  0,C   4)    119.2303         0.001766   
    269. D(C   7,N   6,Ir  0,C   5)     29.1713         0.001766   
    270. D(C   7,N   6,Ir  0,C   1)     83.6939         0.001766   
    271. D(C   7,N   6,Ir  0,O  31)    -58.8478         0.001766   
    272. D(C  17,N   6,Ir  0,C   2)   -133.8014         0.001766   
    273. D(C  17,N   6,Ir  0,C   3)    -49.2607         0.001766   
    274. D(C  17,N   6,Ir  0,C   4)    -59.5329         0.001766   
    275. D(C  17,N   6,Ir  0,C   5)   -149.5920         0.001766   
    276. D(C  17,N   6,Ir  0,O  31)    122.3890         0.001766   
    277. D(C   8,C   7,N   6,Ir  0)    157.9036         0.014732   
    278. D(C   8,C   7,N   6,C  17)    -23.4530         0.014732   
    279. D(C  12,C   7,N   6,Ir  0)    -76.4436         0.014732   
    280. D(C  12,C   7,N   6,C  17)    102.1998         0.014732   
    281. D(H  13,C   7,N   6,Ir  0)     39.8256         0.014732   
    282. D(H  13,C   7,N   6,C  17)   -141.5311         0.014732   
    283. D(H   9,C   8,C   7,N   6)   -170.3870         0.011934   
    284. D(H   9,C   8,C   7,C  12)     65.1258         0.011934   
    285. D(H   9,C   8,C   7,H  13)    -54.5330         0.011934   
    286. D(H  10,C   8,C   7,N   6)     71.5367         0.011934   
    287. D(H  10,C   8,C   7,C  12)    -52.9504         0.011934   
    288. D(H  10,C   8,C   7,H  13)   -172.6093         0.011934   
    289. D(H  11,C   8,C   7,N   6)    -51.9280         0.011934   
    290. D(H  11,C   8,C   7,C  12)   -176.4151         0.011934   
    291. D(H  11,C   8,C   7,H  13)     63.9261         0.011934   
    292. D(H  14,C  12,C   7,N   6)    176.5759         0.011629   
    293. D(H  14,C  12,C   7,C   8)    -56.7206         0.011629   
    294. D(H  14,C  12,C   7,H  13)     62.8458         0.011629   
    295. D(H  15,C  12,C   7,N   6)    -64.3088         0.011629   
    296. D(H  15,C  12,C   7,C   8)     62.3946         0.011629   
    297. D(H  15,C  12,C   7,H  13)   -178.0389         0.011629   
    298. D(H  16,C  12,C   7,N   6)     57.6110         0.011629   
    299. D(H  16,C  12,C   7,C   8)   -175.6855         0.011629   
    300. D(H  16,C  12,C   7,H  13)    -56.1191         0.011629   
    301. D(C  18,C  17,N   6,Ir  0)     -8.1847         0.062361   
    302. D(C  18,C  17,N   6,C   7)    173.0357         0.062361   
    303. D(H  19,C  17,N   6,Ir  0)    174.1792         0.062361   
    304. D(H  19,C  17,N   6,C   7)     -4.6004         0.062361   
    305. D(C  20,C  18,C  17,N   6)    -35.7278         0.017584   
    306. D(C  20,C  18,C  17,H  19)    141.9297         0.017584   
    307. D(S  22,C  18,C  17,N   6)    139.6584         0.017584   
    308. D(S  22,C  18,C  17,H  19)    -42.6841         0.017584   
    309. D(C  21,C  20,C  18,C  17)    175.1999         0.029000   
    310. D(C  21,C  20,C  18,S  22)     -0.7459         0.029000   
    311. D(H  24,C  20,C  18,C  17)    -31.4367         0.029000   
    312. D(H  24,C  20,C  18,S  22)    152.6175         0.029000   
    313. D(C  23,C  21,C  20,C  18)      0.4896         0.022296   
    314. D(C  23,C  21,C  20,H  24)   -151.6589         0.022296   
    315. D(H  25,C  21,C  20,C  18)    177.1723         0.022296   
    316. D(H  25,C  21,C  20,H  24)     25.0239         0.022296   
    317. D(C  23,S  22,C  18,C  17)   -175.0612         0.005726   
    318. D(C  23,S  22,C  18,C  20)      0.6300         0.005726   
    319. D(S  22,C  23,C  21,C  20)     -0.0269         0.034527   
    320. D(S  22,C  23,C  21,H  25)   -176.7328         0.034527   
    321. D(H  26,C  23,C  21,C  20)    178.2014         0.034527   
    322. D(H  26,C  23,C  21,H  25)      1.4955         0.034527   
    323. D(C  21,C  23,S  22,C  18)     -0.3393         0.005277   
    324. D(H  26,C  23,S  22,C  18)   -178.7336         0.005277   
    325. D(C  32,O  31,Ir  0,C   1)   -175.1228         0.001917   
    326. D(C  32,O  31,Ir  0,C   2)    171.3626         0.001917   
    327. D(C  32,O  31,Ir  0,C   3)    102.2443         0.001917   
    328. D(C  32,O  31,Ir  0,C   4)    109.9075         0.001917   
    329. D(C  32,O  31,Ir  0,C   5)    133.3350         0.001917   
    330. D(C  32,O  31,Ir  0,N   6)    -74.1992         0.001917   
    331. D(O  30,C  32,O  31,Ir  0)      3.3928         0.049587   
    332. D(C  33,C  32,O  31,Ir  0)   -175.1164         0.049587   
    333. D(H  34,C  33,C  32,O  30)     22.3963         0.012555   
    334. D(H  34,C  33,C  32,O  31)   -159.0373         0.012555   
    335. D(H  35,C  33,C  32,O  30)    -96.0880         0.012555   
    336. D(H  35,C  33,C  32,O  31)     82.4784         0.012555   
    337. D(H  36,C  33,C  32,O  30)    145.5191         0.012555   
    338. D(H  36,C  33,C  32,O  31)    -35.9145         0.012555   
    -----------------------------------------------------------------

Number of atoms                         .... 39
Number of degrees of freedom            .... 338

         *************************************************************
         *                GEOMETRY OPTIMIZATION CYCLE   1            *
         *************************************************************
---------------------------------
CARTESIAN COORDINATES (ANGSTROEM)
---------------------------------
  Ir     0.600354   -0.709986    0.425806
  C      0.052028   -2.796880    0.328004
  C      0.132721   -2.344302    1.694558
  C      2.216313   -2.116451    0.738251
  C      1.315926   -2.633763   -0.267528
  C      1.496795   -1.975237    1.938754
  N     -1.053341    0.172367   -0.527657
  C     -2.319161    0.495187    0.148533
  C     -3.131025    1.566599   -0.561300
  H     -3.956238    1.867089    0.082900
  H     -3.577406    1.215832   -1.493235
  H     -2.539544    2.459254   -0.767164
  C     -3.126906   -0.780544    0.354044
  H     -2.020048    0.878973    1.125194
  H     -4.035845   -0.551393    0.908209
  H     -3.420383   -1.221955   -0.599294
  H     -2.577504   -1.525374    0.928041
  C     -0.858684    0.380359   -1.770375
  C      0.493280    0.148614   -2.226128
  H     -1.636565    0.743386   -2.435815
  C      1.580530    0.452620   -1.412464
  C      2.794992    0.035805   -2.032304
  S      0.943386   -0.594443   -3.691565
  C      2.603055   -0.537241   -3.249804
  H      1.510454    1.347019   -0.652248
  H      3.773911    0.206485   -1.608254
  H      3.350141   -0.910861   -3.933770
  H     -0.836367   -3.164179   -0.165464
  H     -0.655705   -2.377639    2.431962
  H      1.882702   -1.575829    2.865691
  O      1.304209    2.478779    0.242094
  O      0.539279    0.919720    1.642090
  C      0.907082    2.123060    1.348304
  C      0.848315    3.089638    2.498435
  H      0.803989    4.113642    2.137754
  H      1.754596    2.985261    3.098235
  H      0.003499    2.887872    3.153799
  H      3.261908   -1.887977    0.595091
  H      1.574626   -2.864315   -1.290641

----------------------------
CARTESIAN COORDINATES (A.U.)
----------------------------
  NO LB      ZA    FRAG     MASS         X           Y           Z
   0 Ir   17.0000*   0   192.220    1.134504   -1.341680    0.804657
   1 C     6.0000    0    12.011    0.098318   -5.285337    0.619837
   2 C     6.0000    0    12.011    0.250806   -4.430088    3.202250
   3 C     6.0000    0    12.011    4.188225   -3.999513    1.395093
   4 C     6.0000    0    12.011    2.486740   -4.977091   -0.505554
   5 C     6.0000    0    12.011    2.828533   -3.732656    3.663714
   6 N     7.0000    0    14.007   -1.990525    0.325726   -0.997127
   7 C     6.0000    0    12.011   -4.382580    0.935767    0.280687
   8 C     6.0000    0    12.011   -5.916781    2.960444   -1.060703
   9 H     1.0000    0     1.008   -7.476206    3.528287    0.156658
  10 H     1.0000    0     1.008   -6.760319    2.297590   -2.821804
  11 H     1.0000    0     1.008   -4.799042    4.647316   -1.449730
  12 C     6.0000    0    12.011   -5.908996   -1.475015    0.669046
  13 H     1.0000    0     1.008   -3.817338    1.661018    2.126308
  14 H     1.0000    0     1.008   -7.626642   -1.041982    1.716266
  15 H     1.0000    0     1.008   -6.463587   -2.309160   -1.132502
  16 H     1.0000    0     1.008   -4.870778   -2.882539    1.753742
  17 C     6.0000    0    12.011   -1.622678    0.718775   -3.345524
  18 C     6.0000    0    12.011    0.932165    0.280841   -4.206772
  19 H     1.0000    0     1.008   -3.092659    1.404795   -4.603024
  20 C     6.0000    0    12.011    2.986768    0.855327   -2.669170
  21 C     6.0000    0    12.011    5.281769    0.067661   -3.840498
  22 S    16.0000    0    32.060    1.782742   -1.123335   -6.976046
  23 C     6.0000    0    12.011    4.919061   -1.015239   -6.141239
  24 H     1.0000    0     1.008    2.854344    2.545497   -1.232570
  25 H     1.0000    0     1.008    7.131659    0.390201   -3.039160
  26 H     1.0000    0     1.008    6.330849   -1.721277   -7.433748
  27 H     1.0000    0     1.008   -1.580504   -5.979432   -0.312682
  28 H     1.0000    0     1.008   -1.239102   -4.493087    4.595742
  29 H     1.0000    0     1.008    3.557791   -2.977885    5.415372
  30 O     8.0000    0    15.999    2.464599    4.684214    0.457491
  31 O     8.0000    0    15.999    1.019089    1.738020    3.103101
  32 C     6.0000    0    12.011    1.714137    4.012002    2.547925
  33 C     6.0000    0    12.011    1.603082    5.838569    4.721357
  34 H     1.0000    0     1.008    1.519319    7.773656    4.039770
  35 H     1.0000    0     1.008    3.315706    5.641326    5.854815
  36 H     1.0000    0     1.008    0.006613    5.457286    5.959817
  37 H     1.0000    0     1.008    6.164113   -3.567760    1.124560
  38 H     1.0000    0     1.008    2.975612   -5.412770   -2.438959
* core charge reduced due to ECP

--------------------------------
INTERNAL COORDINATES (ANGSTROEM)
--------------------------------
 Ir     0   0   0     0.000000000000     0.00000000     0.00000000
 C      1   0   0     2.159946419468     0.00000000     0.00000000
 C      2   1   0     1.441777639780    68.87407979     0.00000000
 C      1   2   3     2.164931537619    64.42639461    81.09788527
 C      2   1   3     1.406615307772    71.27889526   240.85460432
 C      4   1   2     1.406682333539    71.10496778   279.03318544
 N      1   2   3     2.103354681773   100.67515125   243.51437987
 C      7   1   2     1.470962900545   123.84740581    83.67553925
 C      8   7   1     1.520164217714   113.55358355   157.91519879
 H      9   8   7     1.089153414799   108.83879421   189.61298258
 H      9   8   7     1.091232632094   112.99729466    71.53668993
 H      9   8   7     1.090439167325   112.05081789   308.07194858
 C      8   7   1     1.523866223607   109.53624083   283.56809641
 H      8   7   1     1.091154602464   104.64035882    39.83733580
 H     13   8   7     1.088930996012   109.56665862   176.57591201
 H     13   8   7     1.090788398162   111.31679455   295.69121669
 H     13   8   7     1.089072570424   112.10027791    57.61095626
 C      7   1   2     1.276583326725   113.43711934   264.94072819
 C     18   7   1     1.446335755908   115.61107852   351.71004309
 H     18   7   1     1.086120502885   122.58713133   174.07148364
 C     19  18   7     1.391677667318   120.94955704   324.13986272
 C     21  19  18     1.425646920001   110.36389494   175.23055581
 S     19  18   7     1.703644240313   125.90104615   139.60283080
 C     22  21  19     1.359001450288   113.10084866     0.50636247
 H     21  19  18     1.176006336185   119.83016264   328.60113833
 H     22  21  19     1.080307470642   123.70821791   177.18276053
 H     24  22  21     1.079522691226   128.00577656   178.19432079
 H      2   1   3     1.080569347897   123.90443568   119.77887641
 H      3   2   1     1.080017169207   126.62467875   122.22851769
 H      6   4   1     1.080570384889   125.90903906   243.64780610
 O     25  21  19     1.471428584769   174.46753481    12.66668304
 O      1   2   3     2.034341588765   142.50812687   339.10807308
 C     31  25  21     1.227998699147   113.61883244    79.90228120
 C     33  31  25     1.503491196620   121.03968521   169.80699705
 H     34  33  31     1.086559534539   110.70464932    22.39665870
 H     34  33  31     1.091764477811   109.04764316   263.91273044
 H     34  33  31     1.088058328867   111.83093013   145.51989535
 H      4   1   2     1.079776617589   124.48320269   157.84629289
 H      5   2   1     1.080183347581   126.25719212   240.32064894

---------------------------
INTERNAL COORDINATES (A.U.)
---------------------------
 Ir     0   0   0     0.000000000000     0.00000000     0.00000000
 C      1   0   0     4.081707196738     0.00000000     0.00000000
 C      2   1   0     2.724564885196    68.87407979     0.00000000
 C      1   2   3     4.091127704789    64.42639461    81.09788527
 C      2   1   3     2.658117707471    71.27889526   240.85460432
 C      4   1   2     2.658244367814    71.10496778   279.03318544
 N      1   2   3     3.974764311051   100.67515125   243.51437987
 C      7   1   2     2.779717035188   123.84740581    83.67553925
 C      8   7   1     2.872694050066   113.55358355   157.91519879
 H      9   8   7     2.058201671795   108.83879421   189.61298258
 H      9   8   7     2.062130823056   112.99729466    71.53668993
 H      9   8   7     2.060631391945   112.05081789   308.07194858
 C      8   7   1     2.879689827349   109.53624083   283.56809641
 H      8   7   1     2.061983368425   104.64035882    39.83733580
 H     13   8   7     2.057781361201   109.56665862   176.57591201
 H     13   8   7     2.061291342584   111.31679455   295.69121669
 H     13   8   7     2.058048898067   112.10027791    57.61095626
 C      7   1   2     2.412392874640   113.43711934   264.94072819
 C     18   7   1     2.733178476363   115.61107852   351.71004309
 H     18   7   1     2.052470298890   122.58713133   174.07148364
 C     19  18   7     2.629889657926   120.94955704   324.13986272
 C     21  19  18     2.694082242470   110.36389494   175.23055581
 S     19  18   7     3.219421043824   125.90104615   139.60283080
 C     22  21  19     2.568140556646   113.10084866     0.50636247
 H     21  19  18     2.222329907146   119.83016264   328.60113833
 H     22  21  19     2.041485259942   123.70821791   177.18276053
 H     24  22  21     2.040002241770   128.00577656   178.19432079
 H      2   1   3     2.041980136235   123.90443568   119.77887641
 H      3   2   1     2.040936669734   126.62467875   122.22851769
 H      6   4   1     2.041982095866   125.90903906   243.64780610
 O     25  21  19     2.780597050837   174.46753481    12.66668304
 O      1   2   3     3.844348465612   142.50812687   339.10807308
 C     31  25  21     2.320581234200   113.61883244    79.90228120
 C     33  31  25     2.841186606374   121.03968521   169.80699705
 H     34  33  31     2.053299948480   110.70464932    22.39665870
 H     34  33  31     2.063135865807   109.04764316   263.91273044
 H     34  33  31     2.056132259291   111.83093013   145.51989535
 H      4   1   2     2.040482093055   124.48320269   157.84629289
 H      5   2   1     2.041250701351   126.25719212   240.32064894

---------------------
BASIS SET INFORMATION
---------------------
There are 6 groups of distinct atoms

 Group   1 Type Ir  : 7s6p5d1f contracted to 6s3p2d1f pattern {211111/411/41/1}
 Group   2 Type C   : 8s4p1d contracted to 4s2p1d pattern {5111/31/1}
 Group   3 Type N   : 8s4p1d contracted to 4s2p1d pattern {5111/31/1}
 Group   4 Type H   : 4s contracted to 2s pattern {31}
 Group   5 Type S   : 10s7p1d contracted to 4s3p1d pattern {5311/511/1}
 Group   6 Type O   : 8s4p1d contracted to 4s2p1d pattern {5111/31/1}

Atom   0Ir   basis set group =>   1
Atom   1C    basis set group =>   2
Atom   2C    basis set group =>   2
Atom   3C    basis set group =>   2
Atom   4C    basis set group =>   2
Atom   5C    basis set group =>   2
Atom   6N    basis set group =>   3
Atom   7C    basis set group =>   2
Atom   8C    basis set group =>   2
Atom   9H    basis set group =>   4
Atom  10H    basis set group =>   4
Atom  11H    basis set group =>   4
Atom  12C    basis set group =>   2
Atom  13H    basis set group =>   4
Atom  14H    basis set group =>   4
Atom  15H    basis set group =>   4
Atom  16H    basis set group =>   4
Atom  17C    basis set group =>   2
Atom  18C    basis set group =>   2
Atom  19H    basis set group =>   4
Atom  20C    basis set group =>   2
Atom  21C    basis set group =>   2
Atom  22S    basis set group =>   5
Atom  23C    basis set group =>   2
Atom  24H    basis set group =>   4
Atom  25H    basis set group =>   4
Atom  26H    basis set group =>   4
Atom  27H    basis set group =>   4
Atom  28H    basis set group =>   4
Atom  29H    basis set group =>   4
Atom  30O    basis set group =>   6
Atom  31O    basis set group =>   6
Atom  32C    basis set group =>   2
Atom  33C    basis set group =>   2
Atom  34H    basis set group =>   4
Atom  35H    basis set group =>   4
Atom  36H    basis set group =>   4
Atom  37H    basis set group =>   4
Atom  38H    basis set group =>   4
---------------------------------
AUXILIARY/J BASIS SET INFORMATION
---------------------------------
There are 6 groups of distinct atoms

 Group   1 Type Ir  : 11s5p5d3f3g contracted to 8s5p5d2f3g pattern {41111111/11111/11111/21/111}
 Group   2 Type C   : 12s5p4d2f1g contracted to 6s4p3d1f1g pattern {711111/2111/211/2/1}
 Group   3 Type N   : 12s5p4d2f1g contracted to 6s4p3d1f1g pattern {711111/2111/211/2/1}
 Group   4 Type H   : 5s2p1d contracted to 3s1p1d pattern {311/2/1}
 Group   5 Type S   : 14s5p5d2f1g contracted to 8s4p3d1f1g pattern {71111111/2111/311/2/1}
 Group   6 Type O   : 12s5p4d2f1g contracted to 6s4p3d1f1g pattern {711111/2111/211/2/1}

Atom   0Ir   basis set group =>   1
Atom   1C    basis set group =>   2
Atom   2C    basis set group =>   2
Atom   3C    basis set group =>   2
Atom   4C    basis set group =>   2
Atom   5C    basis set group =>   2
Atom   6N    basis set group =>   3
Atom   7C    basis set group =>   2
Atom   8C    basis set group =>   2
Atom   9H    basis set group =>   4
Atom  10H    basis set group =>   4
Atom  11H    basis set group =>   4
Atom  12C    basis set group =>   2
Atom  13H    basis set group =>   4
Atom  14H    basis set group =>   4
Atom  15H    basis set group =>   4
Atom  16H    basis set group =>   4
Atom  17C    basis set group =>   2
Atom  18C    basis set group =>   2
Atom  19H    basis set group =>   4
Atom  20C    basis set group =>   2
Atom  21C    basis set group =>   2
Atom  22S    basis set group =>   5
Atom  23C    basis set group =>   2
Atom  24H    basis set group =>   4
Atom  25H    basis set group =>   4
Atom  26H    basis set group =>   4
Atom  27H    basis set group =>   4
Atom  28H    basis set group =>   4
Atom  29H    basis set group =>   4
Atom  30O    basis set group =>   6
Atom  31O    basis set group =>   6
Atom  32C    basis set group =>   2
Atom  33C    basis set group =>   2
Atom  34H    basis set group =>   4
Atom  35H    basis set group =>   4
Atom  36H    basis set group =>   4
Atom  37H    basis set group =>   4
Atom  38H    basis set group =>   4
-------------------------
ECP PARAMETER INFORMATION
-------------------------

 Group 1, Type Ir ECP Def2-ECP (replacing 60 core electrons, lmax=3)

Atom   0Ir   ECP group =>   1

------------------------------------------------------------------------------
                           ORCA GTO INTEGRAL CALCULATION
                           -- RI-GTO INTEGRALS CHOSEN --
------------------------------------------------------------------------------
------------------------------------------------------------------------------
                   ___                                                        
                  /   \      - P O W E R E D   B Y -                         
                 /     \                                                     
                 |  |  |   _    _      __       _____    __    __             
                 |  |  |  | |  | |    /  \     |  _  \  |  |  /  |          
                  \  \/   | |  | |   /    \    | | | |  |  | /  /          
                 / \  \   | |__| |  /  /\  \   | |_| |  |  |/  /          
                |  |  |   |  __  | /  /__\  \  |    /   |      \           
                |  |  |   | |  | | |   __   |  |    \   |  |\   \          
                \     /   | |  | | |  |  |  |  | |\  \  |  | \   \       
                 \___/    |_|  |_| |__|  |__|  |_| \__\ |__|  \__/        
                                                                              
                      - O R C A' S   B I G   F R I E N D -                    
                                      &                                       
                       - I N T E G R A L  F E E D E R -                       
                                                                              
 v1 FN, 2020, v2 2021                                                         
------------------------------------------------------------------------------


Reading SHARK input file reaction4-IEIP_ts_guess_scan_5-3_orca.SHARKINP.tmp ... ok
----------------------
SHARK INTEGRAL PACKAGE
----------------------

Number of atoms                             ...     39
Number of basis functions                   ...    358
Number of shells                            ...    184
Maximum angular momentum                    ...      3
Integral batch strategy                     ... SHARK/LIBINT Hybrid
RI-J (if used) integral strategy            ... SPLIT-RIJ (Revised 2003 algorithm where possible)
Printlevel                                  ...      1
Contraction scheme used                     ... SEGMENTED contraction
Coulomb Range Separation                    ... NOT USED
Exchange Range Separation                   ... NOT USED
Finite Nucleus Model                        ... NOT USED
Auxiliary Coulomb fitting basis             ... AVAILABLE
   # of basis functions in Aux-J            ...   1231
   # of shells in Aux-J                     ...    405
   Maximum angular momentum in Aux-J        ...      4
Auxiliary J/K fitting basis                 ... NOT available
Auxiliary Correlation fitting basis         ... NOT available
Auxiliary 'external' fitting basis          ... NOT available
Integral threshold                          ...     2.500000e-11
Primitive cut-off                           ...     2.500000e-12
Primitive pair pre-selection threshold      ...     2.500000e-12

Calculating pre-screening integrals         ... done (  0.1 sec) Dimension = 184
Organizing shell pair data                  ... done (  0.1 sec)
Shell pair information
Total number of shell pairs                 ...     17020
Shell pairs after pre-screening             ...     13010
Total number of primitive shell pairs       ...     60705
Primitive shell pairs kept                  ...     29297
          la=0 lb=0:   4988 shell pairs
          la=1 lb=0:   4259 shell pairs
          la=1 lb=1:    857 shell pairs
          la=2 lb=0:   1758 shell pairs
          la=2 lb=1:    790 shell pairs
          la=2 lb=2:    181 shell pairs
          la=3 lb=0:    113 shell pairs
          la=3 lb=1:     42 shell pairs
          la=3 lb=2:     21 shell pairs
          la=3 lb=3:      1 shell pairs

Calculating one electron integrals          ... done (  0.1 sec)
Calculating ECP integrals                   ... done (  0.8 sec)
Calculating RI/J V-Matrix + Cholesky decomp.... done (  0.1 sec)
Calculating Nuclear repulsion               ... done (  0.0 sec) ENN=   2043.340574651219 Eh

SHARK setup successfully completed in   1.4 seconds

Maximum memory used throughout the entire GTOINT-calculation: 91.5 MB
-------------------------------------------------------------------------------
                                 ORCA SCF
-------------------------------------------------------------------------------

------------
SCF SETTINGS
------------
Hamiltonian:
 Density Functional     Method          .... DFT(GTOs)
 Exchange Functional    Exchange        .... PBE
   PBE kappa parameter   XKappa         ....  1.024500
   PBE mue parameter    XMuePBE         ....  0.123457
 Correlation Functional Correlation     .... PBE
   PBE beta parameter  CBetaPBE         ....  0.030000
 LDA part of GGA corr.  LDAOpt          .... PW91-LDA
 Gradients option       PostSCFGGA      .... off
 Hybrid DFT is turned on
   Fraction HF Exchange ScalHFX         ....  0.420000
   Scaling of DF-GGA-X  ScalDFX         ....  0.580000
   Scaling of DF-GGA-C  ScalDFC         ....  1.000000
   Scaling of DF-LDA-C  ScalLDAC        ....  1.000000
   Perturbative correction              ....  0.000000
   Density functional embedding theory  .... OFF
 RI-approximation to the Coulomb term is turned on
   Number of AuxJ basis functions       .... 1231
   RIJ-ON(X) (HFX calculated with O(N)) .... on
   Number of AuxJ basis functions       .... 1231
   RIJ-COSX (HFX calculated with COS-X)).... on


General Settings:
 Integral files         IntName         .... reaction4-IEIP_ts_guess_scan_5-3_orca
 Hartree-Fock type      HFTyp           .... RHF
 Total Charge           Charge          ....    1
 Multiplicity           Mult            ....    1
 Number of Electrons    NEL             ....  164
 Basis Dimension        Dim             ....  358
 Nuclear Repulsion      ENuc            ....   2043.3405746512 Eh

Convergence Acceleration:
 DIIS                   CNVDIIS         .... on
   Start iteration      DIISMaxIt       ....    12
   Startup error        DIISStart       ....  0.200000
   # of expansion vecs  DIISMaxEq       ....     5
   Bias factor          DIISBfac        ....   1.050
   Max. coefficient     DIISMaxC        ....  10.000
 Trust-Rad. Augm. Hess. CNVTRAH         .... auto
   Auto Start mean grad. ratio tolernc. ....  1.125000
   Auto Start start iteration           ....    20
   Auto Start num. interpolation iter.  ....    10
   Max. Number of Micro iterations      ....    16
   Max. Number of Macro iterations      .... Maxiter - #DIIS iter
   Number of Davidson start vectors     ....     2
   Converg. threshold I  (grad. norm)   ....   1.000e-05
   Converg. threshold II (energy diff.) ....   1.000e-08
   Grad. Scal. Fac. for Micro threshold ....   0.100
   Minimum threshold for Micro iter.    ....   0.010
   NR start threshold (gradient norm)   ....   0.001
   Initial trust radius                 ....   0.400
   Minimum AH scaling param. (alpha)    ....   1.000
   Maximum AH scaling param. (alpha)    .... 1000.000
   Orbital update algorithm             .... Taylor
   White noise on init. David. guess    .... on
   Maximum white noise                  ....   0.010
   Quad. conv. algorithm                .... NR
   COSX micro iterations for RIJONX calc.... off
 SOSCF                  CNVSOSCF        .... off
 Level Shifting         CNVShift        .... on
   Level shift para.    LevelShift      ....    0.2500
   Turn off err/grad.   ShiftErr        ....    0.0010
 Zerner damping         CNVZerner       .... off
 Static damping         CNVDamp         .... on
   Fraction old density DampFac         ....    0.7000
   Max. Damping (<1)    DampMax         ....    0.9800
   Min. Damping (>=0)   DampMin         ....    0.0000
   Turn off err/grad.   DampErr         ....    0.1000
 Fernandez-Rico         CNVRico         .... off

SCF Procedure:
 Maximum # iterations   MaxIter         ....   250
 SCF integral mode      SCFMode         .... Direct
   Integral package                     .... SHARK and LIBINT hybrid scheme
 Reset frequency        DirectResetFreq ....    20
 Integral Threshold     Thresh          ....  2.500e-11 Eh
 Primitive CutOff       TCut            ....  2.500e-12 Eh

Convergence Tolerance:
 Convergence Check Mode ConvCheckMode   .... Total+1el-Energy
 Convergence forced     ConvForced      .... 0
 Energy Change          TolE            ....  1.000e-08 Eh
 1-El. energy change                    ....  1.000e-05 Eh
 DIIS Error             TolErr          ....  5.000e-07


Diagonalization of the overlap matrix:
Smallest eigenvalue                        ... 1.158e-03
Time for diagonalization                   ...    0.033 sec
Threshold for overlap eigenvalues          ... 1.000e-08
Number of eigenvalues below threshold      ... 0
Time for construction of square roots      ...    0.011 sec
Total time needed                          ...    0.045 sec

--------------------
INITIAL GUESS: HCORE
--------------------
                      -----------------
                      INTIAL GUESS DONE 
                      -----------------
-------------------
DFT GRID GENERATION
-------------------

General Integration Accuracy     IntAcc      ... 4.159
Radial Grid Type                 RadialGrid  ... OptM3 with GC (2021)
Angular Grid (max. ang.)         AngularGrid ... 3 (Lebedev-194)
Angular grid pruning method      GridPruning ... 4 (adaptive)
Weight generation scheme         WeightScheme... Becke
Basis function cutoff            BFCut       ... 1.0000e-11
Integration weight cutoff        WCut        ... 1.0000e-14
Angular grids for H and He will be reduced by one unit
Partially contracted basis set               ... off
Rotationally invariant grid construction     ... off

Total number of grid points                  ...    93287
Total number of batches                      ...     1479
Average number of points per batch           ...       63
Average number of grid points per atom       ...     2392
Time for grid setup =    2.025 sec

--------------------
COSX GRID GENERATION
--------------------

GRIDX 1
-------
General Integration Accuracy     IntAcc      ... 3.816
Radial Grid Type                 RadialGrid  ... OptM3 with GC (2021)
Angular Grid (max. ang.)         AngularGrid ... 1 (Lebedev-50)
Angular grid pruning method      GridPruning ... 4 (adaptive)
Weight generation scheme         WeightScheme... Becke
Basis function cutoff            BFCut       ... 1.0000e-11
Integration weight cutoff        WCut        ... 1.0000e-14
Angular grids for H and He will be reduced by one unit
Partially contracted basis set               ... on
Rotationally invariant grid construction     ... off

Total number of grid points                  ...    23166
Total number of batches                      ...      381
Average number of points per batch           ...       60
Average number of grid points per atom       ...      594
UseSFitting                                  ... on

GRIDX 2
-------
General Integration Accuracy     IntAcc      ... 4.020
Radial Grid Type                 RadialGrid  ... OptM3 with GC (2021)
Angular Grid (max. ang.)         AngularGrid ... 2 (Lebedev-110)
Angular grid pruning method      GridPruning ... 4 (adaptive)
Weight generation scheme         WeightScheme... Becke
Basis function cutoff            BFCut       ... 1.0000e-11
Integration weight cutoff        WCut        ... 1.0000e-14
Angular grids for H and He will be reduced by one unit
Partially contracted basis set               ... on
Rotationally invariant grid construction     ... off

Total number of grid points                  ...    50294
Total number of batches                      ...      806
Average number of points per batch           ...       62
Average number of grid points per atom       ...     1290
UseSFitting                                  ... on

GRIDX 3
-------
General Integration Accuracy     IntAcc      ... 4.338
Radial Grid Type                 RadialGrid  ... OptM3 with GC (2021)
Angular Grid (max. ang.)         AngularGrid ... 3 (Lebedev-194)
Angular grid pruning method      GridPruning ... 4 (adaptive)
Weight generation scheme         WeightScheme... Becke
Basis function cutoff            BFCut       ... 1.0000e-11
Integration weight cutoff        WCut        ... 1.0000e-14
Angular grids for H and He will be reduced by one unit
Partially contracted basis set               ... on
Rotationally invariant grid construction     ... off

Total number of grid points                  ...   108737
Total number of batches                      ...     1718
Average number of points per batch           ...       63
Average number of grid points per atom       ...     2788
UseSFitting                                  ... on

Time for X-Grid setup             =    4.823 sec

--------------
SCF ITERATIONS
--------------
ITER       Energy         Delta-E        Max-DP      RMS-DP      [F,P]     Damp
               ***  Starting incremental Fock matrix formation  ***
  0   -859.5236154552   0.00000000000019.83271227  0.14907893  2.8417517 0.7000
  1  -1096.8882650499-237.364649594658 8.88791847  0.11673824  1.4770850 0.7000
  2  -1166.3685705852 -69.480305535344 5.54457199  0.06522107  1.0615281 0.7000
  3  -1192.3716518934 -26.003081308168 3.84469455  0.04551069  0.7730529 0.7000
  4  -1210.1111032733 -17.739451379954 2.71801330  0.03582293  0.4602932 0.7000
  5  -1225.0248176555 -14.913714382174 2.37992398  0.03071412  0.3682156 0.7000
  6  -1234.5065525932  -9.481734937663 1.87209379  0.02809280  0.3357729 0.7000
  7  -1242.0004188324  -7.493866239246 1.91004660  0.02530891  0.3327433 0.7000
  8  -1246.6357686932  -4.635349860805 1.82732487  0.02519060  0.3873330 0.7000
  9  -1250.4414639773  -3.805695284120 1.67491852  0.02376520  0.3621551 0.7000
 10  -1253.0037739807  -2.562310003407 1.84833296  0.02446610  0.4167027 0.7000
 11  -1254.6735028803  -1.669728899604 1.60975862  0.02360864  0.3738692 0.7000
                               ***Turning on DIIS***
 12  -1255.9474585914  -1.273955711074 1.73724883  0.02392225  0.4369202 0.7000
 13  -1256.7924955987  -0.845037007300 1.54697453  0.02030216  0.3777012 0.7000
 14  -1267.6167108987 -10.824215299935 1.09448095  0.01432458  0.2485550 0.7000
 15  -1274.0145790818  -6.397868183132 0.76238339  0.01016487  0.1480140 0.7000
 16  -1278.0404170366  -4.025837954832 0.52952320  0.00718722  0.1307442 0.7000
 17  -1280.7586261049  -2.718209068308 0.36601489  0.00509074  0.1687639 0.7000
 18  -1282.7688264508  -2.010200345855 0.25640536  0.00363014  0.1707245 0.7000
 19  -1284.2608970720  -1.492070621266 0.17794868  0.00271467  0.1630105 0.7000
               *** Restarting incremental Fock matrix formation ***
                                   *** Resetting DIIS ***
 20  -1285.4285510190  -1.167653946933 0.13021521  0.00256213  0.1416701 0.7000
 21  -1286.3773902861  -0.948839267106 0.30361318  0.00574539  0.0501154 0.0000
 22  -1288.3890257188  -2.011635432715 0.03730309  0.00097030  0.0566318 0.0000
 23  -1288.4353458013  -0.046320082460 0.04019233  0.00070805  0.0214880 0.0000
 24  -1288.4422308369  -0.006885035632 0.02382180  0.00028354  0.0187010 0.0000
 25  -1288.4455063570  -0.003275520099 0.00661983  0.00012057  0.0030822 0.0000
 26  -1288.4459971983  -0.000490841354 0.00385051  0.00006371  0.0018952 0.0000
 27  -1288.4461644987  -0.000167300313 0.00307104  0.00004820  0.0011996 0.0000
 28  -1288.4462432532  -0.000078754504 0.00302633  0.00005781  0.0007009 0.0000
               *** Restarting incremental Fock matrix formation ***
                                   *** Resetting DIIS ***
 29  -1288.4473697278  -0.001126474665 0.00422131  0.00008395  0.0006332 0.0000
 30  -1288.4473882273  -0.000018499511 0.00081274  0.00001450  0.0005078 0.0000
 31  -1288.4473886367  -0.000000409372 0.00054757  0.00000799  0.0005098 0.0000
 32  -1288.4473908097  -0.000002173000 0.00037596  0.00000299  0.0001381 0.0000
 33  -1288.4473909407  -0.000000130955 0.00026713  0.00000201  0.0001349 0.0000
 34  -1288.4473910383  -0.000000097649 0.00012305  0.00000105  0.0000386 0.0000
 35  -1288.4473910471  -0.000000008819 0.00007290  0.00000068  0.0000212 0.0000
 36  -1288.4473910576  -0.000000010455 0.00003548  0.00000032  0.0000136 0.0000
 37  -1288.4473910520   0.000000005635 0.00001200  0.00000012  0.0000047 0.0000
 38  -1288.4473910361   0.000000015826 0.00000585  0.00000006  0.0000039 0.0000
 39  -1288.4473910312   0.000000004918 0.00000394  0.00000004  0.0000019 0.0000
 40  -1288.4473910443  -0.000000013098 0.00000362  0.00000003  0.0000021 0.0000
                 **** Energy Check signals convergence ****

               *****************************************************
               *                     SUCCESS                       *
               *           SCF CONVERGED AFTER  41 CYCLES          *
               *****************************************************

Old exchange energy                            =    -59.661542888 Eh
New exchange energy                            =    -59.661483969 Eh
Exchange energy change after final integration =      0.000058919 Eh
Total energy after final integration           =  -1288.447332132 Eh
Final COS-X integration done in                =    61.479 sec

----------------
TOTAL SCF ENERGY
----------------

Total Energy       :        -1288.44733213 Eh          -35060.43435 eV

Components:
Nuclear Repulsion  :         2043.34057465 Eh           55602.12379 eV
Electronic Energy  :        -3331.78790678 Eh          -90662.55814 eV
One Electron Energy:        -5842.09185220 Eh         -158971.40125 eV
Two Electron Energy:         2510.30394541 Eh           68308.84311 eV
Max COSX asymmetry :            0.00001992 Eh               0.00054 eV

Virial components:
Potential Energy   :        -2501.58173505 Eh          -68071.49970 eV
Kinetic Energy     :         1213.13440292 Eh           33011.06535 eV
Virial Ratio       :            2.06208127


DFT components:
N(Alpha)           :       82.000609774137 electrons
N(Beta)            :       82.000609774137 electrons
N(Total)           :      164.001219548275 electrons
E(X)               :      -79.596248747941 Eh       
E(C)               :       -7.456063345810 Eh       
E(XC)              :      -87.052312093750 Eh       
DFET-embed. en.    :        0.000000000000 Eh       

---------------
SCF CONVERGENCE
---------------

  Last Energy change         ...   -7.4988e-09  Tolerance :   1.0000e-08
  Last MAX-Density change    ...    0.0000e+00  Tolerance :   1.0000e-07
  Last RMS-Density change    ...    0.0000e+00  Tolerance :   5.0000e-09
  Last DIIS Error            ...    4.1893e-07  Tolerance :   5.0000e-07

             **** THE GBW FILE WAS UPDATED (reaction4-IEIP_ts_guess_scan_5-3_orca.gbw) ****
             **** DENSITY reaction4-IEIP_ts_guess_scan_5-3_orca.scfp WAS UPDATED ****
             **** ENERGY FILE WAS UPDATED (reaction4-IEIP_ts_guess_scan_5-3_orca.en.tmp) ****
             **** THE GBW FILE WAS UPDATED (reaction4-IEIP_ts_guess_scan_5-3_orca.gbw) ****
             **** DENSITY reaction4-IEIP_ts_guess_scan_5-3_orca.scfp WAS UPDATED ****
----------------
ORBITAL ENERGIES
----------------

  NO   OCC          E(Eh)            E(eV) 
   0   2.0000     -89.765804     -2442.6517 
   1   2.0000     -19.621294      -533.9225 
   2   2.0000     -19.586104      -532.9650 
   3   2.0000     -14.842172      -403.8760 
   4   2.0000     -10.678263      -290.5703 
   5   2.0000     -10.663125      -290.1584 
   6   2.0000     -10.636603      -289.4367 
   7   2.0000     -10.636514      -289.4343 
   8   2.0000     -10.633039      -289.3397 
   9   2.0000     -10.630883      -289.2810 
  10   2.0000     -10.630276      -289.2645 
  11   2.0000     -10.629715      -289.2493 
  12   2.0000     -10.616388      -288.8866 
  13   2.0000     -10.612238      -288.7737 
  14   2.0000     -10.587700      -288.1060 
  15   2.0000     -10.584896      -288.0297 
  16   2.0000     -10.557248      -287.2773 
  17   2.0000     -10.552336      -287.1437 
  18   2.0000     -10.531491      -286.5764 
  19   2.0000      -8.405103      -228.7145 
  20   2.0000      -6.295147      -171.2997 
  21   2.0000      -6.291489      -171.2001 
  22   2.0000      -6.289889      -171.1566 
  23   2.0000      -4.029159      -109.6390 
  24   2.0000      -2.348041       -63.8934 
  25   2.0000      -2.314220       -62.9731 
  26   2.0000      -2.312882       -62.9367 
  27   2.0000      -1.302923       -35.4543 
  28   2.0000      -1.215960       -33.0880 
  29   2.0000      -1.206118       -32.8201 
  30   2.0000      -1.172313       -31.9003 
  31   2.0000      -1.129945       -30.7474 
  32   2.0000      -1.028837       -27.9961 
  33   2.0000      -0.987063       -26.8594 
  34   2.0000      -0.977426       -26.5971 
  35   2.0000      -0.968783       -26.3619 
  36   2.0000      -0.962755       -26.1979 
  37   2.0000      -0.924997       -25.1704 
  38   2.0000      -0.903704       -24.5910 
  39   2.0000      -0.875723       -23.8296 
  40   2.0000      -0.799820       -21.7642 
  41   2.0000      -0.788448       -21.4548 
  42   2.0000      -0.787215       -21.4212 
  43   2.0000      -0.783332       -21.3155 
  44   2.0000      -0.772238       -21.0137 
  45   2.0000      -0.756389       -20.5824 
  46   2.0000      -0.744524       -20.2595 
  47   2.0000      -0.724738       -19.7211 
  48   2.0000      -0.694430       -18.8964 
  49   2.0000      -0.673155       -18.3175 
  50   2.0000      -0.666246       -18.1295 
  51   2.0000      -0.651742       -17.7348 
  52   2.0000      -0.647290       -17.6136 
  53   2.0000      -0.640135       -17.4189 
  54   2.0000      -0.635667       -17.2974 
  55   2.0000      -0.628051       -17.0901 
  56   2.0000      -0.623440       -16.9647 
  57   2.0000      -0.613592       -16.6967 
  58   2.0000      -0.608065       -16.5463 
  59   2.0000      -0.607293       -16.5253 
  60   2.0000      -0.599271       -16.3070 
  61   2.0000      -0.590382       -16.0651 
  62   2.0000      -0.580631       -15.7998 
  63   2.0000      -0.574521       -15.6335 
  64   2.0000      -0.564920       -15.3723 
  65   2.0000      -0.554400       -15.0860 
  66   2.0000      -0.552874       -15.0445 
  67   2.0000      -0.548708       -14.9311 
  68   2.0000      -0.539967       -14.6933 
  69   2.0000      -0.536474       -14.5982 
  70   2.0000      -0.528375       -14.3778 
  71   2.0000      -0.520999       -14.1771 
  72   2.0000      -0.516405       -14.0521 
  73   2.0000      -0.504670       -13.7328 
  74   2.0000      -0.488251       -13.2860 
  75   2.0000      -0.482050       -13.1172 
  76   2.0000      -0.469485       -12.7753 
  77   2.0000      -0.448743       -12.2109 
  78   2.0000      -0.441526       -12.0145 
  79   2.0000      -0.424995       -11.5647 
  80   2.0000      -0.416739       -11.3400 
  81   2.0000      -0.403048       -10.9675 
  82   0.0000      -0.201567        -5.4849 
  83   0.0000      -0.160343        -4.3632 
  84   0.0000      -0.141821        -3.8591 
  85   0.0000      -0.101690        -2.7671 
  86   0.0000      -0.077688        -2.1140 
  87   0.0000      -0.068573        -1.8660 
  88   0.0000      -0.061461        -1.6724 
  89   0.0000      -0.051054        -1.3893 
  90   0.0000      -0.045576        -1.2402 
  91   0.0000      -0.034377        -0.9354 
  92   0.0000      -0.004774        -0.1299 
  93   0.0000      -0.002628        -0.0715 
  94   0.0000       0.011936         0.3248 
  95   0.0000       0.022104         0.6015 
  96   0.0000       0.023884         0.6499 
  97   0.0000       0.034561         0.9405 
  98   0.0000       0.044880         1.2212 
  99   0.0000       0.057866         1.5746 
 100   0.0000       0.068232         1.8567 
 101   0.0000       0.070127         1.9083 
 102   0.0000       0.071273         1.9394 
 103   0.0000       0.079506         2.1635 
 104   0.0000       0.083643         2.2760 
 105   0.0000       0.089939         2.4474 
 106   0.0000       0.093433         2.5424 
 107   0.0000       0.100300         2.7293 
 108   0.0000       0.107512         2.9255 
 109   0.0000       0.113117         3.0781 
 110   0.0000       0.114884         3.1261 
 111   0.0000       0.121352         3.3022 
 112   0.0000       0.121956         3.3186 
 113   0.0000       0.125766         3.4223 
 114   0.0000       0.130960         3.5636 
 115   0.0000       0.138624         3.7721 
 116   0.0000       0.143266         3.8985 
 117   0.0000       0.154181         4.1955 
 118   0.0000       0.156991         4.2719 
 119   0.0000       0.160636         4.3711 
 120   0.0000       0.165787         4.5113 
 121   0.0000       0.180500         4.9117 
 122   0.0000       0.188380         5.1261 
 123   0.0000       0.198893         5.4122 
 124   0.0000       0.222935         6.0664 
 125   0.0000       0.231377         6.2961 
 126   0.0000       0.256524         6.9804 
 127   0.0000       0.264858         7.2072 
 128   0.0000       0.277159         7.5419 
 129   0.0000       0.291824         7.9409 
 130   0.0000       0.303234         8.2514 
 131   0.0000       0.310245         8.4422 
 132   0.0000       0.321451         8.7471 
 133   0.0000       0.335187         9.1209 
 134   0.0000       0.340642         9.2694 
 135   0.0000       0.355513         9.6740 
 136   0.0000       0.361035         9.8243 
 137   0.0000       0.367723        10.0063 
 138   0.0000       0.382633        10.4120 
 139   0.0000       0.397209        10.8086 
 140   0.0000       0.401420        10.9232 
 141   0.0000       0.417032        11.3480 
 142   0.0000       0.424074        11.5397 
 143   0.0000       0.435703        11.8561 
 144   0.0000       0.443750        12.0750 
 145   0.0000       0.448883        12.2147 
 146   0.0000       0.456085        12.4107 
 147   0.0000       0.458823        12.4852 
 148   0.0000       0.469045        12.7634 
 149   0.0000       0.475509        12.9393 
 150   0.0000       0.479684        13.0529 
 151   0.0000       0.488243        13.2858 
 152   0.0000       0.493944        13.4409 
 153   0.0000       0.500800        13.6275 
 154   0.0000       0.507932        13.8215 
 155   0.0000       0.513971        13.9859 
 156   0.0000       0.527968        14.3667 
 157   0.0000       0.530671        14.4403 
 158   0.0000       0.543897        14.8002 
 159   0.0000       0.547068        14.8865 
[...]

----------------------
LOEWDIN ATOMIC CHARGES
----------------------
   0 Ir:   -0.229482
   1 C :   -0.039880
   2 C :   -0.067022
   3 C :   -0.055951
   4 C :   -0.057629
   5 C :   -0.022675
   6 N :   -0.001874
   7 C :   -0.069241
   8 C :   -0.364283
   9 H :    0.157482
  10 H :    0.133403
  11 H :    0.147059
  12 C :   -0.343396
  13 H :    0.157177
  14 H :    0.153068
  15 H :    0.137151
  16 H :    0.134075
  17 C :    0.034262
  18 C :   -0.177317
  19 H :    0.163237
  20 C :   -0.194249
  21 C :   -0.132011
  22 S :    0.476017
  23 C :   -0.263617
  24 H :    0.291133
  25 H :    0.163323
  26 H :    0.168566
  27 H :    0.184792
  28 H :    0.185377
  29 H :    0.193262
  30 O :   -0.275660
  31 O :   -0.208897
  32 C :    0.151001
  33 C :   -0.376516
  34 H :    0.159102
  35 H :    0.166305
  36 H :    0.152589
  37 H :    0.186131
  38 H :    0.185186

-------------------------------
LOEWDIN REDUCED ORBITAL CHARGES
-------------------------------
  0 Irs       :     2.449424  s :     2.449424
      pz      :     2.242427  p :     6.752050
      px      :     2.240732
      py      :     2.268891
      dz2     :     1.841084  d :     7.938274
      dxz     :     1.734826
      dyz     :     1.279904
      dx2y2   :     1.630448
      dxy     :     1.452012
      f0      :     0.011496  f :     0.089734
      f+1     :     0.003344
      f-1     :     0.013379
      f+2     :     0.017175
      f-2     :     0.016469
      f+3     :     0.011056
      f-3     :     0.016815
  1 C s       :     2.875715  s :     2.875715
      pz      :     1.047758  p :     3.059754
      px      :     1.087570
      py      :     0.924426
      dz2     :     0.026426  d :     0.104410
      dxz     :     0.027104
      dyz     :     0.017589
      dx2y2   :     0.018432
      dxy     :     0.014859
  2 C s       :     2.874732  s :     2.874732
      pz      :     1.046389  p :     3.090631
      px      :     1.075538
      py      :     0.968705
      dz2     :     0.025555  d :     0.101658
      dxz     :     0.027548
      dyz     :     0.017445
      dx2y2   :     0.018060
      dxy     :     0.013050
  3 C s       :     2.874318  s :     2.874318
      pz      :     1.035975  p :     3.079818
      px      :     1.077236
      py      :     0.966607
      dz2     :     0.024077  d :     0.101814
      dxz     :     0.032010
      dyz     :     0.016015
      dx2y2   :     0.015307
      dxy     :     0.014405
  4 C s       :     2.873881  s :     2.873881
      pz      :     1.092513  p :     3.081739
      px      :     1.036271
      py      :     0.952955
      dz2     :     0.022368  d :     0.102008
      dxz     :     0.031540
      dyz     :     0.012971
      dx2y2   :     0.017673
      dxy     :     0.017457
  5 C s       :     2.877423  s :     2.877423
      pz      :     1.061883  p :     3.040820
      px      :     1.033877
      py      :     0.945060
      dz2     :     0.025000  d :     0.104431
      dxz     :     0.030094
      dyz     :     0.015835
      dx2y2   :     0.015549
      dxy     :     0.017953
  6 N s       :     3.123426  s :     3.123426
      pz      :     1.266401  p :     3.779673
      px      :     1.291821
      py      :     1.221452
      dz2     :     0.030384  d :     0.098774
      dxz     :     0.027684
      dyz     :     0.019226
      dx2y2   :     0.011468
      dxy     :     0.010012
  7 C s       :     2.862259  s :     2.862259
      pz      :     1.060981  p :     3.072639
      px      :     0.937688
      py      :     1.073970
      dz2     :     0.023530  d :     0.134344
      dxz     :     0.029303
      dyz     :     0.019601
      dx2y2   :     0.029012
      dxy     :     0.032897
  8 C s       :     2.953208  s :     2.953208
      pz      :     1.130520  p :     3.343640
      px      :     1.123620
      py      :     1.089500
      dz2     :     0.011611  d :     0.067435
      dxz     :     0.018039
      dyz     :     0.010540
      dx2y2   :     0.008794
      dxy     :     0.018449
  9 H s       :     0.842518  s :     0.842518
 10 H s       :     0.866597  s :     0.866597
 11 H s       :     0.852941  s :     0.852941
 12 C s       :     2.953079  s :     2.953079
      pz      :     1.139985  p :     3.322405
      px      :     1.111550
      py      :     1.070870
      dz2     :     0.009835  d :     0.067912
      dxz     :     0.013776
      dyz     :     0.015653
      dx2y2   :     0.010831
      dxy     :     0.017818
 13 H s       :     0.842823  s :     0.842823
 14 H s       :     0.846932  s :     0.846932
 15 H s       :     0.862849  s :     0.862849
 16 H s       :     0.865925  s :     0.865925
 17 C s       :     2.878171  s :     2.878171
      pz      :     1.022171  p :     2.947168
      px      :     1.060234
      py      :     0.864764
      dz2     :     0.040792  d :     0.140400
      dxz     :     0.051000
      dyz     :     0.024571
      dx2y2   :     0.011785
      dxy     :     0.012252
 18 C s       :     2.896615  s :     2.896615
      pz      :     1.040511  p :     3.168600
      px      :     1.089568
      py      :     1.038521
      dz2     :     0.030744  d :     0.112101
      dxz     :     0.030047
      dyz     :     0.017155
      dx2y2   :     0.020614
      dxy     :     0.013542
 19 H s       :     0.836763  s :     0.836763
 20 C s       :     2.910279  s :     2.910279
      pz      :     1.097041  p :     3.193626
      px      :     1.047007
      py      :     1.049578
      dz2     :     0.010599  d :     0.090344
      dxz     :     0.033464
      dyz     :     0.009794
      dx2y2   :     0.017920
      dxy     :     0.018568
 21 C s       :     2.897916  s :     2.897916
      pz      :     1.065905  p :     3.139950
      px      :     1.089084
      py      :     0.984962
      dz2     :     0.024627  d :     0.094145
      dxz     :     0.028121
      dyz     :     0.014373
      dx2y2   :     0.016669
      dxy     :     0.010354
 22 S s       :     5.503465  s :     5.503465
      pz      :     3.292529  p :     9.867296
      px      :     3.081895
      py      :     3.492872
      dz2     :     0.038510  d :     0.153223
      dxz     :     0.032917
      dyz     :     0.023912
      dx2y2   :     0.033250
      dxy     :     0.024634
 23 C s       :     2.964443  s :     2.964443
      pz      :     1.114820  p :     3.213529
      px      :     1.020739
      py      :     1.077970
      dz2     :     0.020519  d :     0.085644
      dxz     :     0.027522
      dyz     :     0.012656
      dx2y2   :     0.013811
      dxy     :     0.011137
 24 H s       :     0.708867  s :     0.708867
 25 H s       :     0.836677  s :     0.836677
 26 H s       :     0.831434  s :     0.831434
 27 H s       :     0.815208  s :     0.815208
 28 H s       :     0.814623  s :     0.814623
 29 H s       :     0.806738  s :     0.806738
 30 O s       :     3.508077  s :     3.508077
      pz      :     1.467888  p :     4.713114
      px      :     1.521642
      py      :     1.723584
      dz2     :     0.017971  d :     0.054469
      dxz     :     0.012937
      dyz     :     0.016222
      dx2y2   :     0.003888
      dxy     :     0.003451
 31 O s       :     3.446724  s :     3.446724
      pz      :     1.695133  p :     4.703296
      px      :     1.631656
      py      :     1.376507
      dz2     :     0.009409  d :     0.058878
      dxz     :     0.003389
      dyz     :     0.016154
      dx2y2   :     0.015798
      dxy     :     0.014129
 32 C s       :     2.814165  s :     2.814165
      pz      :     1.008532  p :     2.712029
      px      :     0.754231
      py      :     0.949267
      dz2     :     0.076984  d :     0.322805
      dxz     :     0.044125
      dyz     :     0.108359
      dx2y2   :     0.045271
      dxy     :     0.048066
 33 C s       :     2.960054  s :     2.960054
      pz      :     1.095220  p :     3.353768
      px      :     1.149184
      py      :     1.109364
      dz2     :     0.006191  d :     0.062694
      dxz     :     0.017280
      dyz     :     0.018813
      dx2y2   :     0.018073
      dxy     :     0.002338
 34 H s       :     0.840898  s :     0.840898
 35 H s       :     0.833695  s :     0.833695
 36 H s       :     0.847411  s :     0.847411
 37 H s       :     0.813869  s :     0.813869
 38 H s       :     0.814814  s :     0.814814


                      *****************************
                      * MAYER POPULATION ANALYSIS *
                      *****************************

  NA   - Mulliken gross atomic population
  ZA   - Total nuclear charge
  QA   - Mulliken gross atomic charge
  VA   - Mayer's total valence
  BVA  - Mayer's bonded valence
  FA   - Mayer's free valence

  ATOM       NA         ZA         QA         VA         BVA        FA
  0 Ir    16.3886    17.0000     0.6114     3.7443     3.7443    -0.0000
  1 C      6.2105     6.0000    -0.2105     3.7010     3.7010     0.0000
  2 C      6.2866     6.0000    -0.2866     3.7421     3.7421    -0.0000
  3 C      6.2376     6.0000    -0.2376     3.7335     3.7335     0.0000
  4 C      6.2467     6.0000    -0.2467     3.7229     3.7229     0.0000
  5 C      6.1645     6.0000    -0.1645     3.6939     3.6939     0.0000
  6 N      7.4243     7.0000    -0.4243     3.2168     3.2168     0.0000
  7 C      6.1214     6.0000    -0.1214     3.6978     3.6978     0.0000
  8 C      6.6919     6.0000    -0.6919     3.6860     3.6860     0.0000
  9 H      0.7277     1.0000     0.2723     0.8965     0.8965     0.0000
 10 H      0.7750     1.0000     0.2250     0.9099     0.9099    -0.0000
 11 H      0.7389     1.0000     0.2611     0.8973     0.8973    -0.0000
 12 C      6.6378     6.0000    -0.6378     3.6729     3.6729     0.0000
 13 H      0.7171     1.0000     0.2829     0.8749     0.8749    -0.0000
 14 H      0.7357     1.0000     0.2643     0.8967     0.8967     0.0000
 15 H      0.7693     1.0000     0.2307     0.9096     0.9096     0.0000
 16 H      0.7672     1.0000     0.2328     0.9056     0.9056    -0.0000
 17 C      5.9289     6.0000     0.0711     3.6333     3.6333    -0.0000
 18 C      6.1810     6.0000    -0.1810     3.7112     3.7112     0.0000
 19 H      0.7079     1.0000     0.2921     0.8857     0.8857     0.0000
 20 C      6.4697     6.0000    -0.4697     3.4625     3.4625    -0.0000
 21 C      6.1223     6.0000    -0.1223     3.7424     3.7424    -0.0000
 22 S     15.6906    16.0000     0.3094     2.5820     2.5820    -0.0000
 23 C      6.4329     6.0000    -0.4329     3.7446     3.7446    -0.0000
 24 H      0.5020     1.0000     0.4980     0.7427     0.7427    -0.0000
 25 H      0.7319     1.0000     0.2681     0.9023     0.9023     0.0000
 26 H      0.7015     1.0000     0.2985     0.8970     0.8970    -0.0000
 27 H      0.7092     1.0000     0.2908     0.9021     0.9021     0.0000
 28 H      0.7083     1.0000     0.2917     0.9054     0.9054     0.0000
 29 H      0.6940     1.0000     0.3060     0.8920     0.8920     0.0000
 30 O      8.4772     8.0000    -0.4772     2.1284     2.1284    -0.0000
 31 O      8.5405     8.0000    -0.5405     2.0727     2.0727     0.0000
 32 C      5.3869     6.0000     0.6131     3.9244     3.9244    -0.0000
 33 C      6.7449     6.0000    -0.7449     3.6696     3.6696     0.0000
 34 H      0.7314     1.0000     0.2686     0.8957     0.8957     0.0000
 35 H      0.7349     1.0000     0.2651     0.8959     0.8959     0.0000
 36 H      0.7482     1.0000     0.2518     0.9015     0.9015     0.0000
 37 H      0.7083     1.0000     0.2917     0.9028     0.9028     0.0000
 38 H      0.7066     1.0000     0.2934     0.9037     0.9037     0.0000

  Mayer bond orders larger than 0.100000
B(  0-Ir,  1-C ) :   0.4177 B(  0-Ir,  2-C ) :   0.5170 B(  0-Ir,  3-C ) :   0.4619 
B(  0-Ir,  4-C ) :   0.4484 B(  0-Ir,  5-C ) :   0.4007 B(  0-Ir,  6-N ) :   0.4612 
B(  0-Ir, 20-C ) :   0.2771 B(  0-Ir, 31-O ) :   0.5821 B(  1-C ,  2-C ) :   1.1212 
B(  1-C ,  4-C ) :   1.2452 B(  1-C , 27-H ) :   0.9036 B(  2-C ,  5-C ) :   1.1402 
B(  2-C , 28-H ) :   0.9079 B(  3-C ,  4-C ) :   1.1067 B(  3-C ,  5-C ) :   1.2297 
B(  3-C , 37-H ) :   0.9054 B(  4-C , 38-H ) :   0.8998 B(  5-C , 29-H ) :   0.8980 
B(  6-N ,  7-C ) :   0.8917 B(  6-N , 17-C ) :   1.6904 B(  7-C ,  8-C ) :   0.9917 
B(  7-C , 12-C ) :   0.9686 B(  7-C , 13-H ) :   0.8714 B(  8-C ,  9-H ) :   0.9036 
B(  8-C , 10-H ) :   0.9127 B(  8-C , 11-H ) :   0.9081 B( 12-C , 14-H ) :   0.9064 
B( 12-C , 15-H ) :   0.9155 B( 12-C , 16-H ) :   0.9115 B( 17-C , 18-C ) :   1.0565 
B( 17-C , 19-H ) :   0.8742 B( 18-C , 20-C ) :   1.2811 B( 18-C , 22-S ) :   1.2393 
B( 20-C , 21-C ) :   1.2566 B( 20-C , 24-H ) :   0.4774 B( 21-C , 23-C ) :   1.5522 
B( 21-C , 25-H ) :   0.9036 B( 22-S , 23-C ) :   1.2004 B( 23-C , 26-H ) :   0.8917 
B( 24-H , 30-O ) :   0.2411 B( 30-O , 32-C ) :   1.7013 B( 31-O , 32-C ) :   1.2725 
B( 32-C , 33-C ) :   0.9455 B( 33-C , 34-H ) :   0.9055 B( 33-C , 35-H ) :   0.8995 
B( 33-C , 36-H ) :   0.9099 


------------------
HIRSHFELD ANALYSIS
------------------

Total integrated alpha density =     82.000667743
Total integrated beta density  =     82.000667743

  ATOM     CHARGE      SPIN    
   0 Ir   0.200154    0.000000
   1 C    0.007114    0.000000
   2 C   -0.001154    0.000000
   3 C   -0.000281    0.000000
   4 C   -0.005658    0.000000
   5 C    0.018921    0.000000
   6 N   -0.064612    0.000000
   7 C    0.054139    0.000000
   8 C   -0.070969    0.000000
   9 H    0.054115    0.000000
  10 H    0.037675    0.000000
  11 H    0.043991    0.000000
  12 C   -0.070269    0.000000
  13 H    0.047171    0.000000
  14 H    0.051687    0.000000
  15 H    0.036562    0.000000
  16 H    0.030821    0.000000
  17 C    0.101164    0.000000
  18 C   -0.000102    0.000000
  19 H    0.079195    0.000000
  20 C   -0.067849    0.000000
  21 C   -0.028241    0.000000
  22 S    0.129964    0.000000
  23 C   -0.027053    0.000000
  24 H    0.062534    0.000000
  25 H    0.070810    0.000000
  26 H    0.078146    0.000000
  27 H    0.083595    0.000000
  28 H    0.084963    0.000000
  29 H    0.094557    0.000000
  30 O   -0.262934    0.000000
  31 O   -0.260864    0.000000
  32 C    0.239565    0.000000
  33 C   -0.068346    0.000000
  34 H    0.053714    0.000000
  35 H    0.058412    0.000000
  36 H    0.047589    0.000000
  37 H    0.084562    0.000000
  38 H    0.075878    0.000000

  TOTAL   0.998665    0.000000

-------
TIMINGS
-------

Total SCF time: 0 days 0 hours 5 min 8 sec 

Total time                  ....     308.088 sec
Sum of individual times     ....     305.159 sec  ( 99.0%)

Fock matrix formation       ....     296.787 sec  ( 96.3%)
  Split-RI-J                ....      21.492 sec  (  7.2% of F)
  Chain of spheres X        ....     259.431 sec  ( 87.4% of F)
  XC integration            ....      15.861 sec  (  5.3% of F)
    Basis function eval.    ....       7.532 sec  ( 47.5% of XC)
    Density eval.           ....       4.247 sec  ( 26.8% of XC)
    XC-Functional eval.     ....       1.183 sec  (  7.5% of XC)
    XC-Potential eval.      ....       2.316 sec  ( 14.6% of XC)
Diagonalization             ....       0.242 sec  (  0.1%)
Density matrix formation    ....       0.038 sec  (  0.0%)
Population analysis         ....       1.494 sec  (  0.5%)
Initial guess               ....       0.028 sec  (  0.0%)
Orbital Transformation      ....       0.000 sec  (  0.0%)
Orbital Orthonormalization  ....       0.022 sec  (  0.0%)
DIIS solution               ....       0.094 sec  (  0.0%)
Grid generation             ....       6.475 sec  (  2.1%)

Maximum memory used throughout the entire SCF-calculation: 173.8 MB


-------------------------------------------------------------------------------
                          DFT DISPERSION CORRECTION                            
                                                                               
                              DFTD3 V3.1  Rev 1                                
                          USING Becke-Johnson damping                          
-------------------------------------------------------------------------------
The PBEh-3c composite method is recognized
Using three-body term ABC
Active option DFTDOPT                   ...         4   

molecular C6(AA) [au] = 19549.279027 


            DFT-D V3
 parameters
 s6 scaling factor         :     1.0000 
 a1 scaling factor         :     0.4860 
 s8 scaling factor         :     0.0000 
 a2 scaling factor         :     4.5000 
 Damping factor alpha9(ATM):    16.0000 
 ad hoc parameters k1-k3   :    16.0000     1.3333    -4.0000 

 Edisp/kcal,au: -19.409847026069  -0.030931556826 
 E6   /kcal   : -19.759435830 
 E8   /kcal   :  -0.000000000 
 E6(ABC)      :   0.349588804 
 % E8         :   0.000000000 
 % E6(ABC)    :  -1.801089949 

-------------------------   ----------------
Dispersion correction           -0.030931557
-------------------------   ----------------

 ** NOTE ** -> element ir will be treated as co
NOTIFICATION: Different basis set in ORCA and otool_gcp:
ORCA: 358  gCP: 357 
If you are NOT using ECPs, check your basis set inputs!
------------------   -----------------
gCP correction             0.078714838
------------------   -----------------

-------------------------   --------------------
FINAL SINGLE POINT ENERGY     -1288.399787129325
-------------------------   --------------------

                                *** OPTIMIZATION RUN DONE ***

                            ***************************************
                            *     ORCA property calculations      *
                            ***************************************

                                    ---------------------
                                    Active property flags
                                    ---------------------
   (+) Dipole Moment


------------------------------------------------------------------------------
                       ORCA ELECTRIC PROPERTIES CALCULATION
------------------------------------------------------------------------------

Dipole Moment Calculation                       ... on
Quadrupole Moment Calculation                   ... off
Polarizability Calculation                      ... off
GBWName                                         ... reaction4-IEIP_ts_guess_scan_5-3_orca.gbw
Electron density                                ... reaction4-IEIP_ts_guess_scan_5-3_orca.scfp
The origin for moment calculation is the CENTER OF MASS  = ( 0.858654, -0.617476 -0.150150)

-------------
DIPOLE MOMENT
-------------
                                X             Y             Z
Electronic contribution:     36.66160     -67.25698      71.70395
Nuclear contribution   :    -37.29054      66.03171     -72.06982
                        -----------------------------------------
Total Dipole Moment    :     -0.62893      -1.22527      -0.36587
                        -----------------------------------------
Magnitude (a.u.)       :      1.42503
Magnitude (Debye)      :      3.62213



--------------------
Rotational spectrum 
--------------------
 
Rotational constants in cm-1:     0.010718     0.009131     0.008264 
Rotational constants in MHz :   321.330142   273.726631   247.743026 

 Dipole components along the rotational axes: 
x,y,z [a.u.] :    -0.350595    -0.399876     1.322074 
x,y,z [Debye]:    -0.891142    -1.016404     3.360446 

 

Timings for individual modules:

Sum of individual times         ...     6054.952 sec (= 100.916 min)
GTO integral calculation        ...       19.200 sec (=   0.320 min)   0.3 %
SCF iterations                  ...     4865.593 sec (=  81.093 min)  80.4 %
SCF Gradient evaluation         ...     1166.540 sec (=  19.442 min)  19.3 %
Geometry relaxation             ...        3.620 sec (=   0.060 min)   0.1 %
                             ****ORCA TERMINATED NORMALLY****
TOTAL RUN TIME: 0 days 1 hours 40 minutes 59 seconds 995 msec
