
                                 *****************
                                 * O   R   C   A *
                                 *****************

                                            #,                                       
                                            ###                                      
                                            ####                                     
                                            #####                                    
                                            ######                                   
                                           ########,                                 
                                     ,,################,,,,,                         
                               ,,#################################,,                 
                          ,,##########################################,,             
                       ,#########################################, ''#####,          
                    ,#############################################,,   '####,        
                  ,##################################################,,,,####,       
                ,###########''''           ''''###############################       
              ,#####''   ,,,,##########,,,,          '''####'''          '####       
            ,##' ,,,,###########################,,,                        '##       
           ' ,,###''''                  '''############,,,                           
         ,,##''                                '''############,,,,        ,,,,,,###''
      ,#''                                            '''#######################'''  
     '                                                          ''''####''''         
             ,#######,   #######,   ,#######,      ##                                
            ,#'     '#,  ##    ##  ,#'     '#,    #''#        ######   ,####,        
            ##       ##  ##   ,#'  ##            #'  '#       #        #'  '#        
            ##       ##  #######   ##           ,######,      #####,   #    #        
            '#,     ,#'  ##    ##  '#,     ,#' ,#      #,         ##   #,  ,#        
             '#######'   ##     ##  '#######'  #'      '#     #####' # '####'        



                  #######################################################
                  #                        -***-                        #
                  #          Department of theory and spectroscopy      #
                  #    Directorship and core code : Frank Neese         #
                  #        Max Planck Institute fuer Kohlenforschung    #
                  #                Kaiser Wilhelm Platz 1               #
                  #                 D-45470 Muelheim/Ruhr               #
                  #                      Germany                        #
                  #                                                     #
                  #                  All rights reserved                #
                  #                        -***-                        #
                  #######################################################


                         Program Version 5.0.3 -  RELEASE  -


 With contributions from (in alphabetic order):
   Daniel Aravena         : Magnetic Suceptibility
   Michael Atanasov       : Ab Initio Ligand Field Theory (pilot matlab implementation)
   Alexander A. Auer      : GIAO ZORA, VPT2 properties, NMR spectrum
   Ute Becker             : Parallelization
   Giovanni Bistoni       : ED, misc. LED, open-shell LED, HFLD
   Martin Brehm           : Molecular dynamics
   Dmytro Bykov           : SCF Hessian
   Vijay G. Chilkuri      : MRCI spin determinant printing, contributions to CSF-ICE
   Dipayan Datta          : RHF DLPNO-CCSD density
   Achintya Kumar Dutta   : EOM-CC, STEOM-CC
   Dmitry Ganyushin       : Spin-Orbit,Spin-Spin,Magnetic field MRCI
   Miquel Garcia          : C-PCM and meta-GGA Hessian, CC/C-PCM, Gaussian charge scheme
   Yang Guo               : DLPNO-NEVPT2, F12-NEVPT2, CIM, IAO-localization
   Andreas Hansen         : Spin unrestricted coupled pair/coupled cluster methods
   Benjamin Helmich-Paris : MC-RPA, TRAH-SCF, COSX integrals
   Lee Huntington         : MR-EOM, pCC
   Robert Izsak           : Overlap fitted RIJCOSX, COSX-SCS-MP3, EOM
   Marcus Kettner         : VPT2
   Christian Kollmar      : KDIIS, OOCD, Brueckner-CCSD(T), CCSD density, CASPT2, CASPT2-K
   Simone Kossmann        : Meta GGA functionals, TD-DFT gradient, OOMP2, MP2 Hessian
   Martin Krupicka        : Initial AUTO-CI
   Lucas Lang             : DCDCAS
   Marvin Lechner         : AUTO-CI (C++ implementation), FIC-MRCC
   Dagmar Lenk            : GEPOL surface, SMD
   Dimitrios Liakos       : Extrapolation schemes; Compound Job, initial MDCI parallelization
   Dimitrios Manganas     : Further ROCIS development; embedding schemes
   Dimitrios Pantazis     : SARC Basis sets
   Anastasios Papadopoulos: AUTO-CI, single reference methods and gradients
   Taras Petrenko         : DFT Hessian,TD-DFT gradient, ASA, ECA, R-Raman, ABS, FL, XAS/XES, NRVS
   Peter Pinski           : DLPNO-MP2, DLPNO-MP2 Gradient
   Christoph Reimann      : Effective Core Potentials
   Marius Retegan         : Local ZFS, SOC
   Christoph Riplinger    : Optimizer, TS searches, QM/MM, DLPNO-CCSD(T), (RO)-DLPNO pert. Triples
   Tobias Risthaus        : Range-separated hybrids, TD-DFT gradient, RPA, STAB
   Michael Roemelt        : Original ROCIS implementation
   Masaaki Saitow         : Open-shell DLPNO-CCSD energy and density
   Barbara Sandhoefer     : DKH picture change effects
   Avijit Sen             : IP-ROCIS
   Kantharuban Sivalingam : CASSCF convergence, NEVPT2, FIC-MRCI
   Bernardo de Souza      : ESD, SOC TD-DFT
   Georgi Stoychev        : AutoAux, RI-MP2 NMR, DLPNO-MP2 response
   Willem Van den Heuvel  : Paramagnetic NMR
   Boris Wezisla          : Elementary symmetry handling
   Frank Wennmohs         : Technical directorship


 We gratefully acknowledge several colleagues who have allowed us to
 interface, adapt or use parts of their codes:
   Stefan Grimme, W. Hujo, H. Kruse, P. Pracht,  : VdW corrections, initial TS optimization,
                  C. Bannwarth, S. Ehlert          DFT functionals, gCP, sTDA/sTD-DF
   Ed Valeev, F. Pavosevic, A. Kumar             : LibInt (2-el integral package), F12 methods
   Garnet Chan, S. Sharma, J. Yang, R. Olivares  : DMRG
   Ulf Ekstrom                                   : XCFun DFT Library
   Mihaly Kallay                                 : mrcc  (arbitrary order and MRCC methods)
   Jiri Pittner, Ondrej Demel                    : Mk-CCSD
   Frank Weinhold                                : gennbo (NPA and NBO analysis)
   Christopher J. Cramer and Donald G. Truhlar   : smd solvation model
   Lars Goerigk                                  : TD-DFT with DH, B97 family of functionals
   V. Asgeirsson, H. Jonsson                     : NEB implementation
   FAccTs GmbH                                   : IRC, NEB, NEB-TS, DLPNO-Multilevel, CI-OPT
                                                   MM, QMMM, 2- and 3-layer-ONIOM, Crystal-QMMM,
                                                   LR-CPCM, SF, NACMEs, symmetry and pop. for TD-DFT,
                                                   nearIR, NL-DFT gradient (VV10), updates on ESD,
                                                   ML-optimized integration grids
   S Lehtola, MJT Oliveira, MAL Marques          : LibXC Library
   Liviu Ungur et al                             : ANISO software


 Your calculation uses the libint2 library for the computation of 2-el integrals
 For citations please refer to: http://libint.valeyev.net

 Your ORCA version has been built with support for libXC version: 5.1.0
 For citations please refer to: https://tddft.org/programs/libxc/

 This ORCA versions uses:
   CBLAS   interface :  Fast vector & matrix operations
   LAPACKE interface :  Fast linear algebra routines
   SCALAPACK package :  Parallel linear algebra routines
   Shared memory     :  Shared parallel matrices
   BLAS/LAPACK       :  OpenBLAS 0.3.15  USE64BITINT DYNAMIC_ARCH NO_AFFINITY SkylakeX SINGLE_THREADED
        Core in use  :  SkylakeX
   Copyright (c) 2011-2014, The OpenBLAS Project


Your calculation utilizes the geometrical counterpoise correction gCP
Please cite in your paper:
H.Kruse, S. Grimme J.Chem.Phys., 136, (2012), 154101 
   

Your calculation utilizes the atom-pairwise dispersion correction
with the Becke-Johnson damping scheme (D3BJ)
Cite in your paper:
S.Grimme, S.Ehrlich, L.Goerigk, J Comput Chem, (2011), 32, 1456–1465 
S.Grimme, J.Antony, S.Ehrlich and H.Krieg, J.Chem.Phys., 132, (2010), 154104 
   

Your calculation employs the composite approach PBEh-3c.
Please cite in your paper:
S. Grimme, J. G. Brandenburg, C. Bannwarth, A. Hansen J.Chem.Phys., 143, (2015), 054107 
   

================================================================================

cite the ECPs for Ir [Def2-ECP] as follows:
Ce-Yb(ecp-28): M. Dolg, H. Stoll, H.Preuss, J. Chem. Phys., 1989, 90, 1730-1734.
Y-Cd(ecp-28), Hf-Hg(ecp-46): D. Andrae,U. Haeussermann, M. Dolg, H. Stoll, H. Preuss, Theor. Chim. Acta, 1990, 77, 123-141.
In-Sb(ecp-28), Tl-Bi(ecp-46): B. Metz, H. Stoll, M. Dolg, J. Chem. Phys., 2000, 113, 2563-2569.
Te-Xe(ecp-28), Po-Rn(ecp-46): K. A. Peterson, D. Figgen, E. Goll, H. Stoll, M. Dolg, J. Chem. Phys., 2003, 119, 11113-11123.
Rb(ecp-28), Cs(ecp-46): T. Leininger, A. Nicklass, W. Kuechle, H. Stoll, M. Dolg, A. Bergner, Chem. Phys. Lett., 1996, 255, 274-280.
Sr(ecp-28), Ba(ecp-46): M. Kaupp, P. V. Schleyer, H. Stoll and H. Preuss, J. Chem. Phys., 1991, 94, 1360-1366.
La(ecp-46): M. Dolg, H. Stoll, A. Savin, H. Preuss, Theor. Chim. Acta, 1989, 75, 173-194.
Lu(ecp-28): X. Cao, M. Dolg, J. Chem. Phys., 2001, 115, 7348-7355.

ECP parameters for Ir [Def2-ECP] have been obtained from:
TURBOMOLE (7.0.2)

----- Orbital basis set information -----
Your calculation utilizes the basis: def2-mSVP

----- AuxJ basis set information -----
Your calculation utilizes the auxiliary basis: def2/J
   F. Weigend, Phys. Chem. Chem. Phys. 8, 1057 (2006).

================================================================================
                                        WARNINGS
                       Please study these warnings very carefully!
================================================================================


WARNING: Geometry Optimization
  ===> : Switching off AutoStart
         For restart on a previous wavefunction, please use MOREAD

WARNING: No Hueckel Guess possible with ECP basis!
  ===> : Switching to HCORE guess!

INFO   : the flag for use of the SHARK integral package has been found!

================================================================================
                                       INPUT FILE
================================================================================
NAME = reaction4-IEIP_ts_guess_scan_1-5_orca.inp
|  1> ! Opt PBEh-3c
|  2> %geom Constraints
|  3> { B 0 20 2.5571428571428574 C }
|  4> { B 24 30 1.4285714285714286 C }
|  5>     end
|  6> end
|  7> %output 
|  8> xyzfile=True 
|  9> end 
| 10> %scf 
| 11> maxiter 250 
| 12> end
| 13> %output
| 14> Print[P_Hirshfeld] = 1
| 15> end
| 16> % maxcore
| 17> 4000
| 18> *xyz 1 1
| 19> Ir   0.57330541  -0.73319431   0.48215342 
| 20> C    0.02019983  -2.81149498   0.34213434 
| 21> C    0.11027351  -2.37257144   1.71507702 
| 22> C    2.18891275  -2.14661624   0.75598521 
| 23> C    1.28098582  -2.64219796  -0.25470561 
| 24> C    1.48111221  -2.02249883   1.96298719 
| 25> N   -1.04028663   0.17537122  -0.51053575 
| 26> C   -2.31403846   0.51750549   0.14204588 
| 27> C   -3.13210978   1.54605477  -0.62141046 
| 28> H   -3.96700673   1.86324768   0.00181640 
| 29> H   -3.56455921   1.14782573  -1.54076303 
| 30> H   -2.55137306   2.43728826  -0.86144195 
| 31> C   -3.11250827  -0.75367677   0.40285708 
| 32> H   -2.02474027   0.94969964   1.10157810 
| 33> H   -4.02881599  -0.50556260   0.93626404 
| 34> H   -3.39347970  -1.24397663  -0.53021926 
| 35> H   -2.56420121  -1.46469161   1.01936895 
| 36> C   -0.82298587   0.37709535  -1.75161026 
| 37> C    0.53085650   0.14766883  -2.21476075 
| 38> H   -1.59582529   0.73784257  -2.42461316 
| 39> C    1.64389988   0.56789630  -1.49799575 
| 40> C    2.84026706   0.14168304  -2.14257775 
| 41> S    0.93891170  -0.69058763  -3.64960287 
| 42> C    2.61277552  -0.53706707  -3.29847832 
| 43> H    1.55173367   1.41944105  -0.69631383 
| 44> H    3.83140524   0.37853083  -1.78395626 
| 45> H    3.34172725  -0.94109279  -3.98466965 
| 46> H   -0.87299050  -3.16713199  -0.15108384 
| 47> H   -0.67521935  -2.41213128   2.45572276 
| 48> H    1.87433147  -1.64226512   2.89484132 
| 49> O    1.28080100   2.44947194   0.27706614 
| 50> O    0.54090960   0.89108729   1.69301504 
| 51> C    0.89580702   2.09815787   1.38738121 
| 52> C    0.83495382   3.06866269   2.53374451 
| 53> H    0.78212721   4.09045078   2.16790543 
| 54> H    1.74431576   2.97389408   3.13041743 
| 55> H   -0.00565837   2.86469822   3.19379815 
| 56> H    3.23169665  -1.90975298   0.60418688 
| 57> H    1.53385980  -2.84787337  -1.28486789 
| 58> *
| 59> 
| 60>                          ****END OF INPUT****
================================================================================

                       *****************************
                       * Geometry Optimization Run *
                       *****************************

Geometry optimization settings:
Update method            Update   .... BFGS
Choice of coordinates    CoordSys .... Z-matrix Internals
Initial Hessian          InHess   .... Almoef's Model

Convergence Tolerances:
Energy Change            TolE     ....  5.0000e-06 Eh
Max. Gradient            TolMAXG  ....  3.0000e-04 Eh/bohr
RMS Gradient             TolRMSG  ....  1.0000e-04 Eh/bohr
Max. Displacement        TolMAXD  ....  4.0000e-03 bohr
RMS Displacement         TolRMSD  ....  2.0000e-03 bohr
Strict Convergence                ....  False
------------------------------------------------------------------------------
                        ORCA OPTIMIZATION COORDINATE SETUP
------------------------------------------------------------------------------

The optimization will be done in new redundant internal coordinates
Making redundant internal coordinates   ...  (new redundants) done
Evaluating the initial hessian          ...  (Almloef) done
Evaluating the coordinates              ...  done
Calculating the B-matrix                .... done
Calculating the G-matrix                .... done
Diagonalizing the G-matrix              .... done
Imposing constraints:
 Iter   0:  RMS(Cart)=    0.0240737980 RMS(Int)=    0.0026272006
 Iter   1:  RMS(Cart)=    0.0010690303 RMS(Int)=    0.0001298211
 Iter   2:  RMS(Cart)=    0.0000520444 RMS(Int)=    0.0000062139
 Iter   3:  RMS(Cart)=    0.0000024512 RMS(Int)=    0.0000002885
 Iter   4:  RMS(Cart)=    0.0000001124 RMS(Int)=    0.0000000131
 Iter   5:  RMS(Cart)=    0.0000000051 RMS(Int)=    0.0000000006
CONVERGED
Small eigenvalue found = 1.218e-02
Small eigenvalue found = 1.562e-02
Small eigenvalue found = 2.184e-02
Small eigenvalue found = 2.391e-02
Small eigenvalue found = 2.938e-02
The first mode is                       ....  227
The number of degrees of freedom        ....  111
Storing new coordinates                 .... done

    -----------------------------------------------------------------
                    Redundant Internal Coordinates


    -----------------------------------------------------------------
         Definition                    Initial Value    Approx d2E/dq
    -----------------------------------------------------------------
      1. B(C   1,Ir  0)                  2.1552         0.087472   
      2. B(C   2,C   1)                  1.4442         0.511979   
      3. B(C   2,Ir  0)                  2.1029         0.106011   
      4. B(C   3,Ir  0)                  2.1640         0.084685   
      5. B(C   4,Ir  0)                  2.1652         0.084317   
      6. B(C   4,C   3)                  1.4462         0.508290   
      7. B(C   4,C   1)                  1.4052         0.590962   
      8. B(C   5,Ir  0)                  2.1632         0.084948   
      9. B(C   5,C   2)                  1.4364         0.526903   
     10. B(C   5,C   3)                  1.4048         0.591906   
     11. B(N   6,Ir  0)                  2.1006         0.095569   
     12. B(C   7,N   6)                  1.4715         0.414782   
     13. B(C   8,C   7)                  1.5199         0.387732   
     14. B(H   9,C   8)                  1.0891         0.361331   
     15. B(H  10,C   8)                  1.0912         0.358461   
     16. B(H  11,C   8)                  1.0905         0.359453   
     17. B(C  12,C   7)                  1.5236         0.382405   
     18. B(H  13,C   7)                  1.0914         0.358233   
     19. B(H  14,C  12)                  1.0889         0.361558   
     20. B(H  15,C  12)                  1.0909         0.358967   
     21. B(H  16,C  12)                  1.0892         0.361213   
     22. B(C  17,N   6)                  1.2743         0.850656   
     23. B(C  18,C  17)                  1.4482         0.502770   
     24. B(H  19,C  17)                  1.0865         0.364840   
     25. B(C  20,C  18)                  1.3887         0.627189   
     26. B(C  20,Ir  0)                  2.5571         0.017069 C 
     27. B(C  21,C  20)                  1.4244         0.550964   
     28. B(S  22,C  18)                  1.7111         0.517808   
     29. B(C  23,C  21)                  1.3598         0.698573   
     30. B(C  23,S  22)                  1.7174         0.506437   
     31. B(H  24,C  20)                  1.1730         0.265301   
     32. B(H  25,C  21)                  1.0804         0.373155   
     33. B(H  26,C  23)                  1.0796         0.374169   
     34. B(H  27,C   1)                  1.0805         0.372857   
     35. B(H  28,C   2)                  1.0804         0.373118   
     36. B(H  29,C   5)                  1.0805         0.372844   
     37. B(O  30,H  24)                  1.4286         0.088226 C 
     38. B(O  31,Ir  0)                  2.0264         0.125833   
     39. B(C  32,O  30)                  1.2265         1.020091   
     40. B(C  32,O  31)                  1.2948         0.794030   
     41. B(C  33,C  32)                  1.5033         0.412165   
     42. B(H  34,C  33)                  1.0866         0.364638   
     43. B(H  35,C  33)                  1.0918         0.357780   
     44. B(H  36,C  33)                  1.0881         0.362659   
     45. B(H  37,C   3)                  1.0801         0.373482   
     46. B(H  38,C   4)                  1.0805         0.372888   
     47. A(C   2,Ir  0,O  31)          105.7219         0.268967   
     48. A(C   1,Ir  0,O  31)          143.8733         0.261305   
     49. A(C   5,Ir  0,N   6)          154.6160         0.249834   
     50. A(C   1,Ir  0,C   3)           64.5322         0.247668   
     51. A(C   1,Ir  0,C   5)           65.0031         0.247779   
     52. A(C   3,Ir  0,O  31)          117.3785         0.260047   
     53. A(C   3,Ir  0,N   6)          156.2891         0.249721   
     54. A(C   2,Ir  0,C   5)           39.3204         0.254840   
     55. A(C   3,Ir  0,C   4)           39.0300         0.246354   
     56. A(C   2,Ir  0,C   4)           65.4293         0.254560   
     57. A(C   5,Ir  0,O  31)           94.3206         0.260167   
     58. A(C   4,Ir  0,N   6)          118.1307         0.249563   
     59. A(C   1,Ir  0,C   2)           39.6296         0.255943   
     60. A(C   4,Ir  0,C   5)           64.5528         0.246465   
     61. A(C   4,Ir  0,O  31)          156.2580         0.259878   
     62. A(C   1,Ir  0,N   6)          100.9057         0.250904   
     63. A(C   2,Ir  0,C   3)           65.2301         0.254724   
     64. A(C   2,Ir  0,N   6)          116.4236         0.258103   
     65. A(C   1,Ir  0,C   4)           37.9609         0.247512   
     66. A(N   6,Ir  0,O  31)           85.6099         0.263535   
     67. A(C   3,Ir  0,C   5)           37.8865         0.246620   
     68. A(Ir  0,C   1,H  27)          123.9993         0.270034   
     69. A(C   2,C   1,C   4)          108.1324         0.415866   
     70. A(Ir  0,C   1,C   4)           71.4057         0.321312   
     71. A(C   4,C   1,H  27)          125.9782         0.352124   
     72. A(Ir  0,C   1,C   2)           68.2331         0.313890   
     73. A(C   2,C   1,H  27)          125.8394         0.343717   
     74. A(C   5,C   2,H  28)          125.7679         0.345420   
     75. A(Ir  0,C   2,C   5)           72.6060         0.325423   
     76. A(C   1,C   2,C   5)          107.3174         0.407487   
     77. A(Ir  0,C   2,C   1)           72.1373         0.323890   
     78. A(Ir  0,C   2,H  28)          126.2002         0.278115   
     79. A(C   1,C   2,H  28)          126.5319         0.343758   
     80. A(Ir  0,C   3,H  37)          124.0420         0.268781   
     81. A(C   4,C   3,C   5)          108.3279         0.415449   
     82. A(C   4,C   3,H  37)          125.6660         0.343397   
     83. A(Ir  0,C   3,C   4)           70.5282         0.311883   
     84. A(Ir  0,C   3,C   5)           71.0246         0.319699   
     85. A(C   5,C   3,H  37)          126.0057         0.352319   
     86. A(Ir  0,C   4,C   1)           70.6335         0.319389   
     87. A(Ir  0,C   4,H  38)          124.6656         0.268539   
     88. A(C   1,C   4,H  38)          126.3015         0.352129   
     89. A(C   3,C   4,H  38)          125.7753         0.343306   
     90. A(Ir  0,C   4,C   3)           70.4418         0.311663   
     91. A(C   1,C   4,C   3)          107.9229         0.415331   
     92. A(Ir  0,C   5,H  29)          122.2338         0.268837   
     93. A(C   3,C   5,H  29)          126.0680         0.352217   
     94. A(C   2,C   5,H  29)          125.5847         0.345377   
     95. A(Ir  0,C   5,C   3)           71.0889         0.319861   
     96. A(C   2,C   5,C   3)          108.1226         0.418117   
     97. A(Ir  0,C   5,C   2)           68.0736         0.313862   
     98. A(Ir  0,N   6,C  17)          112.9210         0.342439   
     99. A(C   7,N   6,C  17)          123.0551         0.421892   
    100. A(Ir  0,N   6,C   7)          124.0057         0.304413   
    101. A(N   6,C   7,C   8)          113.6087         0.369970   
    102. A(N   6,C   7,C  12)          109.6066         0.369092   
    103. A(C   8,C   7,C  12)          111.6239         0.367138   
    104. A(N   6,C   7,H  13)          104.6263         0.327695   
    105. A(C   8,C   7,H  13)          108.4400         0.326029   
    106. A(C  12,C   7,H  13)          108.5901         0.325288   
    107. A(C   7,C   8,H  11)          112.1480         0.326212   
    108. A(H   9,C   8,H  11)          107.2289         0.290913   
    109. A(H  10,C   8,H  11)          108.8960         0.290549   
    110. A(C   7,C   8,H   9)          108.8005         0.326492   
    111. A(C   7,C   8,H  10)          112.9257         0.326063   
    112. A(H   9,C   8,H  10)          106.5349         0.290787   
    113. A(C   7,C  12,H  14)          109.5569         0.325783   
    114. A(C   7,C  12,H  15)          111.3184         0.325398   
    115. A(H  14,C  12,H  15)          107.7385         0.290880   
    116. A(C   7,C  12,H  16)          112.1922         0.325732   
    117. A(H  14,C  12,H  16)          107.1632         0.291165   
    118. A(H  15,C  12,H  16)          108.6888         0.290836   
    119. A(N   6,C  17,C  18)          115.8873         0.439592   
    120. A(N   6,C  17,H  19)          122.5264         0.370995   
    121. A(C  18,C  17,H  19)          121.5465         0.341428   
    122. A(C  17,C  18,C  20)          122.2266         0.418939   
    123. A(C  17,C  18,S  22)          124.7543         0.427113   
    124. A(C  20,C  18,S  22)          112.9957         0.444465   
    125. A(C  18,C  20,C  21)          110.4022         0.425846   
    126. A(C  18,C  20,H  24)          120.6264         0.335920   
    127. A(C  21,C  20,H  24)          126.3476         0.328783   
    128. A(C  20,C  21,H  25)          123.7000         0.348030   
    129. A(C  23,C  21,H  25)          123.0359         0.362328   
    130. A(C  20,C  21,C  23)          113.1800         0.434165   
    131. A(C  18,S  22,C  23)           90.9557         0.451445   
    132. A(C  21,C  23,H  26)          127.8919         0.362495   
    133. A(S  22,C  23,H  26)          119.6531         0.361145   
    134. A(C  21,C  23,S  22)          112.4371         0.451418   
    135. A(Ir  0,O  31,C  32)          127.0822         0.354548   
    136. A(O  30,C  32,O  31)          124.5491         0.490781   
    137. A(O  30,C  32,C  33)          121.1941         0.438240   
    138. A(O  31,C  32,C  33)          114.2399         0.418988   
    139. A(C  32,C  33,H  34)          110.6281         0.330296   
    140. A(C  32,C  33,H  35)          109.0872         0.329262   
    141. A(H  34,C  33,H  35)          107.8273         0.291116   
    142. A(C  32,C  33,H  36)          111.8934         0.329999   
    143. A(H  34,C  33,H  36)          110.0569         0.291737   
    144. A(H  35,C  33,H  36)          107.1987         0.290868   
    145. D(C   2,C   1,Ir  0,C   4)    119.2026         0.001711   
    146. D(C   2,C   1,Ir  0,C   5)     39.1716         0.001711   
    147. D(H  27,C   1,Ir  0,O  31)     98.4399         0.001711   
    148. D(C   4,C   1,Ir  0,C   2)   -119.2026         0.001711   
    149. D(C   2,C   1,Ir  0,O  31)    -20.9763         0.001711   
    150. D(H  27,C   1,Ir  0,C   3)   -159.3533         0.001711   
    151. D(C   4,C   1,Ir  0,O  31)   -140.1789         0.001711   
    152. D(H  27,C   1,Ir  0,C   2)    119.4162         0.001711   
    153. D(C   4,C   1,Ir  0,C   3)    -37.9721         0.001711   
    154. D(H  27,C   1,Ir  0,N   6)      0.8698         0.001711   
    155. D(C   2,C   1,Ir  0,C   3)     81.2305         0.001711   
    156. D(C   4,C   1,Ir  0,N   6)    122.2510         0.001711   
    157. D(H  27,C   1,Ir  0,C   4)   -121.3812         0.001711   
    158. D(H  27,C   1,Ir  0,C   5)    158.5878         0.001711   
    159. D(C   4,C   1,Ir  0,C   5)    -80.0309         0.001711   
    160. D(C   2,C   1,Ir  0,N   6)   -118.5464         0.001711   
    161. D(Ir  0,C   2,C   1,H  27)   -117.0225         0.020782   
    162. D(C   1,C   2,Ir  0,C   5)   -115.3840         0.001808   
    163. D(C   1,C   2,Ir  0,C   4)    -36.1856         0.001808   
    164. D(H  28,C   2,C   1,H  27)      5.2198         0.020782   
    165. D(H  28,C   2,C   1,Ir  0)    122.2423         0.020782   
    166. D(C   5,C   2,C   1,H  27)    178.4119         0.020782   
    167. D(C   1,C   2,Ir  0,C   3)    -79.3212         0.001808   
    168. D(H  28,C   2,Ir  0,C   4)   -158.8122         0.001808   
    169. D(H  28,C   2,Ir  0,C   5)    121.9893         0.001808   
    170. D(C   5,C   2,Ir  0,C   3)     36.0628         0.001808   
    171. D(C   5,C   2,Ir  0,C   1)    115.3840         0.001808   
    172. D(H  28,C   2,C   1,C   4)   -177.2331         0.020782   
    173. D(C   5,C   2,Ir  0,C   4)     79.1985         0.001808   
    174. D(C   5,C   2,C   1,Ir  0)    -64.5656         0.020782   
    175. D(H  28,C   2,Ir  0,N   6)    -48.2204         0.001808   
    176. D(H  28,C   2,Ir  0,O  31)     44.7078         0.001808   
    177. D(Ir  0,C   2,C   1,C   4)     60.5246         0.020782   
    178. D(C   5,C   2,C   1,C   4)     -4.0410         0.020782   
    179. D(C   1,C   2,Ir  0,N   6)     74.4063         0.001808   
    180. D(C   5,C   2,Ir  0,O  31)    -77.2815         0.001808   
    181. D(H  28,C   2,Ir  0,C   1)   -122.6267         0.001808   
    182. D(C   1,C   2,Ir  0,O  31)    167.3345         0.001808   
    183. D(H  28,C   2,Ir  0,C   3)    158.0521         0.001808   
    184. D(C   5,C   2,Ir  0,N   6)   -170.2096         0.001808   
    185. D(C   4,C   3,Ir  0,C   5)    118.3117         0.001697   
    186. D(C   4,C   3,Ir  0,C   1)     36.9422         0.001697   
    187. D(C   4,C   3,Ir  0,O  31)    176.4811         0.001697   
    188. D(C   4,C   3,Ir  0,C   2)     80.9086         0.001697   
    189. D(C   5,C   3,Ir  0,O  31)     58.1694         0.001697   
    190. D(C   5,C   3,Ir  0,C   2)    -37.4031         0.001697   
    191. D(C   4,C   3,Ir  0,N   6)    -18.7718         0.001697   
    192. D(H  37,C   3,Ir  0,C   4)    120.4955         0.001697   
    193. D(H  37,C   3,Ir  0,C   1)    157.4377         0.001697   
    194. D(C   5,C   3,Ir  0,C   1)    -81.3696         0.001697   
    195. D(C   5,C   3,Ir  0,C   4)   -118.3117         0.001697   
    196. D(C   5,C   3,Ir  0,N   6)   -137.0835         0.001697   
    197. D(H  37,C   3,Ir  0,C   5)   -121.1927         0.001697   
    198. D(H  37,C   3,Ir  0,N   6)    101.7237         0.001697   
    199. D(H  37,C   3,Ir  0,O  31)    -63.0234         0.001697   
    200. D(H  37,C   3,Ir  0,C   2)   -158.5959         0.001697   
    201. D(C   1,C   4,Ir  0,C   3)    118.1019         0.001696   
    202. D(H  38,C   4,C   3,H  37)      0.7132         0.020475   
    203. D(C   1,C   4,Ir  0,C   5)     81.3230         0.001696   
    204. D(C   1,C   4,Ir  0,N   6)    -70.3359         0.001696   
    205. D(C   1,C   4,Ir  0,O  31)    110.3219         0.001696   
    206. D(C   1,C   4,Ir  0,C   2)     37.7479         0.001696   
    207. D(C   3,C   4,Ir  0,C   1)   -118.1019         0.001696   
    208. D(H  38,C   4,C   3,C   5)   -179.5047         0.020475   
    209. D(C   3,C   4,Ir  0,C   5)    -36.7789         0.001696   
    210. D(C   3,C   4,Ir  0,N   6)    171.5622         0.001696   
    211. D(C   3,C   4,Ir  0,O  31)     -7.7800         0.001696   
    212. D(Ir  0,C   4,C   1,C   2)    -58.5421         0.028053   
    213. D(H  38,C   4,Ir  0,C   2)    159.0739         0.001696   
    214. D(H  38,C   4,Ir  0,C   3)   -120.5722         0.001696   
    215. D(H  38,C   4,C   1,C   2)   -177.8748         0.028053   
    216. D(H  38,C   4,Ir  0,N   6)     50.9900         0.001696   
    217. D(H  38,C   4,Ir  0,O  31)   -128.3522         0.001696   
    218. D(Ir  0,C   4,C   1,H  27)    119.0007         0.028053   
    219. D(C   3,C   4,C   1,Ir  0)     60.8809         0.028053   
    220. D(C   3,C   4,C   1,H  27)    179.8816         0.028053   
    221. D(H  38,C   4,C   1,Ir  0)   -119.3327         0.028053   
    222. D(H  38,C   4,Ir  0,C   5)   -157.3510         0.001696   
    223. D(H  38,C   4,C   1,H  27)     -0.3320         0.028053   
    224. D(Ir  0,C   4,C   3,C   5)     61.2859         0.020475   
    225. D(Ir  0,C   4,C   3,H  37)   -118.4963         0.020475   
    226. D(C   3,C   4,C   1,C   2)      2.3388         0.028053   
    227. D(C   1,C   4,C   3,C   5)      0.2831         0.020475   
    228. D(C   1,C   4,C   3,H  37)   -179.4990         0.020475   
    229. D(H  38,C   4,C   3,Ir  0)    119.2094         0.020475   
    230. D(H  38,C   4,Ir  0,C   1)    121.3259         0.001696   
    231. D(C   1,C   4,C   3,Ir  0)    -61.0028         0.020475   
    232. D(C   3,C   4,Ir  0,C   2)    -80.3540         0.001696   
    233. D(C   2,C   5,Ir  0,C   1)    -39.4792         0.001699   
    234. D(H  29,C   5,C   3,C   4)   -177.5860         0.028148   
    235. D(C   2,C   5,Ir  0,C   4)    -81.6179         0.001699   
    236. D(C   2,C   5,Ir  0,N   6)     20.8072         0.001699   
    237. D(C   2,C   5,Ir  0,O  31)    109.6702         0.001699   
    238. D(C   3,C   5,Ir  0,C   1)     80.0155         0.001699   
    239. D(C   3,C   5,Ir  0,C   2)    119.4947         0.001699   
    240. D(C   3,C   5,Ir  0,C   4)     37.8768         0.001699   
    241. D(H  29,C   5,C   2,C   1)    179.0242         0.022053   
    242. D(C   3,C   5,Ir  0,O  31)   -130.8351         0.001699   
    243. D(H  29,C   5,Ir  0,C   1)   -158.6721         0.001699   
    244. D(C   3,C   5,C   2,Ir  0)    -60.0428         0.022053   
    245. D(H  29,C   5,Ir  0,C   3)    121.3124         0.001699   
    246. D(H  29,C   5,Ir  0,C   4)    159.1892         0.001699   
    247. D(H  29,C   5,Ir  0,N   6)    -98.3857         0.001699   
    248. D(H  29,C   5,Ir  0,O  31)     -9.5227         0.001699   
    249. D(Ir  0,C   5,C   2,C   1)     64.2546         0.022053   
    250. D(H  29,C   5,Ir  0,C   2)   -119.1929         0.001699   
    251. D(Ir  0,C   5,C   2,H  28)   -122.4870         0.022053   
    252. D(C   3,C   5,C   2,C   1)      4.2117         0.022053   
    253. D(C   3,C   5,C   2,H  28)    177.4702         0.022053   
    254. D(C   3,C   5,Ir  0,N   6)    140.3019         0.001699   
    255. D(H  29,C   5,C   2,Ir  0)    114.7696         0.022053   
    256. D(H  29,C   5,C   2,H  28)     -7.7174         0.022053   
    257. D(Ir  0,C   5,C   3,C   4)    -60.9720         0.028148   
    258. D(Ir  0,C   5,C   3,H  37)    118.8092         0.028148   
    259. D(C   2,C   5,C   3,Ir  0)     58.1666         0.028148   
    260. D(C   2,C   5,C   3,C   4)     -2.8054         0.028148   
    261. D(C   2,C   5,C   3,H  37)    176.9759         0.028148   
    262. D(C   2,C   5,Ir  0,C   3)   -119.4947         0.001699   
    263. D(H  29,C   5,C   3,Ir  0)   -116.6140         0.028148   
    264. D(H  29,C   5,C   3,H  37)      2.1952         0.028148   
    265. D(C  17,N   6,Ir  0,C   1)    -93.6877         0.001770   
    266. D(C   7,N   6,Ir  0,C   2)     46.0719         0.001770   
    267. D(C   7,N   6,Ir  0,C   3)    134.2362         0.001770   
    268. D(C   7,N   6,Ir  0,C   4)    120.9515         0.001770   
    269. D(C   7,N   6,Ir  0,C   5)     31.5145         0.001770   
    270. D(C   7,N   6,Ir  0,C   1)     84.8014         0.001770   
    271. D(C   7,N   6,Ir  0,O  31)    -59.3141         0.001770   
    272. D(C  17,N   6,Ir  0,C   2)   -132.4171         0.001770   
    273. D(C  17,N   6,Ir  0,C   3)    -44.2528         0.001770   
    274. D(C  17,N   6,Ir  0,C   4)    -57.5375         0.001770   
    275. D(C  17,N   6,Ir  0,C   5)   -146.9745         0.001770   
    276. D(C  17,N   6,Ir  0,O  31)    122.1969         0.001770   
    277. D(C   8,C   7,N   6,Ir  0)    161.1021         0.014673   
    278. D(C   8,C   7,N   6,C  17)    -20.5583         0.014673   
    279. D(C  12,C   7,N   6,Ir  0)    -73.2630         0.014673   
    280. D(C  12,C   7,N   6,C  17)    105.0765         0.014673   
    281. D(H  13,C   7,N   6,Ir  0)     43.0141         0.014673   
    282. D(H  13,C   7,N   6,C  17)   -138.6464         0.014673   
    283. D(H   9,C   8,C   7,N   6)   -170.7014         0.011958   
    284. D(H   9,C   8,C   7,C  12)     64.7438         0.011958   
    285. D(H   9,C   8,C   7,H  13)    -54.8380         0.011958   
    286. D(H  10,C   8,C   7,N   6)     71.2378         0.011958   
    287. D(H  10,C   8,C   7,C  12)    -53.3171         0.011958   
    288. D(H  10,C   8,C   7,H  13)   -172.8989         0.011958   
    289. D(H  11,C   8,C   7,N   6)    -52.2522         0.011958   
    290. D(H  11,C   8,C   7,C  12)   -176.8071         0.011958   
    291. D(H  11,C   8,C   7,H  13)     63.6111         0.011958   
    292. D(H  14,C  12,C   7,N   6)    176.8086         0.011647   
    293. D(H  14,C  12,C   7,C   8)    -56.4267         0.011647   
    294. D(H  14,C  12,C   7,H  13)     63.0664         0.011647   
    295. D(H  15,C  12,C   7,N   6)    -64.1326         0.011647   
    296. D(H  15,C  12,C   7,C   8)     62.6322         0.011647   
    297. D(H  15,C  12,C   7,H  13)   -177.8748         0.011647   
    298. D(H  16,C  12,C   7,N   6)     57.9187         0.011647   
    299. D(H  16,C  12,C   7,C   8)   -175.3165         0.011647   
    300. D(H  16,C  12,C   7,H  13)    -55.8235         0.011647   
    301. D(C  18,C  17,N   6,Ir  0)     -8.9627         0.062664   
    302. D(C  18,C  17,N   6,C   7)    172.5317         0.062664   
    303. D(H  19,C  17,N   6,Ir  0)    173.3024         0.062664   
    304. D(H  19,C  17,N   6,C   7)     -5.2031         0.062664   
    305. D(C  20,C  18,C  17,N   6)    -42.5235         0.017220   
    306. D(C  20,C  18,C  17,H  19)    135.2354         0.017220   
    307. D(S  22,C  18,C  17,N   6)    135.5941         0.017220   
    308. D(S  22,C  18,C  17,H  19)    -46.6469         0.017220   
    309. D(C  21,C  20,C  18,C  17)    176.4710         0.029624   
    310. D(C  21,C  20,C  18,S  22)     -1.8490         0.029624   
    311. D(H  24,C  20,C  18,C  17)    -20.7721         0.029624   
    312. D(H  24,C  20,C  18,S  22)    160.9079         0.029624   
    313. D(C  23,C  21,C  20,C  18)      1.2823         0.022539   
    314. D(C  23,C  21,C  20,H  24)   -160.2546         0.022539   
    315. D(H  25,C  21,C  20,C  18)    178.0317         0.022539   
    316. D(H  25,C  21,C  20,H  24)     16.4948         0.022539   
    317. D(C  23,S  22,C  18,C  17)   -176.7566         0.005488   
    318. D(C  23,S  22,C  18,C  20)      1.5137         0.005488   
    319. D(S  22,C  23,C  21,C  20)     -0.1667         0.034358   
    320. D(S  22,C  23,C  21,H  25)   -176.9409         0.034358   
    321. D(H  26,C  23,C  21,C  20)    178.2705         0.034358   
    322. D(H  26,C  23,C  21,H  25)      1.4963         0.034358   
    323. D(C  21,C  23,S  22,C  18)     -0.7546         0.005306   
    324. D(H  26,C  23,S  22,C  18)   -179.3354         0.005306   
    325. D(C  32,O  31,Ir  0,C   1)   -173.6007         0.001943   
    326. D(C  32,O  31,Ir  0,C   2)    172.6778         0.001943   
    327. D(C  32,O  31,Ir  0,C   3)    102.8219         0.001943   
    328. D(C  32,O  31,Ir  0,C   4)    108.3307         0.001943   
    329. D(C  32,O  31,Ir  0,C   5)    134.3711         0.001943   
    330. D(C  32,O  31,Ir  0,N   6)    -71.0875         0.001943   
    331. D(O  30,C  32,O  31,Ir  0)      2.0904         0.048506   
    332. D(C  33,C  32,O  31,Ir  0)   -176.4233         0.048506   
    333. D(H  34,C  33,C  32,O  30)     22.1484         0.012577   
    334. D(H  34,C  33,C  32,O  31)   -159.2826         0.012577   
    335. D(H  35,C  33,C  32,O  30)    -96.3028         0.012577   
    336. D(H  35,C  33,C  32,O  31)     82.2662         0.012577   
    337. D(H  36,C  33,C  32,O  30)    145.2555         0.012577   
    338. D(H  36,C  33,C  32,O  31)    -36.1756         0.012577   
    -----------------------------------------------------------------

Number of atoms                         .... 39
Number of degrees of freedom            .... 338

         *************************************************************
         *                GEOMETRY OPTIMIZATION CYCLE   1            *
         *************************************************************
---------------------------------
CARTESIAN COORDINATES (ANGSTROEM)
---------------------------------
  Ir     0.573938   -0.728381    0.467224
  C      0.023888   -2.807537    0.327993
  C      0.122059   -2.370292    1.700955
  C      2.194034   -2.139066    0.728643
  C      1.280495   -2.635016   -0.276829
  C      1.493842   -2.017931    1.940422
  N     -1.047454    0.178187   -0.513463
  C     -2.319572    0.519689    0.142638
  C     -3.140488    1.547470   -0.618805
  H     -3.973818    1.864308    0.006701
  H     -3.575293    1.148677   -1.536805
  H     -2.561016    2.439010   -0.860762
  C     -3.116469   -0.751935    0.406110
  H     -2.027826    0.952365    1.101215
  H     -4.031421   -0.504256    0.942049
  H     -3.399775   -1.242704   -0.526017
  H     -2.565943   -1.462403    1.021279
  C     -0.829197    0.377618   -1.753007
  C      0.527268    0.141780   -2.202139
  H     -1.597693    0.738774   -2.430779
  C      1.632247    0.559366   -1.472021
  C      2.835069    0.127780   -2.101130
  S      0.949296   -0.701118   -3.630157
  C      2.619414   -0.552458   -3.258652
  H      1.532943    1.412469   -0.673063
  H      3.822621    0.361789   -1.730722
  H      3.355446   -0.960386   -3.935025
  H     -0.871833   -3.164213   -0.159891
  H     -0.658539   -2.412351    2.446659
  H      1.892391   -1.638200    2.870233
  O      1.273731    2.458708    0.264492
  O      0.546299    0.894266    1.680684
  C      0.896504    2.103049    1.376038
  C      0.840500    3.070103    2.525581
  H      0.782962    4.092821    2.163019
  H      1.753812    2.975774    3.116304
  H      0.004493    2.862237    3.190293
  H      3.235378   -1.899998    0.570388
  H      1.527078   -2.838806   -1.308912

----------------------------
CARTESIAN COORDINATES (A.U.)
----------------------------
  NO LB      ZA    FRAG     MASS         X           Y           Z
   0 Ir   17.0000*   0   192.220    1.084586   -1.376441    0.882925
   1 C     6.0000    0    12.011    0.045143   -5.305476    0.619817
   2 C     6.0000    0    12.011    0.230658   -4.479203    3.214339
   3 C     6.0000    0    12.011    4.146124   -4.042249    1.376935
   4 C     6.0000    0    12.011    2.419785   -4.979458   -0.523131
   5 C     6.0000    0    12.011    2.822952   -3.813337    3.666867
   6 N     7.0000    0    14.007   -1.979400    0.336725   -0.970305
   7 C     6.0000    0    12.011   -4.383356    0.982070    0.269547
   8 C     6.0000    0    12.011   -5.934661    2.924295   -1.169372
   9 H     1.0000    0     1.008   -7.509428    3.523032    0.012662
  10 H     1.0000    0     1.008   -6.756324    2.170686   -2.904141
  11 H     1.0000    0     1.008   -4.839619    4.609060   -1.626604
  12 C     6.0000    0    12.011   -5.889273   -1.420952    0.767437
  13 H     1.0000    0     1.008   -3.832035    1.799710    2.080995
  14 H     1.0000    0     1.008   -7.618282   -0.952907    1.780214
  15 H     1.0000    0     1.008   -6.424644   -2.348370   -0.994027
  16 H     1.0000    0     1.008   -4.848930   -2.763542    1.929939
  17 C     6.0000    0    12.011   -1.566954    0.713595   -3.312704
  18 C     6.0000    0    12.011    0.996392    0.267925   -4.161440
  19 H     1.0000    0     1.008   -3.019201    1.396080   -4.593507
  20 C     6.0000    0    12.011    3.084499    1.057049   -2.781716
  21 C     6.0000    0    12.011    5.357504    0.241469   -3.970560
  22 S    16.0000    0    32.060    1.793909   -1.324920   -6.860003
  23 C     6.0000    0    12.011    4.949975   -1.043995   -6.157959
  24 H     1.0000    0     1.008    2.896843    2.669180   -1.271904
  25 H     1.0000    0     1.008    7.223706    0.683682   -3.270590
  26 H     1.0000    0     1.008    6.340873   -1.814866   -7.436119
  27 H     1.0000    0     1.008   -1.647527   -5.979496   -0.302150
  28 H     1.0000    0     1.008   -1.244458   -4.558682    4.623515
  29 H     1.0000    0     1.008    3.576100   -3.095749    5.423954
  30 O     8.0000    0    15.999    2.407003    4.646286    0.499818
  31 O     8.0000    0    15.999    1.032356    1.689918    3.176033
  32 C     6.0000    0    12.011    1.694148    3.974187    2.600335
  33 C     6.0000    0    12.011    1.588315    5.801654    4.772656
  34 H     1.0000    0     1.008    1.479583    7.734310    4.087513
  35 H     1.0000    0     1.008    3.314224    5.623399    5.888961
  36 H     1.0000    0     1.008    0.008490    5.408843    6.028780
  37 H     1.0000    0     1.008    6.113978   -3.590476    1.077878
  38 H     1.0000    0     1.008    2.885758   -5.364566   -2.473486
* core charge reduced due to ECP

--------------------------------
INTERNAL COORDINATES (ANGSTROEM)
--------------------------------
 Ir     0   0   0     0.000000000000     0.00000000     0.00000000
 C      1   0   0     2.155194840453     0.00000000     0.00000000
 C      2   1   0     1.444208691416    68.23226999     0.00000000
 C      1   2   3     2.164008428468    64.53090331    81.23071967
 C      2   1   3     1.405155051757    71.40602905   240.79726897
 C      4   1   2     1.404720796320    71.02448906   278.63028193
 N      1   2   3     2.101095519507   100.90663476   241.45275256
 C      7   1   2     1.471517029106   123.76439141    84.77883193
 C      8   7   1     1.519874958370   113.60880219   161.11409129
 H      9   8   7     1.089071153919   108.80059833   189.29862953
 H      9   8   7     1.091241506621   112.92550540    71.23772758
 H      9   8   7     1.090489517531   112.14814204   307.74764720
 C      8   7   1     1.523640658970   109.60635736   286.74906324
 H      8   7   1     1.091415277174   104.62635781    43.02624696
 H     13   8   7     1.088900116660   109.55671391   176.80859954
 H     13   8   7     1.090857622910   111.31850589   295.86748591
 H     13   8   7     1.089160052792   112.19230203    57.91868607
 C      7   1   2     1.276000855914   113.39750075   266.32082914
 C     18   7   1     1.449149428897   116.41841864   350.91273361
 H     18   7   1     1.086440163678   122.26615394   173.18118571
 C     19  18   7     1.388959595355   122.39954038   317.33444806
 C     21  19  18     1.424232469474   110.42912870   176.50940281
 S     19  18   7     1.711126777391   124.63477717   135.53436972
 C     22  21  19     1.359617681675   113.17965257     1.30071378
 H     21  19  18     1.173165364462   120.61644805   339.27250141
 H     22  21  19     1.080306040236   123.69861588   178.04224960
 H     24  22  21     1.079567482124   127.89623424   178.26248627
 H      2   1   3     1.080523401676   123.99985537   119.41641084
 H      3   2   1     1.080333340332   126.53151486   122.24261554
 H      6   4   1     1.080532822386   126.06789781   243.38728731
 O     25  21  19     1.442857135001   173.68203982    12.24322119
 O      1   2   3     2.026209778723   143.87726192   339.02214826
 C     31  25  21     1.226556763907   117.72008081    73.92079974
 C     33  31  25     1.503240344449   121.20571787   168.50064531
 H     34  33  31     1.086590900038   110.62922205    22.14921537
 H     34  33  31     1.091759497702   109.08782683   263.69847358
 H     34  33  31     1.088072224936   111.89226762   145.25665758
 H      4   1   2     1.080067219680   124.04102341   157.43768514
 H      5   2   1     1.080500785365   126.30024437   240.66634336

---------------------------
INTERNAL COORDINATES (A.U.)
---------------------------
 Ir     0   0   0     0.000000000000     0.00000000     0.00000000
 C      1   0   0     4.072728013696     0.00000000     0.00000000
 C      2   1   0     2.729158907004    68.23226999     0.00000000
 C      1   2   3     4.089383281302    64.53090331    81.23071967
 C      2   1   3     2.655358223516    71.40602905   240.79726897
 C      4   1   2     2.654537599668    71.02448906   278.63028193
 N      1   2   3     3.970495113077   100.90663476   241.45275256
 C      7   1   2     2.780764186413   123.76439141    84.77883193
 C      8   7   1     2.872147429125   113.60880219   161.11409129
 H      9   8   7     2.058046221261   108.80059833   189.29862953
 H      9   8   7     2.062147593481   112.92550540    71.23772758
 H      9   8   7     2.060726540046   112.14814204   307.74764720
 C      8   7   1     2.879263571960   109.60635736   286.74906324
 H      8   7   1     2.062475972237   104.62635781    43.02624696
 H     13   8   7     2.057723007683   109.55671391   176.80859954
 H     13   8   7     2.061422158400   111.31850589   295.86748591
 H     13   8   7     2.058214215783   112.19230203    57.91868607
 C      7   1   2     2.411292164326   113.39750075   266.32082914
 C     18   7   1     2.738495547745   116.41841864   350.91273361
 H     18   7   1     2.053074370243   122.26615394   173.18118571
 C     19  18   7     2.624753246304   122.39954038   317.33444806
 C     21  19  18     2.691409318345   110.42912870   176.50940281
 S     19  18   7     3.233560989688   124.63477717   135.53436972
 C     22  21  19     2.569305065202   113.17965257     1.30071378
 H     21  19  18     2.216961248635   120.61644805   339.27250141
 H     22  21  19     2.041482556868   123.69861588   178.04224960
 H     24  22  21     2.040086884301   127.89623424   178.26248627
 H      2   1   3     2.041893310461   123.99985537   119.41641084
 H      3   2   1     2.041534146571   126.53151486   122.24261554
 H      6   4   1     2.041911113022   126.06789781   243.38728731
 O     25  21  19     2.726604835527   173.68203982    12.24322119
 O      1   2   3     3.828981571660   143.87726192   339.02214826
 C     31  25  21     2.317856371492   117.72008081    73.92079974
 C     33  31  25     2.840712564471   121.20571787   168.50064531
 H     34  33  31     2.053359220683   110.62922205    22.14921537
 H     34  33  31     2.063126454765   109.08782683   263.69847358
 H     34  33  31     2.056158519055   111.89226762   145.25665758
 H      4   1   2     2.041031251421   124.04102341   157.43768514
 H      5   2   1     2.041850571827   126.30024437   240.66634336

---------------------
BASIS SET INFORMATION
---------------------
There are 6 groups of distinct atoms

 Group   1 Type Ir  : 7s6p5d1f contracted to 6s3p2d1f pattern {211111/411/41/1}
 Group   2 Type C   : 8s4p1d contracted to 4s2p1d pattern {5111/31/1}
 Group   3 Type N   : 8s4p1d contracted to 4s2p1d pattern {5111/31/1}
 Group   4 Type H   : 4s contracted to 2s pattern {31}
 Group   5 Type S   : 10s7p1d contracted to 4s3p1d pattern {5311/511/1}
 Group   6 Type O   : 8s4p1d contracted to 4s2p1d pattern {5111/31/1}

Atom   0Ir   basis set group =>   1
Atom   1C    basis set group =>   2
Atom   2C    basis set group =>   2
Atom   3C    basis set group =>   2
Atom   4C    basis set group =>   2
Atom   5C    basis set group =>   2
Atom   6N    basis set group =>   3
Atom   7C    basis set group =>   2
Atom   8C    basis set group =>   2
Atom   9H    basis set group =>   4
Atom  10H    basis set group =>   4
Atom  11H    basis set group =>   4
Atom  12C    basis set group =>   2
Atom  13H    basis set group =>   4
Atom  14H    basis set group =>   4
Atom  15H    basis set group =>   4
Atom  16H    basis set group =>   4
Atom  17C    basis set group =>   2
Atom  18C    basis set group =>   2
Atom  19H    basis set group =>   4
Atom  20C    basis set group =>   2
Atom  21C    basis set group =>   2
Atom  22S    basis set group =>   5
Atom  23C    basis set group =>   2
Atom  24H    basis set group =>   4
Atom  25H    basis set group =>   4
Atom  26H    basis set group =>   4
Atom  27H    basis set group =>   4
Atom  28H    basis set group =>   4
Atom  29H    basis set group =>   4
Atom  30O    basis set group =>   6
Atom  31O    basis set group =>   6
Atom  32C    basis set group =>   2
Atom  33C    basis set group =>   2
Atom  34H    basis set group =>   4
Atom  35H    basis set group =>   4
Atom  36H    basis set group =>   4
Atom  37H    basis set group =>   4
Atom  38H    basis set group =>   4
---------------------------------
AUXILIARY/J BASIS SET INFORMATION
---------------------------------
There are 6 groups of distinct atoms

 Group   1 Type Ir  : 11s5p5d3f3g contracted to 8s5p5d2f3g pattern {41111111/11111/11111/21/111}
 Group   2 Type C   : 12s5p4d2f1g contracted to 6s4p3d1f1g pattern {711111/2111/211/2/1}
 Group   3 Type N   : 12s5p4d2f1g contracted to 6s4p3d1f1g pattern {711111/2111/211/2/1}
 Group   4 Type H   : 5s2p1d contracted to 3s1p1d pattern {311/2/1}
 Group   5 Type S   : 14s5p5d2f1g contracted to 8s4p3d1f1g pattern {71111111/2111/311/2/1}
 Group   6 Type O   : 12s5p4d2f1g contracted to 6s4p3d1f1g pattern {711111/2111/211/2/1}

Atom   0Ir   basis set group =>   1
Atom   1C    basis set group =>   2
Atom   2C    basis set group =>   2
Atom   3C    basis set group =>   2
Atom   4C    basis set group =>   2
Atom   5C    basis set group =>   2
Atom   6N    basis set group =>   3
Atom   7C    basis set group =>   2
Atom   8C    basis set group =>   2
Atom   9H    basis set group =>   4
Atom  10H    basis set group =>   4
Atom  11H    basis set group =>   4
Atom  12C    basis set group =>   2
Atom  13H    basis set group =>   4
Atom  14H    basis set group =>   4
Atom  15H    basis set group =>   4
Atom  16H    basis set group =>   4
Atom  17C    basis set group =>   2
Atom  18C    basis set group =>   2
Atom  19H    basis set group =>   4
Atom  20C    basis set group =>   2
Atom  21C    basis set group =>   2
Atom  22S    basis set group =>   5
Atom  23C    basis set group =>   2
Atom  24H    basis set group =>   4
Atom  25H    basis set group =>   4
Atom  26H    basis set group =>   4
Atom  27H    basis set group =>   4
Atom  28H    basis set group =>   4
Atom  29H    basis set group =>   4
Atom  30O    basis set group =>   6
Atom  31O    basis set group =>   6
Atom  32C    basis set group =>   2
Atom  33C    basis set group =>   2
Atom  34H    basis set group =>   4
Atom  35H    basis set group =>   4
Atom  36H    basis set group =>   4
Atom  37H    basis set group =>   4
Atom  38H    basis set group =>   4
-------------------------
ECP PARAMETER INFORMATION
-------------------------

 Group 1, Type Ir ECP Def2-ECP (replacing 60 core electrons, lmax=3)

Atom   0Ir   ECP group =>   1

------------------------------------------------------------------------------
                           ORCA GTO INTEGRAL CALCULATION
                           -- RI-GTO INTEGRALS CHOSEN --
------------------------------------------------------------------------------
------------------------------------------------------------------------------
                   ___                                                        
                  /   \      - P O W E R E D   B Y -                         
                 /     \                                                     
                 |  |  |   _    _      __       _____    __    __             
                 |  |  |  | |  | |    /  \     |  _  \  |  |  /  |          
                  \  \/   | |  | |   /    \    | | | |  |  | /  /          
                 / \  \   | |__| |  /  /\  \   | |_| |  |  |/  /          
                |  |  |   |  __  | /  /__\  \  |    /   |      \           
                |  |  |   | |  | | |   __   |  |    \   |  |\   \          
                \     /   | |  | | |  |  |  |  | |\  \  |  | \   \       
                 \___/    |_|  |_| |__|  |__|  |_| \__\ |__|  \__/        
                                                                              
                      - O R C A' S   B I G   F R I E N D -                    
                                      &                                       
                       - I N T E G R A L  F E E D E R -                       
                                                                              
 v1 FN, 2020, v2 2021                                                         
------------------------------------------------------------------------------


Reading SHARK input file reaction4-IEIP_ts_guess_scan_1-5_orca.SHARKINP.tmp ... ok
----------------------
SHARK INTEGRAL PACKAGE
----------------------

Number of atoms                             ...     39
Number of basis functions                   ...    358
Number of shells                            ...    184
Maximum angular momentum                    ...      3
Integral batch strategy                     ... SHARK/LIBINT Hybrid
RI-J (if used) integral strategy            ... SPLIT-RIJ (Revised 2003 algorithm where possible)
Printlevel                                  ...      1
Contraction scheme used                     ... SEGMENTED contraction
Coulomb Range Separation                    ... NOT USED
Exchange Range Separation                   ... NOT USED
Finite Nucleus Model                        ... NOT USED
Auxiliary Coulomb fitting basis             ... AVAILABLE
   # of basis functions in Aux-J            ...   1231
   # of shells in Aux-J                     ...    405
   Maximum angular momentum in Aux-J        ...      4
Auxiliary J/K fitting basis                 ... NOT available
Auxiliary Correlation fitting basis         ... NOT available
Auxiliary 'external' fitting basis          ... NOT available
Integral threshold                          ...     2.500000e-11
Primitive cut-off                           ...     2.500000e-12
Primitive pair pre-selection threshold      ...     2.500000e-12

Calculating pre-screening integrals         ... done (  0.1 sec) Dimension = 184
Organizing shell pair data                  ... done (  0.1 sec)
Shell pair information
Total number of shell pairs                 ...     17020
Shell pairs after pre-screening             ...     12977
Total number of primitive shell pairs       ...     60705
Primitive shell pairs kept                  ...     29199
          la=0 lb=0:   4970 shell pairs
          la=1 lb=0:   4257 shell pairs
          la=1 lb=1:    857 shell pairs
          la=2 lb=0:   1749 shell pairs
          la=2 lb=1:    786 shell pairs
          la=2 lb=2:    181 shell pairs
          la=3 lb=0:    113 shell pairs
          la=3 lb=1:     42 shell pairs
          la=3 lb=2:     21 shell pairs
          la=3 lb=3:      1 shell pairs

Calculating one electron integrals          ... done (  0.1 sec)
Calculating ECP integrals                   ... done (  0.8 sec)
Calculating RI/J V-Matrix + Cholesky decomp.... done (  0.1 sec)
Calculating Nuclear repulsion               ... done (  0.0 sec) ENN=   2039.608649796419 Eh

SHARK setup successfully completed in   1.5 seconds

Maximum memory used throughout the entire GTOINT-calculation: 91.3 MB
-------------------------------------------------------------------------------
                                 ORCA SCF
-------------------------------------------------------------------------------

------------
SCF SETTINGS
------------
Hamiltonian:
 Density Functional     Method          .... DFT(GTOs)
 Exchange Functional    Exchange        .... PBE
   PBE kappa parameter   XKappa         ....  1.024500
   PBE mue parameter    XMuePBE         ....  0.123457
 Correlation Functional Correlation     .... PBE
   PBE beta parameter  CBetaPBE         ....  0.030000
 LDA part of GGA corr.  LDAOpt          .... PW91-LDA
 Gradients option       PostSCFGGA      .... off
 Hybrid DFT is turned on
   Fraction HF Exchange ScalHFX         ....  0.420000
   Scaling of DF-GGA-X  ScalDFX         ....  0.580000
   Scaling of DF-GGA-C  ScalDFC         ....  1.000000
   Scaling of DF-LDA-C  ScalLDAC        ....  1.000000
   Perturbative correction              ....  0.000000
   Density functional embedding theory  .... OFF
 RI-approximation to the Coulomb term is turned on
   Number of AuxJ basis functions       .... 1231
   RIJ-ON(X) (HFX calculated with O(N)) .... on
   Number of AuxJ basis functions       .... 1231
   RIJ-COSX (HFX calculated with COS-X)).... on


General Settings:
 Integral files         IntName         .... reaction4-IEIP_ts_guess_scan_1-5_orca
 Hartree-Fock type      HFTyp           .... RHF
 Total Charge           Charge          ....    1
 Multiplicity           Mult            ....    1
 Number of Electrons    NEL             ....  164
 Basis Dimension        Dim             ....  358
 Nuclear Repulsion      ENuc            ....   2039.6086497964 Eh

Convergence Acceleration:
 DIIS                   CNVDIIS         .... on
   Start iteration      DIISMaxIt       ....    12
   Startup error        DIISStart       ....  0.200000
   # of expansion vecs  DIISMaxEq       ....     5
   Bias factor          DIISBfac        ....   1.050
   Max. coefficient     DIISMaxC        ....  10.000
 Trust-Rad. Augm. Hess. CNVTRAH         .... auto
   Auto Start mean grad. ratio tolernc. ....  1.125000
   Auto Start start iteration           ....    20
   Auto Start num. interpolation iter.  ....    10
   Max. Number of Micro iterations      ....    16
   Max. Number of Macro iterations      .... Maxiter - #DIIS iter
   Number of Davidson start vectors     ....     2
   Converg. threshold I  (grad. norm)   ....   1.000e-05
   Converg. threshold II (energy diff.) ....   1.000e-08
   Grad. Scal. Fac. for Micro threshold ....   0.100
   Minimum threshold for Micro iter.    ....   0.010
   NR start threshold (gradient norm)   ....   0.001
   Initial trust radius                 ....   0.400
   Minimum AH scaling param. (alpha)    ....   1.000
   Maximum AH scaling param. (alpha)    .... 1000.000
   Orbital update algorithm             .... Taylor
   White noise on init. David. guess    .... on
   Maximum white noise                  ....   0.010
   Quad. conv. algorithm                .... NR
   COSX micro iterations for RIJONX calc.... off
 SOSCF                  CNVSOSCF        .... off
 Level Shifting         CNVShift        .... on
   Level shift para.    LevelShift      ....    0.2500
   Turn off err/grad.   ShiftErr        ....    0.0010
 Zerner damping         CNVZerner       .... off
 Static damping         CNVDamp         .... on
   Fraction old density DampFac         ....    0.7000
   Max. Damping (<1)    DampMax         ....    0.9800
   Min. Damping (>=0)   DampMin         ....    0.0000
   Turn off err/grad.   DampErr         ....    0.1000
 Fernandez-Rico         CNVRico         .... off

SCF Procedure:
 Maximum # iterations   MaxIter         ....   250
 SCF integral mode      SCFMode         .... Direct
   Integral package                     .... SHARK and LIBINT hybrid scheme
 Reset frequency        DirectResetFreq ....    20
 Integral Threshold     Thresh          ....  2.500e-11 Eh
 Primitive CutOff       TCut            ....  2.500e-12 Eh

Convergence Tolerance:
 Convergence Check Mode ConvCheckMode   .... Total+1el-Energy
 Convergence forced     ConvForced      .... 0
 Energy Change          TolE            ....  1.000e-08 Eh
 1-El. energy change                    ....  1.000e-05 Eh
 DIIS Error             TolErr          ....  5.000e-07


Diagonalization of the overlap matrix:
Smallest eigenvalue                        ... 1.036e-03
Time for diagonalization                   ...    0.018 sec
Threshold for overlap eigenvalues          ... 1.000e-08
Number of eigenvalues below threshold      ... 0
Time for construction of square roots      ...    0.007 sec
Total time needed                          ...    0.025 sec

--------------------
INITIAL GUESS: HCORE
--------------------
                      -----------------
                      INTIAL GUESS DONE 
                      -----------------
-------------------
DFT GRID GENERATION
-------------------

General Integration Accuracy     IntAcc      ... 4.159
Radial Grid Type                 RadialGrid  ... OptM3 with GC (2021)
Angular Grid (max. ang.)         AngularGrid ... 3 (Lebedev-194)
Angular grid pruning method      GridPruning ... 4 (adaptive)
Weight generation scheme         WeightScheme... Becke
Basis function cutoff            BFCut       ... 1.0000e-11
Integration weight cutoff        WCut        ... 1.0000e-14
Angular grids for H and He will be reduced by one unit
Partially contracted basis set               ... off
Rotationally invariant grid construction     ... off

Total number of grid points                  ...    93319
Total number of batches                      ...     1476
Average number of points per batch           ...       63
Average number of grid points per atom       ...     2393
Time for grid setup =    1.722 sec

--------------------
COSX GRID GENERATION
--------------------

GRIDX 1
-------
General Integration Accuracy     IntAcc      ... 3.816
Radial Grid Type                 RadialGrid  ... OptM3 with GC (2021)
Angular Grid (max. ang.)         AngularGrid ... 1 (Lebedev-50)
Angular grid pruning method      GridPruning ... 4 (adaptive)
Weight generation scheme         WeightScheme... Becke
Basis function cutoff            BFCut       ... 1.0000e-11
Integration weight cutoff        WCut        ... 1.0000e-14
Angular grids for H and He will be reduced by one unit
Partially contracted basis set               ... on
Rotationally invariant grid construction     ... off

Total number of grid points                  ...    23176
Total number of batches                      ...      381
Average number of points per batch           ...       60
Average number of grid points per atom       ...      594
UseSFitting                                  ... on

GRIDX 2
-------
General Integration Accuracy     IntAcc      ... 4.020
Radial Grid Type                 RadialGrid  ... OptM3 with GC (2021)
Angular Grid (max. ang.)         AngularGrid ... 2 (Lebedev-110)
Angular grid pruning method      GridPruning ... 4 (adaptive)
Weight generation scheme         WeightScheme... Becke
Basis function cutoff            BFCut       ... 1.0000e-11
Integration weight cutoff        WCut        ... 1.0000e-14
Angular grids for H and He will be reduced by one unit
Partially contracted basis set               ... on
Rotationally invariant grid construction     ... off

Total number of grid points                  ...    50309
Total number of batches                      ...      806
Average number of points per batch           ...       62
Average number of grid points per atom       ...     1290
UseSFitting                                  ... on

GRIDX 3
-------
General Integration Accuracy     IntAcc      ... 4.338
Radial Grid Type                 RadialGrid  ... OptM3 with GC (2021)
Angular Grid (max. ang.)         AngularGrid ... 3 (Lebedev-194)
Angular grid pruning method      GridPruning ... 4 (adaptive)
Weight generation scheme         WeightScheme... Becke
Basis function cutoff            BFCut       ... 1.0000e-11
Integration weight cutoff        WCut        ... 1.0000e-14
Angular grids for H and He will be reduced by one unit
Partially contracted basis set               ... on
Rotationally invariant grid construction     ... off

Total number of grid points                  ...   108800
Total number of batches                      ...     1719
Average number of points per batch           ...       63
Average number of grid points per atom       ...     2790
UseSFitting                                  ... on

Time for X-Grid setup             =    4.606 sec

--------------
SCF ITERATIONS
--------------
ITER       Energy         Delta-E        Max-DP      RMS-DP      [F,P]     Damp
               ***  Starting incremental Fock matrix formation  ***
  0   -864.2466007960   0.00000000000019.77897386  0.14522165  2.7224982 0.7000
  1  -1099.7410634425-235.494462646470 9.58820871  0.11561030  1.4767925 0.7000
  2  -1168.6403297756 -68.899266333143 5.47138636  0.06041921  1.0584525 0.7000
  3  -1194.4049661162 -25.764636340517 3.79477313  0.04321058  0.7702128 0.7000
  4  -1211.3270209512 -16.922054835060 2.68174155  0.03556744  0.4575946 0.7000
  5  -1225.8371160730 -14.510095121763 2.38809121  0.02992466  0.3661349 0.7000
  6  -1234.7991976900  -8.962081617012 1.71773232  0.02752872  0.3404810 0.7000
  7  -1242.3582302207  -7.559032530652 1.89006891  0.02478561  0.3297206 0.7000
  8  -1246.7625810153  -4.404350794670 1.70443672  0.02471739  0.3867155 0.7000
  9  -1250.6532892878  -3.890708272492 1.62069574  0.02351800  0.3579850 0.7000
 10  -1252.6798475477  -2.026558259880 1.65236285  0.02370014  0.4111025 0.7000
 11  -1254.7604313962  -2.080583848475 1.50085575  0.02337951  0.3693893 0.7000
                               ***Turning on DIIS***
 12  -1255.6202821354  -0.859850739199 1.61923397  0.02349843  0.4227458 0.7000
 13  -1256.8043422180  -1.184060082630 1.42618206  0.01989756  0.3748370 0.7000
 14  -1267.5846277215 -10.780285503482 0.99953986  0.01406939  0.2562188 0.7000
 15  -1273.9387689928  -6.354141271340 0.70496483  0.01001312  0.1028926 0.7000
 16  -1277.9478890810  -4.009120088185 0.49034584  0.00707387  0.1355507 0.7000
 17  -1280.6596461727  -2.711757091667 0.33637576  0.00499742  0.1707946 0.7000
 18  -1282.6680124387  -2.008366266010 0.23435131  0.00358495  0.1708688 0.7000
 19  -1284.1856890053  -1.517676566667 0.16231122  0.00272144  0.1594286 0.7000
               *** Restarting incremental Fock matrix formation ***
                                   *** Resetting DIIS ***
 20  -1285.3898293466  -1.204140341267 0.12715890  0.00248659  0.1326420 0.7000
 21  -1286.3464065961  -0.956577249462 0.29154940  0.00563867  0.0470848 0.0000
 22  -1288.3632623275  -2.016855731413 0.03899111  0.00099173  0.0619194 0.0000
 23  -1288.4216623287  -0.058400001181 0.04842778  0.00083751  0.0341638 0.0000
 24  -1288.4351189682  -0.013456639506 0.02853586  0.00035331  0.0228191 0.0000
 25  -1288.4398843956  -0.004765427405 0.00989687  0.00016969  0.0059009 0.0000
 26  -1288.4408735185  -0.000989122897 0.00541467  0.00009123  0.0038436 0.0000
 27  -1288.4412287449  -0.000355226408 0.00489578  0.00007297  0.0017712 0.0000
 28  -1288.4414088944  -0.000180149498 0.00316738  0.00004407  0.0010440 0.0000
 29  -1288.4414766711  -0.000067776686 0.00465668  0.00006354  0.0007574 0.0000
               *** Restarting incremental Fock matrix formation ***
                                   *** Resetting DIIS ***
 30  -1288.4423494106  -0.000872739497 0.00510736  0.00008600  0.0008240 0.0000
 31  -1288.4423628371  -0.000013426499 0.00152319  0.00002114  0.0009932 0.0000
 32  -1288.4423686744  -0.000005837339 0.00147804  0.00001284  0.0007290 0.0000
 33  -1288.4423726157  -0.000003941260 0.00056238  0.00000493  0.0004032 0.0000
 34  -1288.4423733828  -0.000000767162 0.00028757  0.00000236  0.0000931 0.0000
 35  -1288.4423735225  -0.000000139665 0.00011981  0.00000116  0.0000472 0.0000
 36  -1288.4423735516  -0.000000029067 0.00010286  0.00000098  0.0000300 0.0000
 37  -1288.4423735639  -0.000000012392 0.00004652  0.00000044  0.0000120 0.0000
 38  -1288.4423735708  -0.000000006865 0.00002417  0.00000020  0.0000063 0.0000
 39  -1288.4423735686   0.000000002191 0.00001708  0.00000014  0.0000096 0.0000
 40  -1288.4423735789  -0.000000010300 0.00000492  0.00000005  0.0000026 0.0000
 41  -1288.4423735606   0.000000018316 0.00000292  0.00000003  0.0000018 0.0000
                            ***DIIS convergence achieved***

               *****************************************************
               *                     SUCCESS                       *
               *           SCF CONVERGED AFTER  42 CYCLES          *
               *****************************************************

Old exchange energy                            =    -59.662448108 Eh
New exchange energy                            =    -59.662403691 Eh
Exchange energy change after final integration =      0.000044418 Eh
Total energy after final integration           =  -1288.442329156 Eh
Final COS-X integration done in                =    57.623 sec

----------------
TOTAL SCF ENERGY
----------------

Total Energy       :        -1288.44232916 Eh          -35060.29821 eV

Components:
Nuclear Repulsion  :         2039.60864980 Eh           55500.57296 eV
Electronic Energy  :        -3328.05097895 Eh          -90560.87116 eV
One Electron Energy:        -5834.63633416 Eh         -158768.52629 eV
Two Electron Energy:         2506.58535521 Eh           68207.65513 eV
Max COSX asymmetry :            0.00001633 Eh               0.00044 eV

Virial components:
Potential Energy   :        -2501.58772129 Eh          -68071.66259 eV
Kinetic Energy     :         1213.14539214 Eh           33011.36439 eV
Virial Ratio       :            2.06206753


DFT components:
N(Alpha)           :       82.000356609684 electrons
N(Beta)            :       82.000356609684 electrons
N(Total)           :      164.000713219369 electrons
E(X)               :      -79.595070489578 Eh       
E(C)               :       -7.453674630770 Eh       
E(XC)              :      -87.048745120348 Eh       
DFET-embed. en.    :        0.000000000000 Eh       

---------------
SCF CONVERGENCE
---------------

  Last Energy change         ...   -1.2911e-08  Tolerance :   1.0000e-08
  Last MAX-Density change    ...    0.0000e+00  Tolerance :   1.0000e-07
  Last RMS-Density change    ...    0.0000e+00  Tolerance :   5.0000e-09
  Last DIIS Error            ...    9.4325e-07  Tolerance :   5.0000e-07

             **** THE GBW FILE WAS UPDATED (reaction4-IEIP_ts_guess_scan_1-5_orca.gbw) ****
             **** DENSITY reaction4-IEIP_ts_guess_scan_1-5_orca.scfp WAS UPDATED ****
             **** ENERGY FILE WAS UPDATED (reaction4-IEIP_ts_guess_scan_1-5_orca.en.tmp) ****
             **** THE GBW FILE WAS UPDATED (reaction4-IEIP_ts_guess_scan_1-5_orca.gbw) ****
             **** DENSITY reaction4-IEIP_ts_guess_scan_1-5_orca.scfp WAS UPDATED ****
----------------
ORBITAL ENERGIES
----------------

  NO   OCC          E(Eh)            E(eV) 
   0   2.0000     -89.760124     -2442.4971 
   1   2.0000     -19.622835      -533.9645 
   2   2.0000     -19.584388      -532.9183 
   3   2.0000     -14.842066      -403.8731 
   4   2.0000     -10.679289      -290.5982 
   5   2.0000     -10.662963      -290.1540 
   6   2.0000     -10.639281      -289.5096 
   7   2.0000     -10.636952      -289.4462 
   8   2.0000     -10.635415      -289.4044 
   9   2.0000     -10.634544      -289.3807 
  10   2.0000     -10.633217      -289.3446 
  11   2.0000     -10.631763      -289.3050 
  12   2.0000     -10.617229      -288.9095 
  13   2.0000     -10.609286      -288.6934 
  14   2.0000     -10.582266      -287.9581 
  15   2.0000     -10.580331      -287.9054 
  16   2.0000     -10.557859      -287.2940 
  17   2.0000     -10.552690      -287.1533 
  18   2.0000     -10.531594      -286.5792 
  19   2.0000      -8.399371      -228.5585 
  20   2.0000      -6.289505      -171.1461 
  21   2.0000      -6.285860      -171.0469 
  22   2.0000      -6.284018      -170.9968 
  23   2.0000      -4.032308      -109.7247 
  24   2.0000      -2.351810       -63.9960 
  25   2.0000      -2.317370       -63.0589 
  26   2.0000      -2.315731       -63.0142 
  27   2.0000      -1.303349       -35.4659 
  28   2.0000      -1.215246       -33.0685 
  29   2.0000      -1.207268       -32.8514 
  30   2.0000      -1.176014       -32.0010 
  31   2.0000      -1.125134       -30.6165 
  32   2.0000      -1.027929       -27.9714 
  33   2.0000      -0.991152       -26.9706 
  34   2.0000      -0.980891       -26.6914 
  35   2.0000      -0.964332       -26.2408 
  36   2.0000      -0.959297       -26.1038 
  37   2.0000      -0.925467       -25.1832 
  38   2.0000      -0.904305       -24.6074 
  39   2.0000      -0.873860       -23.7789 
  40   2.0000      -0.797719       -21.7070 
  41   2.0000      -0.791905       -21.5488 
  42   2.0000      -0.790006       -21.4972 
  43   2.0000      -0.781114       -21.2552 
  44   2.0000      -0.774654       -21.0794 
  45   2.0000      -0.756763       -20.5926 
  46   2.0000      -0.745122       -20.2758 
  47   2.0000      -0.723343       -19.6832 
  48   2.0000      -0.695680       -18.9304 
  49   2.0000      -0.672552       -18.3011 
  50   2.0000      -0.665820       -18.1179 
  51   2.0000      -0.652777       -17.7630 
  52   2.0000      -0.649470       -17.6730 
  53   2.0000      -0.641622       -17.4594 
  54   2.0000      -0.637128       -17.3371 
  55   2.0000      -0.629020       -17.1165 
  56   2.0000      -0.624378       -16.9902 
  57   2.0000      -0.612796       -16.6750 
  58   2.0000      -0.611270       -16.6335 
  59   2.0000      -0.609443       -16.5838 
  60   2.0000      -0.596726       -16.2377 
  61   2.0000      -0.587968       -15.9994 
  62   2.0000      -0.576704       -15.6929 
  63   2.0000      -0.571692       -15.5565 
  64   2.0000      -0.564105       -15.3501 
  65   2.0000      -0.554369       -15.0852 
  66   2.0000      -0.552911       -15.0455 
  67   2.0000      -0.548647       -14.9294 
  68   2.0000      -0.539453       -14.6793 
  69   2.0000      -0.535079       -14.5602 
  70   2.0000      -0.528419       -14.3790 
  71   2.0000      -0.522459       -14.2168 
  72   2.0000      -0.516721       -14.0607 
  73   2.0000      -0.508380       -13.8337 
  74   2.0000      -0.489519       -13.3205 
  75   2.0000      -0.481309       -13.0971 
  76   2.0000      -0.464233       -12.6324 
  77   2.0000      -0.452206       -12.3052 
  78   2.0000      -0.440653       -11.9908 
  79   2.0000      -0.423675       -11.5288 
  80   2.0000      -0.417300       -11.3553 
  81   2.0000      -0.404411       -11.0046 
  82   0.0000      -0.199764        -5.4359 
  83   0.0000      -0.166621        -4.5340 
  84   0.0000      -0.141923        -3.8619 
  85   0.0000      -0.103407        -2.8138 
  86   0.0000      -0.077300        -2.1034 
  87   0.0000      -0.069973        -1.9041 
  88   0.0000      -0.060638        -1.6500 
  89   0.0000      -0.051058        -1.3894 
  90   0.0000      -0.044424        -1.2088 
  91   0.0000      -0.036598        -0.9959 
  92   0.0000      -0.005127        -0.1395 
  93   0.0000      -0.002406        -0.0655 
  94   0.0000       0.008621         0.2346 
  95   0.0000       0.021606         0.5879 
  96   0.0000       0.028513         0.7759 
  97   0.0000       0.035842         0.9753 
  98   0.0000       0.043877         1.1939 
  99   0.0000       0.053848         1.4653 
 100   0.0000       0.067655         1.8410 
 101   0.0000       0.069499         1.8912 
 102   0.0000       0.071073         1.9340 
 103   0.0000       0.077224         2.1014 
 104   0.0000       0.081793         2.2257 
 105   0.0000       0.087505         2.3811 
 106   0.0000       0.092629         2.5206 
 107   0.0000       0.099838         2.7167 
 108   0.0000       0.107747         2.9319 
 109   0.0000       0.113310         3.0833 
 110   0.0000       0.114917         3.1271 
 111   0.0000       0.119987         3.2650 
 112   0.0000       0.122054         3.3213 
 113   0.0000       0.125501         3.4150 
 114   0.0000       0.131700         3.5837 
 115   0.0000       0.138262         3.7623 
 116   0.0000       0.142483         3.8771 
 117   0.0000       0.150685         4.1003 
 118   0.0000       0.156304         4.2532 
 119   0.0000       0.160096         4.3564 
 120   0.0000       0.164759         4.4833 
 121   0.0000       0.176118         4.7924 
 122   0.0000       0.186086         5.0637 
 123   0.0000       0.200864         5.4658 
 124   0.0000       0.220624         6.0035 
 125   0.0000       0.229714         6.2508 
 126   0.0000       0.257924         7.0185 
 127   0.0000       0.272495         7.4150 
 128   0.0000       0.279730         7.6118 
 129   0.0000       0.295144         8.0313 
 130   0.0000       0.300479         8.1765 
 131   0.0000       0.309462         8.4209 
 132   0.0000       0.322144         8.7660 
 133   0.0000       0.336798         9.1647 
 134   0.0000       0.343077         9.3356 
 135   0.0000       0.358913         9.7665 
 136   0.0000       0.364511         9.9188 
 137   0.0000       0.370747        10.0886 
 138   0.0000       0.384746        10.4695 
 139   0.0000       0.396092        10.7782 
 140   0.0000       0.399779        10.8785 
 141   0.0000       0.414607        11.2820 
 142   0.0000       0.422398        11.4940 
 143   0.0000       0.435529        11.8513 
 144   0.0000       0.444329        12.0908 
 145   0.0000       0.447221        12.1695 
 146   0.0000       0.452348        12.3090 
 147   0.0000       0.459434        12.5018 
 148   0.0000       0.468873        12.7587 
 149   0.0000       0.473544        12.8858 
 150   0.0000       0.479440        13.0462 
 151   0.0000       0.487224        13.2580 
 152   0.0000       0.498320        13.5600 
 153   0.0000       0.500663        13.6237 
 154   0.0000       0.508288        13.8312 
 155   0.0000       0.515459        14.0264 
[...]

----------------------
LOEWDIN ATOMIC CHARGES
----------------------
   0 Ir:   -0.207972
   1 C :   -0.038802
   2 C :   -0.054272
   3 C :   -0.045497
   4 C :   -0.055047
   5 C :   -0.026472
   6 N :   -0.007379
   7 C :   -0.068077
   8 C :   -0.365072
   9 H :    0.157851
  10 H :    0.134188
  11 H :    0.146993
  12 C :   -0.343450
  13 H :    0.156665
  14 H :    0.153401
  15 H :    0.137349
  16 H :    0.134603
  17 C :    0.037071
  18 C :   -0.190237
  19 H :    0.163327
  20 C :   -0.181119
  21 C :   -0.145356
  22 S :    0.455499
  23 C :   -0.262481
  24 H :    0.277882
  25 H :    0.162133
  26 H :    0.167440
  27 H :    0.186342
  28 H :    0.186896
  29 H :    0.194354
  30 O :   -0.277596
  31 O :   -0.211238
  32 C :    0.152789
  33 C :   -0.377155
  34 H :    0.159085
  35 H :    0.166252
  36 H :    0.152355
  37 H :    0.188513
  38 H :    0.186235

-------------------------------
LOEWDIN REDUCED ORBITAL CHARGES
-------------------------------
  0 Irs       :     2.454426  s :     2.454426
      pz      :     2.236446  p :     6.739333
      px      :     2.233787
      py      :     2.269099
      dz2     :     1.854931  d :     7.924637
      dxz     :     1.754864
      dyz     :     1.247975
      dx2y2   :     1.644548
      dxy     :     1.422319
      f0      :     0.011633  f :     0.089576
      f+1     :     0.002998
      f-1     :     0.012723
      f+2     :     0.017650
      f-2     :     0.016361
      f+3     :     0.011166
      f-3     :     0.017046
  1 C s       :     2.875883  s :     2.875883
      pz      :     1.046594  p :     3.058684
      px      :     1.089024
      py      :     0.923067
      dz2     :     0.026580  d :     0.104235
      dxz     :     0.027211
      dyz     :     0.017431
      dx2y2   :     0.018362
      dxy     :     0.014651
  2 C s       :     2.874894  s :     2.874894
      pz      :     1.047291  p :     3.076196
      px      :     1.074027
      py      :     0.954878
      dz2     :     0.025925  d :     0.103182
      dxz     :     0.027691
      dyz     :     0.017784
      dx2y2   :     0.018453
      dxy     :     0.013329
  3 C s       :     2.875800  s :     2.875800
      pz      :     1.037748  p :     3.067220
      px      :     1.075304
      py      :     0.954169
      dz2     :     0.024439  d :     0.102476
      dxz     :     0.032317
      dyz     :     0.016375
      dx2y2   :     0.014938
      dxy     :     0.014408
  4 C s       :     2.874484  s :     2.874484
      pz      :     1.094981  p :     3.078476
      px      :     1.035271
      py      :     0.948224
      dz2     :     0.022670  d :     0.102087
      dxz     :     0.031982
      dyz     :     0.012846
      dx2y2   :     0.017464
      dxy     :     0.017125
  5 C s       :     2.877128  s :     2.877128
      pz      :     1.066060  p :     3.045369
      px      :     1.032322
      py      :     0.946986
      dz2     :     0.025652  d :     0.103975
      dxz     :     0.029994
      dyz     :     0.015587
      dx2y2   :     0.015479
      dxy     :     0.017264
  6 N s       :     3.122942  s :     3.122942
      pz      :     1.272237  p :     3.785929
      px      :     1.289368
      py      :     1.224324
      dz2     :     0.029759  d :     0.098508
      dxz     :     0.027744
      dyz     :     0.019237
      dx2y2   :     0.011565
      dxy     :     0.010203
  7 C s       :     2.862007  s :     2.862007
      pz      :     1.061289  p :     3.071628
      px      :     0.936700
      py      :     1.073639
      dz2     :     0.021698  d :     0.134441
      dxz     :     0.029354
      dyz     :     0.022171
      dx2y2   :     0.028624
      dxy     :     0.032594
  8 C s       :     2.953077  s :     2.953077
      pz      :     1.127364  p :     3.344560
      px      :     1.122745
      py      :     1.094451
      dz2     :     0.010315  d :     0.067435
      dxz     :     0.018221
      dyz     :     0.012642
      dx2y2   :     0.008357
      dxy     :     0.017899
  9 H s       :     0.842149  s :     0.842149
 10 H s       :     0.865812  s :     0.865812
 11 H s       :     0.853007  s :     0.853007
 12 C s       :     2.952834  s :     2.952834
      pz      :     1.136991  p :     3.322745
      px      :     1.113155
      py      :     1.072599
      dz2     :     0.008234  d :     0.067871
      dxz     :     0.013760
      dyz     :     0.017991
      dx2y2   :     0.010478
      dxy     :     0.017409
 13 H s       :     0.843335  s :     0.843335
 14 H s       :     0.846599  s :     0.846599
 15 H s       :     0.862651  s :     0.862651
 16 H s       :     0.865397  s :     0.865397
 17 C s       :     2.879094  s :     2.879094
      pz      :     1.024361  p :     2.942900
      px      :     1.060448
      py      :     0.858091
      dz2     :     0.040938  d :     0.140935
      dxz     :     0.051332
      dyz     :     0.024370
      dx2y2   :     0.011728
      dxy     :     0.012567
 18 C s       :     2.897075  s :     2.897075
      pz      :     1.037189  p :     3.181920
      px      :     1.087591
      py      :     1.057140
      dz2     :     0.028928  d :     0.111242
      dxz     :     0.027555
      dyz     :     0.016616
      dx2y2   :     0.023280
      dxy     :     0.014863
 19 H s       :     0.836673  s :     0.836673
 20 C s       :     2.925004  s :     2.925004
      pz      :     1.080176  p :     3.167434
      px      :     1.042511
      py      :     1.044748
      dz2     :     0.010001  d :     0.088681
      dxz     :     0.031291
      dyz     :     0.009236
      dx2y2   :     0.017400
      dxy     :     0.020753
 21 C s       :     2.899006  s :     2.899006
      pz      :     1.059207  p :     3.152494
      px      :     1.090309
      py      :     1.002978
      dz2     :     0.022495  d :     0.093855
      dxz     :     0.025795
      dyz     :     0.014740
      dx2y2   :     0.018331
      dxy     :     0.012495
 22 S s       :     5.506723  s :     5.506723
      pz      :     3.307447  p :     9.886180
      px      :     3.084216
      py      :     3.494517
      dz2     :     0.035455  d :     0.151598
      dxz     :     0.030204
      dyz     :     0.025854
      dx2y2   :     0.035002
      dxy     :     0.025082
 23 C s       :     2.965064  s :     2.965064
      pz      :     1.112397  p :     3.211411
      px      :     1.021122
      py      :     1.077893
      dz2     :     0.019158  d :     0.086006
      dxz     :     0.025375
      dyz     :     0.012659
      dx2y2   :     0.015584
      dxy     :     0.013229
 24 H s       :     0.722118  s :     0.722118
 25 H s       :     0.837867  s :     0.837867
 26 H s       :     0.832560  s :     0.832560
 27 H s       :     0.813658  s :     0.813658
 28 H s       :     0.813104  s :     0.813104
 29 H s       :     0.805646  s :     0.805646
 30 O s       :     3.504993  s :     3.504993
      pz      :     1.468036  p :     4.718104
      px      :     1.515391
      py      :     1.734676
      dz2     :     0.018058  d :     0.054500
      dxz     :     0.012625
      dyz     :     0.016722
      dx2y2   :     0.003634
      dxy     :     0.003461
 31 O s       :     3.446344  s :     3.446344
      pz      :     1.696064  p :     4.706235
      px      :     1.634442
      py      :     1.375729
      dz2     :     0.009439  d :     0.058659
      dxz     :     0.003327
      dyz     :     0.016352
      dx2y2   :     0.015882
      dxy     :     0.013659
 32 C s       :     2.814022  s :     2.814022
      pz      :     1.011754  p :     2.709865
      px      :     0.751284
      py      :     0.946827
      dz2     :     0.077773  d :     0.323324
      dxz     :     0.043613
      dyz     :     0.109628
      dx2y2   :     0.044942
      dxy     :     0.047369
 33 C s       :     2.960163  s :     2.960163
      pz      :     1.094844  p :     3.354291
      px      :     1.149103
      py      :     1.110343
      dz2     :     0.006458  d :     0.062701
      dxz     :     0.017222
      dyz     :     0.018670
      dx2y2   :     0.017967
      dxy     :     0.002382
 34 H s       :     0.840915  s :     0.840915
 35 H s       :     0.833748  s :     0.833748
 36 H s       :     0.847645  s :     0.847645
 37 H s       :     0.811487  s :     0.811487
 38 H s       :     0.813765  s :     0.813765


                      *****************************
                      * MAYER POPULATION ANALYSIS *
                      *****************************

  NA   - Mulliken gross atomic population
  ZA   - Total nuclear charge
  QA   - Mulliken gross atomic charge
  VA   - Mayer's total valence
  BVA  - Mayer's bonded valence
  FA   - Mayer's free valence

  ATOM       NA         ZA         QA         VA         BVA        FA
  0 Ir    16.3777    17.0000     0.6223     3.7549     3.7549    -0.0000
  1 C      6.2075     6.0000    -0.2075     3.6945     3.6945     0.0000
  2 C      6.2969     6.0000    -0.2969     3.7440     3.7440    -0.0000
  3 C      6.2304     6.0000    -0.2304     3.7280     3.7280    -0.0000
  4 C      6.2453     6.0000    -0.2453     3.7198     3.7198    -0.0000
  5 C      6.1654     6.0000    -0.1654     3.6883     3.6883    -0.0000
  6 N      7.4256     7.0000    -0.4256     3.2162     3.2162    -0.0000
  7 C      6.1154     6.0000    -0.1154     3.6982     3.6982    -0.0000
  8 C      6.6965     6.0000    -0.6965     3.6872     3.6872    -0.0000
  9 H      0.7264     1.0000     0.2736     0.8961     0.8961     0.0000
 10 H      0.7736     1.0000     0.2264     0.9091     0.9091     0.0000
 11 H      0.7392     1.0000     0.2608     0.8972     0.8972    -0.0000
 12 C      6.6406     6.0000    -0.6406     3.6727     3.6727     0.0000
 13 H      0.7188     1.0000     0.2812     0.8752     0.8752     0.0000
 14 H      0.7345     1.0000     0.2655     0.8962     0.8962    -0.0000
 15 H      0.7691     1.0000     0.2309     0.9093     0.9093     0.0000
 16 H      0.7667     1.0000     0.2333     0.9050     0.9050    -0.0000
 17 C      5.9330     6.0000     0.0670     3.6339     3.6339    -0.0000
 18 C      6.2247     6.0000    -0.2247     3.7106     3.7106     0.0000
 19 H      0.7070     1.0000     0.2930     0.8854     0.8854     0.0000
 20 C      6.3959     6.0000    -0.3959     3.4476     3.4476    -0.0000
 21 C      6.1442     6.0000    -0.1442     3.7493     3.7493    -0.0000
 22 S     15.7094    16.0000     0.2906     2.5560     2.5560    -0.0000
 23 C      6.4283     6.0000    -0.4283     3.7407     3.7407     0.0000
 24 H      0.5040     1.0000     0.4960     0.7434     0.7434    -0.0000
 25 H      0.7331     1.0000     0.2669     0.9022     0.9022    -0.0000
 26 H      0.7034     1.0000     0.2966     0.8979     0.8979     0.0000
 27 H      0.7068     1.0000     0.2932     0.9010     0.9010     0.0000
 28 H      0.7053     1.0000     0.2947     0.9038     0.9038    -0.0000
 29 H      0.6922     1.0000     0.3078     0.8912     0.8912    -0.0000
 30 O      8.4821     8.0000    -0.4821     2.1099     2.1099    -0.0000
 31 O      8.5453     8.0000    -0.5453     2.0690     2.0690    -0.0000
 32 C      5.3878     6.0000     0.6122     3.9252     3.9252    -0.0000
 33 C      6.7461     6.0000    -0.7461     3.6694     3.6694    -0.0000
 34 H      0.7313     1.0000     0.2687     0.8957     0.8957     0.0000
 35 H      0.7349     1.0000     0.2651     0.8960     0.8960    -0.0000
 36 H      0.7486     1.0000     0.2514     0.9017     0.9017    -0.0000
 37 H      0.7031     1.0000     0.2969     0.8995     0.8995     0.0000
 38 H      0.7039     1.0000     0.2961     0.9031     0.9031     0.0000

  Mayer bond orders larger than 0.100000
B(  0-Ir,  1-C ) :   0.4209 B(  0-Ir,  2-C ) :   0.5564 B(  0-Ir,  3-C ) :   0.4644 
B(  0-Ir,  4-C ) :   0.4519 B(  0-Ir,  5-C ) :   0.4032 B(  0-Ir,  6-N ) :   0.4638 
B(  0-Ir, 20-C ) :   0.2079 B(  0-Ir, 31-O ) :   0.5945 B(  1-C ,  2-C ) :   1.1118 
B(  1-C ,  4-C ) :   1.2476 B(  1-C , 27-H ) :   0.9027 B(  2-C ,  5-C ) :   1.1287 
B(  2-C , 28-H ) :   0.9061 B(  3-C ,  4-C ) :   1.1032 B(  3-C ,  5-C ) :   1.2357 
B(  3-C , 37-H ) :   0.9021 B(  4-C , 38-H ) :   0.8971 B(  5-C , 29-H ) :   0.8974 
B(  6-N ,  7-C ) :   0.8907 B(  6-N , 17-C ) :   1.7018 B(  7-C ,  8-C ) :   0.9929 
B(  7-C , 12-C ) :   0.9697 B(  7-C , 13-H ) :   0.8710 B(  8-C ,  9-H ) :   0.9031 
B(  8-C , 10-H ) :   0.9121 B(  8-C , 11-H ) :   0.9077 B( 12-C , 14-H ) :   0.9061 
B( 12-C , 15-H ) :   0.9152 B( 12-C , 16-H ) :   0.9104 B( 17-C , 18-C ) :   1.0441 
B( 17-C , 19-H ) :   0.8735 B( 18-C , 20-C ) :   1.3110 B( 18-C , 22-S ) :   1.2125 
B( 20-C , 21-C ) :   1.2633 B( 20-C , 24-H ) :   0.5105 B( 21-C , 23-C ) :   1.5477 
B( 21-C , 25-H ) :   0.9040 B( 22-S , 23-C ) :   1.2009 B( 23-C , 26-H ) :   0.8928 
B( 24-H , 30-O ) :   0.2149 B( 30-O , 32-C ) :   1.7149 B( 31-O , 32-C ) :   1.2589 
B( 32-C , 33-C ) :   0.9464 B( 33-C , 34-H ) :   0.9057 B( 33-C , 35-H ) :   0.8995 
B( 33-C , 36-H ) :   0.9099 


------------------
HIRSHFELD ANALYSIS
------------------

Total integrated alpha density =     82.000338563
Total integrated beta density  =     82.000338563

  ATOM     CHARGE      SPIN    
   0 Ir   0.211822    0.000000
   1 C    0.008411    0.000000
   2 C    0.005147    0.000000
   3 C    0.005643    0.000000
   4 C   -0.003550    0.000000
   5 C    0.018369    0.000000
   6 N   -0.067104    0.000000
   7 C    0.054637    0.000000
   8 C   -0.070648    0.000000
   9 H    0.054386    0.000000
  10 H    0.038091    0.000000
  11 H    0.044247    0.000000
  12 C   -0.070111    0.000000
  13 H    0.047557    0.000000
  14 H    0.051887    0.000000
  15 H    0.036655    0.000000
  16 H    0.030683    0.000000
  17 C    0.102989    0.000000
  18 C   -0.007588    0.000000
  19 H    0.078580    0.000000
  20 C   -0.061274    0.000000
  21 C   -0.035384    0.000000
  22 S    0.114494    0.000000
  23 C   -0.027551    0.000000
  24 H    0.056641    0.000000
  25 H    0.069297    0.000000
  26 H    0.077144    0.000000
  27 H    0.084943    0.000000
  28 H    0.086815    0.000000
  29 H    0.095526    0.000000
  30 O   -0.261488    0.000000
  31 O   -0.262172    0.000000
  32 C    0.240021    0.000000
  33 C   -0.068939    0.000000
  34 H    0.053615    0.000000
  35 H    0.058278    0.000000
  36 H    0.047332    0.000000
  37 H    0.086543    0.000000
  38 H    0.075381    0.000000

  TOTAL   0.999323    0.000000

-------
TIMINGS
-------

Total SCF time: 0 days 0 hours 4 min 26 sec 

Total time                  ....     266.491 sec
Sum of individual times     ....     265.640 sec  ( 99.7%)

Fock matrix formation       ....     257.289 sec  ( 96.5%)
  Split-RI-J                ....      20.660 sec  (  8.0% of F)
  Chain of spheres X        ....     221.489 sec  ( 86.1% of F)
  XC integration            ....      14.496 sec  (  5.6% of F)
    Basis function eval.    ....       6.679 sec  ( 46.1% of XC)
    Density eval.           ....       3.743 sec  ( 25.8% of XC)
    XC-Functional eval.     ....       1.072 sec  (  7.4% of XC)
    XC-Potential eval.      ....       2.479 sec  ( 17.1% of XC)
Diagonalization             ....       0.242 sec  (  0.1%)
Density matrix formation    ....       0.038 sec  (  0.0%)
Population analysis         ....       1.450 sec  (  0.5%)
Initial guess               ....       0.028 sec  (  0.0%)
Orbital Transformation      ....       0.000 sec  (  0.0%)
Orbital Orthonormalization  ....       0.022 sec  (  0.0%)
DIIS solution               ....       0.086 sec  (  0.0%)
Grid generation             ....       6.506 sec  (  2.4%)

Maximum memory used throughout the entire SCF-calculation: 173.7 MB


-------------------------------------------------------------------------------
                          DFT DISPERSION CORRECTION                            
                                                                               
                              DFTD3 V3.1  Rev 1                                
                          USING Becke-Johnson damping                          
-------------------------------------------------------------------------------
The PBEh-3c composite method is recognized
Using three-body term ABC
Active option DFTDOPT                   ...         4   

molecular C6(AA) [au] = 19582.255270 


            DFT-D V3
 parameters
 s6 scaling factor         :     1.0000 
 a1 scaling factor         :     0.4860 
 s8 scaling factor         :     0.0000 
 a2 scaling factor         :     4.5000 
 Damping factor alpha9(ATM):    16.0000 
 ad hoc parameters k1-k3   :    16.0000     1.3333    -4.0000 

 Edisp/kcal,au: -19.385018277441  -0.030891989700 
 E6   /kcal   : -19.736168452 
 E8   /kcal   :  -0.000000000 
 E6(ABC)      :   0.351150174 
 % E8         :   0.000000000 
 % E6(ABC)    :  -1.811451346 

-------------------------   ----------------
Dispersion correction           -0.030891990
-------------------------   ----------------

 ** NOTE ** -> element ir will be treated as co
NOTIFICATION: Different basis set in ORCA and otool_gcp:
ORCA: 358  gCP: 357 
If you are NOT using ECPs, check your basis set inputs!
------------------   -----------------
gCP correction             0.077229224
------------------   -----------------

-------------------------   --------------------
FINAL SINGLE POINT ENERGY     -1288.396113739869
-------------------------   --------------------

                                *** OPTIMIZATION RUN DONE ***

                            ***************************************
                            *     ORCA property calculations      *
                            ***************************************

                                    ---------------------
                                    Active property flags
                                    ---------------------
   (+) Dipole Moment


------------------------------------------------------------------------------
                       ORCA ELECTRIC PROPERTIES CALCULATION
------------------------------------------------------------------------------

Dipole Moment Calculation                       ... on
Quadrupole Moment Calculation                   ... off
Polarizability Calculation                      ... off
GBWName                                         ... reaction4-IEIP_ts_guess_scan_1-5_orca.gbw
Electron density                                ... reaction4-IEIP_ts_guess_scan_1-5_orca.scfp
The origin for moment calculation is the CENTER OF MASS  = ( 0.841053, -0.646408 -0.115590)

-------------
DIPOLE MOMENT
-------------
                                X             Y             Z
Electronic contribution:     33.88587     -68.01418      74.26134
Nuclear contribution   :    -34.52715      66.71290     -74.47788
                        -----------------------------------------
Total Dipole Moment    :     -0.64128      -1.30128      -0.21654
                        -----------------------------------------
Magnitude (a.u.)       :      1.46679
Magnitude (Debye)      :      3.72828



--------------------
Rotational spectrum 
--------------------
 
Rotational constants in cm-1:     0.010747     0.009068     0.008251 
Rotational constants in MHz :   322.189875   271.864705   247.347610 

 Dipole components along the rotational axes: 
x,y,z [a.u.] :    -0.240703    -0.536557     1.343740 
x,y,z [Debye]:    -0.611819    -1.363819     3.415515 

 

Timings for individual modules:

Sum of individual times         ...     4410.327 sec (=  73.505 min)
GTO integral calculation        ...       13.542 sec (=   0.226 min)   0.3 %
SCF iterations                  ...     3592.937 sec (=  59.882 min)  81.5 %
SCF Gradient evaluation         ...      802.000 sec (=  13.367 min)  18.2 %
Geometry relaxation             ...        1.849 sec (=   0.031 min)   0.0 %
                             ****ORCA TERMINATED NORMALLY****
TOTAL RUN TIME: 0 days 1 hours 13 minutes 33 seconds 112 msec
