
                                 *****************
                                 * O   R   C   A *
                                 *****************

                                            #,                                       
                                            ###                                      
                                            ####                                     
                                            #####                                    
                                            ######                                   
                                           ########,                                 
                                     ,,################,,,,,                         
                               ,,#################################,,                 
                          ,,##########################################,,             
                       ,#########################################, ''#####,          
                    ,#############################################,,   '####,        
                  ,##################################################,,,,####,       
                ,###########''''           ''''###############################       
              ,#####''   ,,,,##########,,,,          '''####'''          '####       
            ,##' ,,,,###########################,,,                        '##       
           ' ,,###''''                  '''############,,,                           
         ,,##''                                '''############,,,,        ,,,,,,###''
      ,#''                                            '''#######################'''  
     '                                                          ''''####''''         
             ,#######,   #######,   ,#######,      ##                                
            ,#'     '#,  ##    ##  ,#'     '#,    #''#        ######   ,####,        
            ##       ##  ##   ,#'  ##            #'  '#       #        #'  '#        
            ##       ##  #######   ##           ,######,      #####,   #    #        
            '#,     ,#'  ##    ##  '#,     ,#' ,#      #,         ##   #,  ,#        
             '#######'   ##     ##  '#######'  #'      '#     #####' # '####'        



                  #######################################################
                  #                        -***-                        #
                  #          Department of theory and spectroscopy      #
                  #    Directorship and core code : Frank Neese         #
                  #        Max Planck Institute fuer Kohlenforschung    #
                  #                Kaiser Wilhelm Platz 1               #
                  #                 D-45470 Muelheim/Ruhr               #
                  #                      Germany                        #
                  #                                                     #
                  #                  All rights reserved                #
                  #                        -***-                        #
                  #######################################################


                         Program Version 5.0.3 -  RELEASE  -


 With contributions from (in alphabetic order):
   Daniel Aravena         : Magnetic Suceptibility
   Michael Atanasov       : Ab Initio Ligand Field Theory (pilot matlab implementation)
   Alexander A. Auer      : GIAO ZORA, VPT2 properties, NMR spectrum
   Ute Becker             : Parallelization
   Giovanni Bistoni       : ED, misc. LED, open-shell LED, HFLD
   Martin Brehm           : Molecular dynamics
   Dmytro Bykov           : SCF Hessian
   Vijay G. Chilkuri      : MRCI spin determinant printing, contributions to CSF-ICE
   Dipayan Datta          : RHF DLPNO-CCSD density
   Achintya Kumar Dutta   : EOM-CC, STEOM-CC
   Dmitry Ganyushin       : Spin-Orbit,Spin-Spin,Magnetic field MRCI
   Miquel Garcia          : C-PCM and meta-GGA Hessian, CC/C-PCM, Gaussian charge scheme
   Yang Guo               : DLPNO-NEVPT2, F12-NEVPT2, CIM, IAO-localization
   Andreas Hansen         : Spin unrestricted coupled pair/coupled cluster methods
   Benjamin Helmich-Paris : MC-RPA, TRAH-SCF, COSX integrals
   Lee Huntington         : MR-EOM, pCC
   Robert Izsak           : Overlap fitted RIJCOSX, COSX-SCS-MP3, EOM
   Marcus Kettner         : VPT2
   Christian Kollmar      : KDIIS, OOCD, Brueckner-CCSD(T), CCSD density, CASPT2, CASPT2-K
   Simone Kossmann        : Meta GGA functionals, TD-DFT gradient, OOMP2, MP2 Hessian
   Martin Krupicka        : Initial AUTO-CI
   Lucas Lang             : DCDCAS
   Marvin Lechner         : AUTO-CI (C++ implementation), FIC-MRCC
   Dagmar Lenk            : GEPOL surface, SMD
   Dimitrios Liakos       : Extrapolation schemes; Compound Job, initial MDCI parallelization
   Dimitrios Manganas     : Further ROCIS development; embedding schemes
   Dimitrios Pantazis     : SARC Basis sets
   Anastasios Papadopoulos: AUTO-CI, single reference methods and gradients
   Taras Petrenko         : DFT Hessian,TD-DFT gradient, ASA, ECA, R-Raman, ABS, FL, XAS/XES, NRVS
   Peter Pinski           : DLPNO-MP2, DLPNO-MP2 Gradient
   Christoph Reimann      : Effective Core Potentials
   Marius Retegan         : Local ZFS, SOC
   Christoph Riplinger    : Optimizer, TS searches, QM/MM, DLPNO-CCSD(T), (RO)-DLPNO pert. Triples
   Tobias Risthaus        : Range-separated hybrids, TD-DFT gradient, RPA, STAB
   Michael Roemelt        : Original ROCIS implementation
   Masaaki Saitow         : Open-shell DLPNO-CCSD energy and density
   Barbara Sandhoefer     : DKH picture change effects
   Avijit Sen             : IP-ROCIS
   Kantharuban Sivalingam : CASSCF convergence, NEVPT2, FIC-MRCI
   Bernardo de Souza      : ESD, SOC TD-DFT
   Georgi Stoychev        : AutoAux, RI-MP2 NMR, DLPNO-MP2 response
   Willem Van den Heuvel  : Paramagnetic NMR
   Boris Wezisla          : Elementary symmetry handling
   Frank Wennmohs         : Technical directorship


 We gratefully acknowledge several colleagues who have allowed us to
 interface, adapt or use parts of their codes:
   Stefan Grimme, W. Hujo, H. Kruse, P. Pracht,  : VdW corrections, initial TS optimization,
                  C. Bannwarth, S. Ehlert          DFT functionals, gCP, sTDA/sTD-DF
   Ed Valeev, F. Pavosevic, A. Kumar             : LibInt (2-el integral package), F12 methods
   Garnet Chan, S. Sharma, J. Yang, R. Olivares  : DMRG
   Ulf Ekstrom                                   : XCFun DFT Library
   Mihaly Kallay                                 : mrcc  (arbitrary order and MRCC methods)
   Jiri Pittner, Ondrej Demel                    : Mk-CCSD
   Frank Weinhold                                : gennbo (NPA and NBO analysis)
   Christopher J. Cramer and Donald G. Truhlar   : smd solvation model
   Lars Goerigk                                  : TD-DFT with DH, B97 family of functionals
   V. Asgeirsson, H. Jonsson                     : NEB implementation
   FAccTs GmbH                                   : IRC, NEB, NEB-TS, DLPNO-Multilevel, CI-OPT
                                                   MM, QMMM, 2- and 3-layer-ONIOM, Crystal-QMMM,
                                                   LR-CPCM, SF, NACMEs, symmetry and pop. for TD-DFT,
                                                   nearIR, NL-DFT gradient (VV10), updates on ESD,
                                                   ML-optimized integration grids
   S Lehtola, MJT Oliveira, MAL Marques          : LibXC Library
   Liviu Ungur et al                             : ANISO software


 Your calculation uses the libint2 library for the computation of 2-el integrals
 For citations please refer to: http://libint.valeyev.net

 Your ORCA version has been built with support for libXC version: 5.1.0
 For citations please refer to: https://tddft.org/programs/libxc/

 This ORCA versions uses:
   CBLAS   interface :  Fast vector & matrix operations
   LAPACKE interface :  Fast linear algebra routines
   SCALAPACK package :  Parallel linear algebra routines
   Shared memory     :  Shared parallel matrices
   BLAS/LAPACK       :  OpenBLAS 0.3.15  USE64BITINT DYNAMIC_ARCH NO_AFFINITY SkylakeX SINGLE_THREADED
        Core in use  :  SkylakeX
   Copyright (c) 2011-2014, The OpenBLAS Project


Your calculation utilizes the geometrical counterpoise correction gCP
Please cite in your paper:
H.Kruse, S. Grimme J.Chem.Phys., 136, (2012), 154101 
   

Your calculation utilizes the atom-pairwise dispersion correction
with the Becke-Johnson damping scheme (D3BJ)
Cite in your paper:
S.Grimme, S.Ehrlich, L.Goerigk, J Comput Chem, (2011), 32, 1456–1465 
S.Grimme, J.Antony, S.Ehrlich and H.Krieg, J.Chem.Phys., 132, (2010), 154104 
   

Your calculation employs the composite approach PBEh-3c.
Please cite in your paper:
S. Grimme, J. G. Brandenburg, C. Bannwarth, A. Hansen J.Chem.Phys., 143, (2015), 054107 
   

================================================================================

cite the ECPs for Ir [Def2-ECP] as follows:
Ce-Yb(ecp-28): M. Dolg, H. Stoll, H.Preuss, J. Chem. Phys., 1989, 90, 1730-1734.
Y-Cd(ecp-28), Hf-Hg(ecp-46): D. Andrae,U. Haeussermann, M. Dolg, H. Stoll, H. Preuss, Theor. Chim. Acta, 1990, 77, 123-141.
In-Sb(ecp-28), Tl-Bi(ecp-46): B. Metz, H. Stoll, M. Dolg, J. Chem. Phys., 2000, 113, 2563-2569.
Te-Xe(ecp-28), Po-Rn(ecp-46): K. A. Peterson, D. Figgen, E. Goll, H. Stoll, M. Dolg, J. Chem. Phys., 2003, 119, 11113-11123.
Rb(ecp-28), Cs(ecp-46): T. Leininger, A. Nicklass, W. Kuechle, H. Stoll, M. Dolg, A. Bergner, Chem. Phys. Lett., 1996, 255, 274-280.
Sr(ecp-28), Ba(ecp-46): M. Kaupp, P. V. Schleyer, H. Stoll and H. Preuss, J. Chem. Phys., 1991, 94, 1360-1366.
La(ecp-46): M. Dolg, H. Stoll, A. Savin, H. Preuss, Theor. Chim. Acta, 1989, 75, 173-194.
Lu(ecp-28): X. Cao, M. Dolg, J. Chem. Phys., 2001, 115, 7348-7355.

ECP parameters for Ir [Def2-ECP] have been obtained from:
TURBOMOLE (7.0.2)

----- Orbital basis set information -----
Your calculation utilizes the basis: def2-mSVP

----- AuxJ basis set information -----
Your calculation utilizes the auxiliary basis: def2/J
   F. Weigend, Phys. Chem. Chem. Phys. 8, 1057 (2006).

================================================================================
                                        WARNINGS
                       Please study these warnings very carefully!
================================================================================


WARNING: Geometry Optimization
  ===> : Switching off AutoStart
         For restart on a previous wavefunction, please use MOREAD

WARNING: No Hueckel Guess possible with ECP basis!
  ===> : Switching to HCORE guess!

INFO   : the flag for use of the SHARK integral package has been found!

================================================================================
                                       INPUT FILE
================================================================================
NAME = reaction4-IEIP_ts_guess_scan_12-12_orca.inp
|  1> ! Opt PBEh-3c
|  2> %geom Constraints
|  3> { B 0 20 2.085714285714286 C }
|  4> { B 24 30 1.3285714285714287 C }
|  5>     end
|  6> end
|  7> %output 
|  8> xyzfile=True 
|  9> end 
| 10> %scf 
| 11> maxiter 250 
| 12> end
| 13> %output
| 14> Print[P_Hirshfeld] = 1
| 15> end
| 16> % maxcore
| 17> 4000
| 18> *xyz 1 1
| 19> Ir   0.61040593  -0.73894658   0.42694530 
| 20> C    0.14081192  -2.85085722   0.35102379 
| 21> C   -0.10208274  -2.39676578   1.69631547 
| 22> C    2.13708797  -2.06896629   1.21321185 
| 23> C    1.51318777  -2.66630744   0.06637992 
| 24> C    1.13078291  -1.93571285   2.21134705 
| 25> N   -1.07151878   0.10831817  -0.50834122 
| 26> C   -2.34740049   0.29404909   0.19962697 
| 27> C   -3.14047459   1.50506184  -0.27097028 
| 28> H   -3.97426827   1.66591484   0.41052389 
| 29> H   -3.57140089   1.37109486  -1.26407599 
| 30> H   -2.53670546   2.41286353  -0.26981634 
| 31> C   -3.17129224  -0.98488144   0.09906007 
| 32> H   -2.07245672   0.45513781   1.24317217 
| 33> H   -4.07983852  -0.89009958   0.69244277 
| 34> H   -3.46542936  -1.18192810  -0.93264477 
| 35> H   -2.62722006  -1.85281228   0.46799648 
| 36> C   -0.91994825   0.47478203  -1.72824095 
| 37> C    0.39592766   0.31155808  -2.26623275 
| 38> H   -1.73136471   0.90897543  -2.30349334 
| 39> C    1.43213836   0.04770761  -1.37215101 
| 40> C    2.64452755  -0.17625326  -2.09263569 
| 41> S    0.88492070   0.31737495  -3.89234903 
| 42> C    2.49354190  -0.05508614  -3.44164288 
| 43> H    1.64398749   1.16504336  -0.63544272 
| 44> H    3.60140369  -0.36153633  -1.62628838 
| 45> H    3.25471554  -0.14732917  -4.20148680 
| 46> H   -0.58596719  -3.29136663  -0.31574547 
| 47> H   -1.03553950  -2.44587205   2.23571925 
| 48> H    1.27269094  -1.48650625   3.18420063 
| 49> O    1.76014415   2.29033949   0.08807752 
| 50> O    0.58157347   1.03694607   1.49932320 
| 51> C    1.15783322   2.11548873   1.17124419 
| 52> C    1.13419541   3.24142328   2.16089014 
| 53> H    1.00658090   4.19516386   1.65368178 
| 54> H    2.09498510   3.27813989   2.67720336 
| 55> H    0.35266643   3.10427062   2.90256789 
| 56> H    3.18555506  -1.84403454   1.33255217 
| 57> H    2.00261383  -2.92520163  -0.86120817 
| 58> *
| 59> 
| 60>                          ****END OF INPUT****
================================================================================

                       *****************************
                       * Geometry Optimization Run *
                       *****************************

Geometry optimization settings:
Update method            Update   .... BFGS
Choice of coordinates    CoordSys .... Z-matrix Internals
Initial Hessian          InHess   .... Almoef's Model

Convergence Tolerances:
Energy Change            TolE     ....  5.0000e-06 Eh
Max. Gradient            TolMAXG  ....  3.0000e-04 Eh/bohr
RMS Gradient             TolRMSG  ....  1.0000e-04 Eh/bohr
Max. Displacement        TolMAXD  ....  4.0000e-03 bohr
RMS Displacement         TolRMSD  ....  2.0000e-03 bohr
Strict Convergence                ....  False
------------------------------------------------------------------------------
                        ORCA OPTIMIZATION COORDINATE SETUP
------------------------------------------------------------------------------

The optimization will be done in new redundant internal coordinates
Making redundant internal coordinates   ...  (new redundants) done
Evaluating the initial hessian          ...  (Almloef) done
Evaluating the coordinates              ...  done
Calculating the B-matrix                .... done
Calculating the G-matrix                .... done
Diagonalizing the G-matrix              .... done
Imposing constraints:
 Iter   0:  RMS(Cart)=    0.0165515704 RMS(Int)=    0.0108091444
 Iter   1:  RMS(Cart)=    0.0030080701 RMS(Int)=    0.0021060047
 Iter   2:  RMS(Cart)=    0.0005853368 RMS(Int)=    0.0004141667
 Iter   3:  RMS(Cart)=    0.0001150018 RMS(Int)=    0.0000815584
 Iter   4:  RMS(Cart)=    0.0000226382 RMS(Int)=    0.0000160650
 Iter   5:  RMS(Cart)=    0.0000044586 RMS(Int)=    0.0000031646
 Iter   6:  RMS(Cart)=    0.0000008783 RMS(Int)=    0.0000006234
 Iter   7:  RMS(Cart)=    0.0000001730 RMS(Int)=    0.0000001228
 Iter   8:  RMS(Cart)=    0.0000000341 RMS(Int)=    0.0000000242
CONVERGED
Small eigenvalue found = 1.442e-02
Small eigenvalue found = 2.366e-02
The first mode is                       ....  288
The number of degrees of freedom        ....  111
Storing new coordinates                 .... done

    -----------------------------------------------------------------
                    Redundant Internal Coordinates


    -----------------------------------------------------------------
         Definition                    Initial Value    Approx d2E/dq
    -----------------------------------------------------------------
      1. B(C   1,Ir  0)                  2.1644         0.084433   
      2. B(C   2,Ir  0)                  2.2057         0.072527   
      3. B(C   2,C   1)                  1.4407         0.519024   
      4. B(C   3,Ir  0)                  2.1717         0.082211   
      5. B(C   4,C   3)                  1.4355         0.528196   
      6. B(C   4,Ir  0)                  2.1584         0.086371   
      7. B(C   4,C   1)                  1.4144         0.572738   
      8. B(C   5,Ir  0)                  2.2100         0.071341   
      9. B(C   5,C   2)                  1.4147         0.573267   
     10. B(C   5,C   3)                  1.4251         0.552214   
     11. B(N   6,Ir  0)                  2.1031         0.094996   
     12. B(C   7,N   6)                  1.4709         0.415702   
     13. B(C   8,C   7)                  1.5222         0.384486   
     14. B(H   9,C   8)                  1.0888         0.361670   
     15. B(H  10,C   8)                  1.0908         0.359008   
     16. B(H  11,C   8)                  1.0903         0.359771   
     17. B(C  12,C   7)                  1.5247         0.380982   
     18. B(H  13,C   7)                  1.0911         0.358629   
     19. B(H  14,C  12)                  1.0893         0.361046   
     20. B(H  15,C  12)                  1.0908         0.359095   
     21. B(H  16,C  12)                  1.0888         0.361723   
     22. B(C  17,N   6)                  1.2768         0.829851   
     23. B(C  18,C  17)                  1.4255         0.537541   
     24. B(H  19,C  17)                  1.0853         0.366396   
     25. B(C  20,Ir  0)                  2.0857         0.096460 C 
     26. B(C  20,C  18)                  1.3950         0.616092   
     27. B(C  21,C  20)                  1.4285         0.543418   
     28. B(S  22,C  18)                  1.6980         0.543274   
     29. B(C  23,C  21)                  1.3627         0.690384   
     30. B(C  23,S  22)                  1.7110         0.516936   
     31. B(H  24,C  20)                  1.3551         0.136023   
     32. B(H  25,C  21)                  1.0805         0.372926   
     33. B(H  26,C  23)                  1.0795         0.374302   
     34. B(H  27,C   1)                  1.0802         0.373297   
     35. B(H  28,C   2)                  1.0792         0.374651   
     36. B(H  29,C   5)                  1.0809         0.372327   
     37. B(O  30,H  24)                  1.3286         0.127392 C 
     38. B(O  31,Ir  0)                  2.0750         0.105278   
     39. B(C  32,O  30)                  1.2484         0.930295   
     40. B(C  32,O  31)                  1.2634         0.882221   
     41. B(C  33,C  32)                  1.4992         0.418284   
     42. B(H  34,C  33)                  1.0877         0.363109   
     43. B(H  35,C  33)                  1.0913         0.358319   
     44. B(H  36,C  33)                  1.0861         0.365252   
     45. B(H  37,C   3)                  1.0789         0.375027   
     46. B(H  38,C   4)                  1.0803         0.373204   
     47. A(C   3,Ir  0,C  20)          104.9481         0.250135   
     48. A(C   2,Ir  0,N   6)          107.3638         0.243970   
     49. A(C   5,Ir  0,C  20)          142.1978         0.245044   
     50. A(C   2,Ir  0,C   5)           37.3724         0.235291   
     51. A(N   6,Ir  0,O  31)           82.7688         0.256402   
     52. A(N   6,Ir  0,C  20)           77.7200         0.254302   
     53. A(C   4,Ir  0,C   5)           63.4937         0.241191   
     54. A(C   1,Ir  0,C   4)           38.1979         0.247107   
     55. A(C   5,Ir  0,O  31)           92.7668         0.247026   
     56. A(C   3,Ir  0,C   4)           38.7202         0.246156   
     57. A(C   1,Ir  0,O  31)          148.1753         0.253169   
     58. A(C   1,Ir  0,N   6)          101.6982         0.249394   
     59. A(C   4,Ir  0,N   6)          128.2989         0.250220   
     60. A(C   2,Ir  0,C   3)           63.8809         0.240063   
     61. A(C   3,Ir  0,O  31)          110.2878         0.252181   
     62. A(C   1,Ir  0,C   2)           38.4824         0.240977   
     63. A(C   4,Ir  0,C  20)           91.4058         0.251945   
     64. A(C   2,Ir  0,C  20)          152.6117         0.245628   
     65. A(C   1,Ir  0,C  20)          114.3928         0.251110   
     66. A(C   1,Ir  0,C   3)           64.4301         0.245351   
     67. A(C   1,Ir  0,C   5)           63.3803         0.240411   
     68. A(C   2,Ir  0,O  31)          109.8922         0.247617   
     69. A(C   5,Ir  0,N   6)          139.8645         0.243393   
     70. A(C   2,Ir  0,C   4)           63.9598         0.241760   
     71. A(C   4,Ir  0,O  31)          148.9139         0.254014   
     72. A(C   3,Ir  0,C   5)           37.9472         0.239500   
     73. A(C   3,Ir  0,N   6)          165.8877         0.248429   
     74. A(C  20,Ir  0,O  31)           97.3897         0.258193   
     75. A(C   2,C   1,H  27)          126.2544         0.344575   
     76. A(C   4,C   1,H  27)          125.5880         0.350335   
     77. A(Ir  0,C   1,C   2)           72.3093         0.312788   
     78. A(Ir  0,C   1,H  27)          124.4472         0.268639   
     79. A(C   2,C   1,C   4)          108.1205         0.414562   
     80. A(Ir  0,C   1,C   4)           70.6683         0.317832   
     81. A(Ir  0,C   2,C   1)           69.2083         0.305220   
     82. A(C   1,C   2,C   5)          107.1972         0.414630   
     83. A(Ir  0,C   2,H  28)          126.9628         0.262706   
     84. A(C   5,C   2,H  28)          125.9816         0.350604   
     85. A(Ir  0,C   2,C   5)           71.4780         0.310140   
     86. A(C   1,C   2,H  28)          126.7451         0.344784   
     87. A(C   4,C   3,H  37)          126.6703         0.345859   
     88. A(C   5,C   3,H  37)          126.1636         0.348457   
     89. A(C   4,C   3,C   5)          106.9614         0.413167   
     90. A(Ir  0,C   3,C   4)           70.1391         0.312325   
     91. A(Ir  0,C   3,C   5)           72.4847         0.314584   
     92. A(Ir  0,C   3,H  37)          126.5568         0.267745   
     93. A(Ir  0,C   4,C   1)           71.1338         0.319011   
     94. A(C   3,C   4,H  38)          126.0381         0.345576   
     95. A(Ir  0,C   4,C   3)           71.1407         0.314834   
     96. A(Ir  0,C   4,H  38)          123.1713         0.269554   
     97. A(C   1,C   4,H  38)          125.5542         0.350320   
     98. A(C   1,C   4,C   3)          108.4059         0.415856   
     99. A(Ir  0,C   5,H  29)          122.1766         0.261816   
    100. A(C   2,C   5,H  29)          125.3221         0.350236   
    101. A(C   3,C   5,H  29)          125.2603         0.348033   
    102. A(Ir  0,C   5,C   3)           69.5682         0.307458   
    103. A(C   2,C   5,C   3)          109.2805         0.419231   
    104. A(Ir  0,C   5,C   2)           71.1497         0.309316   
    105. A(Ir  0,N   6,C  17)          116.2073         0.340679   
    106. A(C   7,N   6,C  17)          121.6775         0.420198   
    107. A(Ir  0,N   6,C   7)          122.1074         0.304227   
    108. A(C   8,C   7,H  13)          108.0302         0.325638   
    109. A(C  12,C   7,H  13)          108.8499         0.325148   
    110. A(N   6,C   7,C   8)          113.8027         0.369577   
    111. A(N   6,C   7,C  12)          109.3334         0.368996   
    112. A(C   8,C   7,C  12)          111.4336         0.366375   
    113. A(N   6,C   7,H  13)          105.0936         0.327874   
    114. A(C   7,C   8,H   9)          108.8452         0.326091   
    115. A(C   7,C   8,H  10)          112.9289         0.325694   
    116. A(H   9,C   8,H  10)          106.5862         0.290899   
    117. A(C   7,C   8,H  11)          111.9370         0.325808   
    118. A(H   9,C   8,H  11)          107.4823         0.290996   
    119. A(H  10,C   8,H  11)          108.7834         0.290659   
    120. A(C   7,C  12,H  14)          109.9864         0.325507   
    121. A(C   7,C  12,H  15)          111.0781         0.325217   
    122. A(H  14,C  12,H  15)          107.8215         0.290832   
    123. A(C   7,C  12,H  16)          112.1047         0.325608   
    124. A(H  14,C  12,H  16)          107.5519         0.291165   
    125. A(H  15,C  12,H  16)          108.1350         0.290917   
    126. A(N   6,C  17,C  18)          115.0020         0.442950   
    127. A(N   6,C  17,H  19)          122.3529         0.369689   
    128. A(C  18,C  17,H  19)          122.6215         0.345525   
    129. A(C  17,C  18,S  22)          128.5281         0.436020   
    130. A(C  20,C  18,S  22)          113.7275         0.446900   
    131. A(C  17,C  18,C  20)          117.6664         0.422620   
    132. A(C  18,C  20,C  21)          109.5228         0.423442   
    133. A(Ir  0,C  20,H  24)           84.9352         0.236318   
    134. A(C  18,C  20,H  24)          107.9479         0.300414   
    135. A(C  21,C  20,H  24)          105.5166         0.294493   
    136. A(Ir  0,C  20,C  18)          109.5588         0.328762   
    137. A(Ir  0,C  20,C  21)          133.6841         0.322046   
    138. A(C  20,C  21,C  23)          113.1565         0.432172   
    139. A(C  20,C  21,H  25)          124.0737         0.347187   
    140. A(C  23,C  21,H  25)          122.6636         0.361561   
    141. A(C  18,S  22,C  23)           90.9962         0.457111   
    142. A(C  21,C  23,S  22)          112.5867         0.452135   
    143. A(C  21,C  23,H  26)          127.6665         0.361788   
    144. A(S  22,C  23,H  26)          119.7335         0.362434   
    145. L(C  20,H  24,O  30,Ir  0, 1) 179.3789         0.215496   
    146. L(C  20,H  24,O  30,Ir  0, 2) 184.4392         0.215496   
    147. A(H  24,O  30,C  32)          107.5116         0.313141   
    148. A(Ir  0,O  31,C  32)          125.9294         0.350195   
    149. A(O  30,C  32,O  31)          123.7553         0.491981   
    150. A(O  30,C  32,C  33)          118.5176         0.432175   
    151. A(O  31,C  32,C  33)          117.7148         0.428078   
    152. A(C  32,C  33,H  34)          110.6429         0.330872   
    153. A(C  32,C  33,H  35)          108.8854         0.330147   
    154. A(H  34,C  33,H  35)          107.1209         0.290993   
    155. A(C  32,C  33,H  36)          111.5474         0.331195   
    156. A(H  34,C  33,H  36)          110.1647         0.291871   
    157. A(H  35,C  33,H  36)          108.3402         0.291262   
    158. D(C   4,C   1,Ir  0,C   5)    -80.1924         0.001696   
    159. D(H  27,C   1,Ir  0,C   5)    159.3280         0.001696   
    160. D(C   4,C   1,Ir  0,C  20)     57.8094         0.001696   
    161. D(C   2,C   1,Ir  0,N   6)   -103.2555         0.001696   
    162. D(C   2,C   1,Ir  0,C   3)     79.4917         0.001696   
    163. D(H  27,C   1,Ir  0,C   3)   -158.2368         0.001696   
    164. D(C   4,C   1,Ir  0,N   6)    139.4955         0.001696   
    165. D(H  27,C   1,Ir  0,O  31)    114.1715         0.001696   
    166. D(C   2,C   1,Ir  0,C   4)    117.2490         0.001696   
    167. D(H  27,C   1,Ir  0,C  20)    -62.6701         0.001696   
    168. D(C   2,C   1,Ir  0,C  20)    175.0584         0.001696   
    169. D(C   4,C   1,Ir  0,C   3)    -37.7573         0.001696   
    170. D(C   4,C   1,Ir  0,C   2)   -117.2490         0.001696   
    171. D(C   2,C   1,Ir  0,C   5)     37.0565         0.001696   
    172. D(H  27,C   1,Ir  0,C   4)   -120.4795         0.001696   
    173. D(C   4,C   1,Ir  0,O  31)   -125.3489         0.001696   
    174. D(H  27,C   1,Ir  0,C   2)    122.2715         0.001696   
    175. D(C   2,C   1,Ir  0,O  31)     -8.1000         0.001696   
    176. D(H  27,C   1,Ir  0,N   6)     19.0160         0.001696   
    177. D(C   1,C   2,Ir  0,C   5)   -117.4350         0.001646   
    178. D(H  28,C   2,C   1,C   4)   -176.7554         0.021376   
    179. D(C   5,C   2,C   1,H  27)    178.0875         0.021376   
    180. D(C   1,C   2,Ir  0,N   6)     87.0215         0.001646   
    181. D(C   1,C   2,Ir  0,C   3)    -81.0428         0.001646   
    182. D(C   1,C   2,Ir  0,C   4)    -37.7247         0.001646   
    183. D(H  28,C   2,C   1,Ir  0)    121.2776         0.021376   
    184. D(C   5,C   2,Ir  0,C  20)    107.6158         0.001646   
    185. D(H  28,C   2,Ir  0,C   1)   -121.0076         0.001646   
    186. D(H  28,C   2,C   1,H  27)      1.1218         0.021376   
    187. D(H  28,C   2,Ir  0,N   6)    -33.9861         0.001646   
    188. D(C   5,C   2,Ir  0,C   3)     36.3922         0.001646   
    189. D(H  28,C   2,Ir  0,C  20)   -130.8268         0.001646   
    190. D(C   5,C   2,C   1,Ir  0)    -61.7567         0.021376   
    191. D(Ir  0,C   2,C   1,H  27)   -120.1558         0.021376   
    192. D(H  28,C   2,Ir  0,C   3)    157.9496         0.001646   
    193. D(C   5,C   2,Ir  0,N   6)   -155.5435         0.001646   
    194. D(C   5,C   2,Ir  0,C   1)    117.4350         0.001646   
    195. D(C   5,C   2,Ir  0,C   4)     79.7102         0.001646   
    196. D(H  28,C   2,Ir  0,O  31)     54.4605         0.001646   
    197. D(C   5,C   2,Ir  0,O  31)    -67.0969         0.001646   
    198. D(H  28,C   2,Ir  0,C   5)    121.5574         0.001646   
    199. D(C   1,C   2,Ir  0,C  20)     -9.8192         0.001646   
    200. D(C   1,C   2,Ir  0,O  31)    175.4681         0.001646   
    201. D(Ir  0,C   2,C   1,C   4)     61.9670         0.021376   
    202. D(C   5,C   2,C   1,C   4)      0.2103         0.021376   
    203. D(H  28,C   2,Ir  0,C   4)   -158.7323         0.001646   
    204. D(C   4,C   3,Ir  0,C   2)     80.2077         0.001686   
    205. D(H  37,C   3,Ir  0,C   1)    158.7628         0.001686   
    206. D(H  37,C   3,Ir  0,C   5)   -122.4335         0.001686   
    207. D(C   4,C   3,Ir  0,O  31)   -176.9210         0.001686   
    208. D(H  37,C   3,Ir  0,C   2)   -158.2822         0.001686   
    209. D(C   5,C   3,Ir  0,C   1)    -78.8037         0.001686   
    210. D(C   4,C   3,Ir  0,N   6)     26.1544         0.001686   
    211. D(C   5,C   3,Ir  0,O  31)     67.0226         0.001686   
    212. D(H  37,C   3,Ir  0,C   4)    121.5101         0.001686   
    213. D(C   5,C   3,Ir  0,C   4)   -116.0564         0.001686   
    214. D(H  37,C   3,Ir  0,N   6)    147.6645         0.001686   
    215. D(C   4,C   3,Ir  0,C   1)     37.2527         0.001686   
    216. D(C   4,C   3,Ir  0,C  20)    -72.9978         0.001686   
    217. D(C   5,C   3,Ir  0,C   2)    -35.8487         0.001686   
    218. D(C   5,C   3,Ir  0,N   6)    -89.9020         0.001686   
    219. D(C   4,C   3,Ir  0,C   5)    116.0564         0.001686   
    220. D(C   5,C   3,Ir  0,C  20)    170.9459         0.001686   
    221. D(H  37,C   3,Ir  0,C  20)     48.5124         0.001686   
    222. D(H  37,C   3,Ir  0,O  31)    -55.4109         0.001686   
    223. D(C   1,C   4,Ir  0,C  20)   -129.5589         0.001705   
    224. D(C   1,C   4,Ir  0,C   2)     38.0044         0.001705   
    225. D(C   3,C   4,Ir  0,C   2)    -79.9863         0.001705   
    226. D(C   1,C   4,Ir  0,C   5)     79.8697         0.001705   
    227. D(C   1,C   4,Ir  0,N   6)    -54.1381         0.001705   
    228. D(C   3,C   4,Ir  0,C   5)    -38.1210         0.001705   
    229. D(C   3,C   4,Ir  0,C   1)   -117.9906         0.001705   
    230. D(C   1,C   4,Ir  0,O  31)    123.5902         0.001705   
    231. D(C   1,C   4,Ir  0,C   3)    117.9906         0.001705   
    232. D(H  38,C   4,C   1,Ir  0)   -117.8056         0.026255   
    233. D(C   3,C   4,Ir  0,C  20)    112.4504         0.001705   
    234. D(C   3,C   4,Ir  0,O  31)      5.5996         0.001705   
    235. D(Ir  0,C   4,C   1,C   2)    -63.0223         0.026255   
    236. D(H  38,C   4,Ir  0,C   1)    120.7137         0.001705   
    237. D(H  38,C   4,Ir  0,C   3)   -121.2957         0.001705   
    238. D(H  38,C   4,Ir  0,C   5)   -159.4166         0.001705   
    239. D(H  38,C   4,Ir  0,N   6)     66.5756         0.001705   
    240. D(H  38,C   4,Ir  0,C  20)     -8.8452         0.001705   
    241. D(H  38,C   4,Ir  0,C   2)    158.7181         0.001705   
    242. D(Ir  0,C   4,C   1,H  27)    119.0828         0.026255   
    243. D(H  38,C   4,Ir  0,O  31)   -115.6961         0.001705   
    244. D(C   3,C   4,C   1,Ir  0)     61.7234         0.026255   
    245. D(C   3,C   4,C   1,C   2)     -1.2988         0.026255   
    246. D(H  38,C   4,C   1,C   2)    179.1721         0.026255   
    247. D(C   3,C   4,Ir  0,N   6)   -172.1287         0.001705   
    248. D(C   3,C   4,C   1,H  27)   -179.1938         0.026255   
    249. D(Ir  0,C   4,C   3,H  37)   -121.3722         0.022166   
    250. D(Ir  0,C   4,C   3,C   5)     63.5948         0.022166   
    251. D(H  38,C   4,C   3,C   5)   -178.5981         0.022166   
    252. D(C   1,C   4,C   3,C   5)      1.8757         0.022166   
    253. D(C   1,C   4,C   3,H  37)    176.9088         0.022166   
    254. D(H  38,C   4,C   3,Ir  0)    117.8071         0.022166   
    255. D(H  38,C   4,C   1,H  27)      1.2771         0.026255   
    256. D(H  38,C   4,C   3,H  37)     -3.5650         0.022166   
    257. D(C   1,C   4,C   3,Ir  0)    -61.7191         0.022166   
    258. D(H  29,C   5,C   2,H  28)     -6.1133         0.026306   
    259. D(C   2,C   5,Ir  0,C   4)    -81.0691         0.001641   
    260. D(C   2,C   5,Ir  0,C   3)   -119.9680         0.001641   
    261. D(C   3,C   5,C   2,C   1)      0.9713         0.026306   
    262. D(C   2,C   5,Ir  0,C  20)   -134.3304         0.001641   
    263. D(C   2,C   5,Ir  0,O  31)    119.8636         0.001641   
    264. D(H  29,C   5,Ir  0,O  31)     -0.6006         0.001641   
    265. D(C   3,C   5,Ir  0,C   2)    119.9680         0.001641   
    266. D(C   3,C   5,Ir  0,C   4)     38.8989         0.001641   
    267. D(C   3,C   5,Ir  0,N   6)    157.7744         0.001641   
    268. D(C   3,C   5,Ir  0,C  20)    -14.3625         0.001641   
    269. D(C   3,C   5,Ir  0,O  31)   -120.1685         0.001641   
    270. D(H  29,C   5,Ir  0,C   1)   -158.6179         0.001641   
    271. D(H  29,C   5,Ir  0,C   2)   -120.4641         0.001641   
    272. D(H  29,C   5,Ir  0,C   3)    119.5679         0.001641   
    273. D(H  29,C   5,Ir  0,C   4)    158.4668         0.001641   
    274. D(H  29,C   5,Ir  0,N   6)    -82.6577         0.001641   
    275. D(C   3,C   5,Ir  0,C   1)     81.8142         0.001641   
    276. D(H  29,C   5,Ir  0,C  20)    105.2054         0.001641   
    277. D(Ir  0,C   5,C   2,C   1)     60.2925         0.026306   
    278. D(Ir  0,C   5,C   2,H  28)   -122.7121         0.026306   
    279. D(C   2,C   5,Ir  0,N   6)     37.8064         0.001641   
    280. D(C   3,C   5,C   2,Ir  0)    -59.3212         0.026306   
    281. D(H  29,C   5,C   2,Ir  0)    116.5988         0.026306   
    282. D(C   3,C   5,C   2,H  28)    177.9667         0.026306   
    283. D(C   2,C   5,Ir  0,C   1)    -38.1537         0.001641   
    284. D(H  29,C   5,C   2,C   1)    176.8913         0.026306   
    285. D(H  29,C   5,C   3,H  37)      7.2533         0.024317   
    286. D(Ir  0,C   5,C   3,H  37)    122.8851         0.024317   
    287. D(C   2,C   5,C   3,Ir  0)     60.2913         0.024317   
    288. D(C   2,C   5,C   3,C   4)     -1.7582         0.024317   
    289. D(C   2,C   5,C   3,H  37)   -176.8236         0.024317   
    290. D(H  29,C   5,C   3,Ir  0)   -115.6319         0.024317   
    291. D(Ir  0,C   5,C   3,C   4)    -62.0494         0.024317   
    292. D(H  29,C   5,C   3,C   4)   -177.6813         0.024317   
    293. D(C   7,N   6,Ir  0,C   1)     79.2073         0.001767   
    294. D(C   7,N   6,Ir  0,C   2)     39.8159         0.001767   
    295. D(C   7,N   6,Ir  0,C   3)     89.4211         0.001767   
    296. D(C   7,N   6,Ir  0,C   4)    109.9901         0.001767   
    297. D(C   7,N   6,Ir  0,C   5)     16.8708         0.001767   
    298. D(C   7,N   6,Ir  0,C  20)   -168.0523         0.001767   
    299. D(C   7,N   6,Ir  0,O  31)    -68.8278         0.001767   
    300. D(C  17,N   6,Ir  0,C   1)   -101.7944         0.001767   
    301. D(C  17,N   6,Ir  0,C   2)   -141.1858         0.001767   
    302. D(C  17,N   6,Ir  0,C   3)    -91.5805         0.001767   
    303. D(C  17,N   6,Ir  0,C   4)    -71.0116         0.001767   
    304. D(C  17,N   6,Ir  0,C   5)   -164.1309         0.001767   
    305. D(C  17,N   6,Ir  0,C  20)     10.9460         0.001767   
    306. D(C  17,N   6,Ir  0,O  31)    110.1705         0.001767   
    307. D(C   8,C   7,N   6,Ir  0)    148.4271         0.014738   
    308. D(C   8,C   7,N   6,C  17)    -30.5169         0.014738   
    309. D(C  12,C   7,N   6,Ir  0)    -86.2610         0.014738   
    310. D(C  12,C   7,N   6,C  17)     94.7950         0.014738   
    311. D(H  13,C   7,N   6,Ir  0)     30.4350         0.014738   
    312. D(H  13,C   7,N   6,C  17)   -148.5089         0.014738   
    313. D(H   9,C   8,C   7,N   6)   -170.4076         0.011768   
    314. D(H   9,C   8,C   7,C  12)     65.4055         0.011768   
    315. D(H   9,C   8,C   7,H  13)    -54.1195         0.011768   
    316. D(H  10,C   8,C   7,N   6)     71.4360         0.011768   
    317. D(H  10,C   8,C   7,C  12)    -52.7509         0.011768   
    318. D(H  10,C   8,C   7,H  13)   -172.2758         0.011768   
    319. D(H  11,C   8,C   7,N   6)    -51.7440         0.011768   
    320. D(H  11,C   8,C   7,C  12)   -175.9309         0.011768   
    321. D(H  11,C   8,C   7,H  13)     64.5441         0.011768   
    322. D(H  14,C  12,C   7,N   6)    175.0758         0.011565   
    323. D(H  14,C  12,C   7,C   8)    -58.2532         0.011565   
    324. D(H  14,C  12,C   7,H  13)     60.7844         0.011565   
    325. D(H  15,C  12,C   7,N   6)    -65.6362         0.011565   
    326. D(H  15,C  12,C   7,C   8)     61.0348         0.011565   
    327. D(H  15,C  12,C   7,H  13)   -179.9276         0.011565   
    328. D(H  16,C  12,C   7,N   6)     55.4671         0.011565   
    329. D(H  16,C  12,C   7,C   8)   -177.8619         0.011565   
    330. D(H  16,C  12,C   7,H  13)    -58.8243         0.011565   
    331. D(C  18,C  17,N   6,Ir  0)     -2.5887         0.059253   
    332. D(C  18,C  17,N   6,C   7)    176.4143         0.059253   
    333. D(H  19,C  17,N   6,Ir  0)    179.1340         0.059253   
    334. D(H  19,C  17,N   6,C   7)     -1.8630         0.059253   
    335. D(C  20,C  18,C  17,N   6)    -13.0718         0.019738   
    336. D(C  20,C  18,C  17,H  19)    165.2003         0.019738   
    337. D(S  22,C  18,C  17,N   6)    163.4910         0.019738   
    338. D(S  22,C  18,C  17,H  19)    -18.2369         0.019738   
    339. D(C  18,C  20,Ir  0,C   1)     81.0209         0.001755   
    340. D(H  24,C  20,C  18,C  17)    -69.6080         0.028518   
    341. D(C  18,C  20,Ir  0,C   3)    149.3394         0.001755   
    342. D(C  18,C  20,Ir  0,C   4)    112.5869         0.001755   
    343. D(Ir  0,C  20,C  18,C  17)     21.3430         0.028518   
    344. D(C  18,C  20,Ir  0,N   6)    -16.3987         0.001755   
    345. D(C  18,C  20,Ir  0,O  31)    -97.3003         0.001755   
    346. D(H  24,C  20,Ir  0,C   4)   -140.1466         0.001755   
    347. D(C  21,C  20,Ir  0,C   2)    -58.3587         0.001755   
    348. D(C  21,C  20,Ir  0,C   3)      3.2683         0.001755   
    349. D(C  21,C  20,Ir  0,C   4)    -33.4842         0.001755   
    350. D(C  21,C  20,Ir  0,C   5)     12.3522         0.001755   
    351. D(C  21,C  20,Ir  0,N   6)   -162.4698         0.001755   
    352. D(C  21,C  20,Ir  0,O  31)    116.6286         0.001755   
    353. D(H  24,C  20,Ir  0,C   1)   -171.7126         0.001755   
    354. D(H  24,C  20,Ir  0,C   2)   -165.0211         0.001755   
    355. D(C  21,C  20,Ir  0,C   1)    -65.0502         0.001755   
    356. D(H  24,C  20,Ir  0,C   3)   -103.3942         0.001755   
    357. D(H  24,C  20,Ir  0,C   5)    -94.3103         0.001755   
    358. D(H  24,C  20,Ir  0,N   6)     90.8678         0.001755   
    359. D(C  18,C  20,Ir  0,C   5)    158.4233         0.001755   
    360. D(H  24,C  20,Ir  0,O  31)      9.9662         0.001755   
    361. D(Ir  0,C  20,C  18,S  22)   -155.7202         0.028518   
    362. D(C  21,C  20,C  18,C  17)    175.9857         0.028518   
    363. D(C  18,C  20,Ir  0,C   2)     87.7124         0.001755   
    364. D(C  21,C  20,C  18,S  22)     -1.0776         0.028518   
    365. D(H  24,C  20,C  18,S  22)    113.3287         0.028518   
    366. D(C  23,C  21,C  20,Ir  0)    147.0759         0.021902   
    367. D(C  23,C  21,C  20,C  18)      0.9962         0.021902   
    368. D(C  23,C  21,C  20,H  24)   -114.9646         0.021902   
    369. D(H  25,C  21,C  20,Ir  0)    -36.5901         0.021902   
    370. D(H  25,C  21,C  20,C  18)    177.3302         0.021902   
    371. D(H  25,C  21,C  20,H  24)     61.3694         0.021902   
    372. D(C  23,S  22,C  18,C  17)   -175.9744         0.005912   
    373. D(C  23,S  22,C  18,C  20)      0.7004         0.005912   
    374. D(S  22,C  23,C  21,C  20)     -0.5025         0.033492   
    375. D(S  22,C  23,C  21,H  25)   -176.8955         0.033492   
    376. D(H  26,C  23,C  21,C  20)    178.1530         0.033492   
    377. D(H  26,C  23,C  21,H  25)      1.7600         0.033492   
    378. D(C  21,C  23,S  22,C  18)     -0.1028         0.005474   
    379. D(H  26,C  23,S  22,C  18)   -178.8771         0.005474   
    380. D(C  32,O  30,C  20,Ir  0)     -9.3801         0.001501   
    381. D(C  32,O  30,C  20,C  18)     99.4651         0.001501   
    382. D(C  32,O  30,C  20,C  21)   -143.5687         0.001501   
    383. D(C  32,O  31,Ir  0,C   1)    170.7284         0.001810   
    384. D(C  32,O  31,Ir  0,C   2)    165.3782         0.001810   
    385. D(C  32,O  31,Ir  0,C   3)     96.8090         0.001810   
    386. D(C  32,O  31,Ir  0,C   4)     93.0780         0.001810   
    387. D(C  32,O  31,Ir  0,C   5)    131.3367         0.001810   
    388. D(C  32,O  31,Ir  0,N   6)    -88.7189         0.001810   
    389. D(C  32,O  31,Ir  0,C  20)    -12.1719         0.001810   
    390. D(O  31,C  32,O  30,H  24)      1.6830         0.069393   
    391. D(C  33,C  32,O  30,H  24)   -179.6265         0.069393   
    392. D(O  30,C  32,O  31,Ir  0)      5.0268         0.061495   
    393. D(C  33,C  32,O  31,Ir  0)   -173.6734         0.061495   
    394. D(H  34,C  33,C  32,O  30)     39.4621         0.012941   
    395. D(H  34,C  33,C  32,O  31)   -141.7677         0.012941   
    396. D(H  35,C  33,C  32,O  30)    -78.0128         0.012941   
    397. D(H  35,C  33,C  32,O  31)    100.7573         0.012941   
    398. D(H  36,C  33,C  32,O  30)    162.4736         0.012941   
    399. D(H  36,C  33,C  32,O  31)    -18.7562         0.012941   
    -----------------------------------------------------------------

Number of atoms                         .... 39
Number of degrees of freedom            .... 399

         *************************************************************
         *                GEOMETRY OPTIMIZATION CYCLE   1            *
         *************************************************************
---------------------------------
CARTESIAN COORDINATES (ANGSTROEM)
---------------------------------
  Ir     0.613336   -0.732717    0.415625
  C      0.146357   -2.844637    0.334668
  C     -0.095304   -2.394149    1.681620
  C      2.144270   -2.061703    1.194189
  C      1.518626   -2.657187    0.047645
  C      1.138984   -1.932054    2.195919
  N     -1.073781    0.112920   -0.512478
  C     -2.348117    0.295731    0.199041
  C     -3.144404    1.505996   -0.268064
  H     -3.976681    1.664685    0.415797
  H     -3.577706    1.372488   -1.260201
  H     -2.542119    2.414786   -0.267423
  C     -3.170177   -0.984431    0.099127
  H     -2.070711    0.456046    1.242057
  H     -4.077328   -0.891833    0.694994
  H     -3.466687   -1.180750   -0.932041
  H     -2.623719   -1.851903    0.465624
  C     -0.925307    0.478807   -1.726732
  C      0.389210    0.308039   -2.250985
  H     -1.733863    0.914200   -2.305114
  C      1.417274    0.039892   -1.347032
  C      2.632814   -0.190632   -2.061152
  S      0.888935    0.307730   -3.873833
  C      2.491848   -0.072039   -3.411300
  H      1.633235    1.160210   -0.615919
  H      3.586134   -0.378816   -1.588661
  H      3.257914   -0.169518   -4.165607
  H     -0.580942   -3.284474   -0.331979
  H     -1.027930   -2.445965    2.222214
  H      1.282206   -1.484811    3.169487
  O      1.758084    2.281375    0.085867
  O      0.582711    1.039575    1.494280
  C      1.157426    2.116225    1.167678
  C      1.135602    3.245222    2.153883
  H      1.009587    4.197624    1.643754
  H      2.096429    3.281929    2.670128
  H      0.353812    3.111627    2.895943
  H      3.192708   -1.835458    1.311313
  H      2.006645   -2.912841   -0.881590

----------------------------
CARTESIAN COORDINATES (A.U.)
----------------------------
  NO LB      ZA    FRAG     MASS         X           Y           Z
   0 Ir   17.0000*   0   192.220    1.159036   -1.384635    0.785418
   1 C     6.0000    0    12.011    0.276575   -5.375585    0.632430
   2 C     6.0000    0    12.011   -0.180098   -4.524286    3.177802
   3 C     6.0000    0    12.011    4.052083   -3.896053    2.256691
   4 C     6.0000    0    12.011    2.869787   -5.021355    0.090035
   5 C     6.0000    0    12.011    2.152368   -3.651054    4.149685
   6 N     7.0000    0    14.007   -2.029152    0.213388   -0.968444
   7 C     6.0000    0    12.011   -4.437299    0.558850    0.376133
   8 C     6.0000    0    12.011   -5.942063    2.845921   -0.506568
   9 H     1.0000    0     1.008   -7.514838    3.145798    0.785742
  10 H     1.0000    0     1.008   -6.760884    2.593627   -2.381436
  11 H     1.0000    0     1.008   -4.803909    4.563284   -0.505357
  12 C     6.0000    0    12.011   -5.990766   -1.860305    0.187322
  13 H     1.0000    0     1.008   -3.913077    0.861803    2.347147
  14 H     1.0000    0     1.008   -7.705034   -1.685321    1.313348
  15 H     1.0000    0     1.008   -6.551088   -2.231294   -1.761302
  16 H     1.0000    0     1.008   -4.958111   -3.499590    0.879902
  17 C     6.0000    0    12.011   -1.748578    0.904815   -3.263050
  18 C     6.0000    0    12.011    0.735500    0.582110   -4.253744
  19 H     1.0000    0     1.008   -3.276527    1.727588   -4.356034
  20 C     6.0000    0    12.011    2.678260    0.075386   -2.545522
  21 C     6.0000    0    12.011    4.975297   -0.360241   -3.895012
  22 S    16.0000    0    32.060    1.679845    0.581524   -7.320483
  23 C     6.0000    0    12.011    4.708910   -0.136134   -6.446422
  24 H     1.0000    0     1.008    3.086367    2.192479   -1.163919
  25 H     1.0000    0     1.008    6.776811   -0.715859   -3.002134
  26 H     1.0000    0     1.008    6.156566   -0.320343   -7.871856
  27 H     1.0000    0     1.008   -1.097822   -6.206756   -0.627349
  28 H     1.0000    0     1.008   -1.942506   -4.622203    4.199376
  29 H     1.0000    0     1.008    2.423018   -2.805887    5.989463
  30 O     8.0000    0    15.999    3.322297    4.311174    0.162265
  31 O     8.0000    0    15.999    1.101163    1.964512    2.823780
  32 C     6.0000    0    12.011    2.187219    3.999085    2.206592
  33 C     6.0000    0    12.011    2.145978    6.132581    4.070248
  34 H     1.0000    0     1.008    1.907843    7.932360    3.106245
  35 H     1.0000    0     1.008    3.961676    6.201948    5.045811
  36 H     1.0000    0     1.008    0.668609    5.880123    5.472539
  37 H     1.0000    0     1.008    6.033343   -3.468514    2.478022
  38 H     1.0000    0     1.008    3.792010   -5.504471   -1.665964
* core charge reduced due to ECP

--------------------------------
INTERNAL COORDINATES (ANGSTROEM)
--------------------------------
 Ir     0   0   0     0.000000000000     0.00000000     0.00000000
 C      1   0   0     2.164820815045     0.00000000     0.00000000
 C      2   1   0     1.440488304713    72.31969369     0.00000000
 C      1   2   3     2.172078628387    64.39282898    79.41795019
 C      2   1   3     1.413681798599    70.67806055   242.79319263
 C      3   2   1     1.413430240093   107.22065217   298.21786894
 N      1   2   3     2.102733735211   101.76969068   256.64438576
 C      7   1   2     1.470914365491   122.04671367    79.14091054
 C      8   7   1     1.522162994052   113.80271256   148.42193566
 H      9   8   7     1.088815821046   108.84518780   189.59241740
 H      9   8   7     1.090827016074   112.92868738    71.43614169
 H      9   8   7     1.090248779997   111.93706411   308.25585113
 C      8   7   1     1.524655573452   109.33327849   273.73383802
 H      8   7   1     1.091114218043   105.09361357    30.43013254
 H     13   8   7     1.089285533066   109.98633220   175.07582129
 H     13   8   7     1.090760701739   111.07837713   294.36386797
 H     13   8   7     1.088775713679   112.10479096    55.46717574
 C      7   1   2     1.282741103070   116.33407689   258.12804587
 C     18   7   1     1.430946066503   115.69766780   357.23578406
 H     18   7   1     1.085281480706   122.00778279   179.05814627
 C     19  18   7     1.393819157249   117.65019388   346.92831184
 C     21  19  18     1.427986062059   109.70830562   175.95336769
 S     19  18   7     1.698058357427   128.64287594   163.53508534
 C     22  21  19     1.362827405120   113.04311071     1.08261450
 H     21  19  18     1.355012301296   107.99252627   290.71829105
 H     22  21  19     1.080472848745   124.12674828   177.42511167
 H     24  22  21     1.079470643221   127.66529022   178.14289927
 H      2   1   3     1.080202601882   124.43223847   122.29440623
 H      3   2   1     1.079217024709   126.74692819   121.26179118
 H      6   3   2     1.080910979952   125.31219916   176.89816543
 O     25  21  19     1.342857135940   175.91474679    33.01141911
 O      1   2   3     2.074757907680   148.22732465   351.90957262
 C     31  25  21     1.251639436766   107.91343451    66.78700157
 C     33  31  25     1.499228622758   118.28941620   180.36547695
 H     34  33  31     1.087734745954   110.64275509    39.41236471
 H     34  33  31     1.091349751000   108.88551796   281.93725630
 H     34  33  31     1.086132719132   111.54730606   162.42356963
 H      4   1   2     1.078943762644   126.54101359   158.77751825
 H      5   2   1     1.080270213665   125.55091813   242.20536149

---------------------------
INTERNAL COORDINATES (A.U.)
---------------------------
 Ir     0   0   0     0.000000000000     0.00000000     0.00000000
 C      1   0   0     4.090918469448     0.00000000     0.00000000
 C      2   1   0     2.722128395024    72.31969369     0.00000000
 C      1   2   3     4.104633748995    64.39282898    79.41795019
 C      2   1   3     2.671471439861    70.67806055   242.79319263
 C      3   2   1     2.670996063178   107.22065217   298.21786894
 N      1   2   3     3.973590892106   101.76969068   256.64438576
 C      7   1   2     2.779625317229   122.04671367    79.14091054
 C      8   7   1     2.876471189948   113.80271256   148.42193566
 H      9   8   7     2.057563712058   108.84518780   189.59241740
 H      9   8   7     2.061364319862   112.92868738    71.43614169
 H      9   8   7     2.060271612036   111.93706411   308.25585113
 C      8   7   1     2.881181482382   109.33327849   273.73383802
 H      8   7   1     2.061907052929   105.09361357    30.43013254
 H     13   8   7     2.058451339137   109.98633220   175.07582129
 H     13   8   7     2.061239003931   111.07837713   294.36386797
 H     13   8   7     2.057487920118   112.10479096    55.46717574
 C      7   1   2     2.424029385526   116.33407689   258.12804587
 C     18   7   1     2.704096178102   115.69766780   357.23578406
 H     18   7   1     2.050884776751   122.00778279   179.05814627
 C     19  18   7     2.633936487414   117.65019388   346.92831184
 C     21  19  18     2.698502580348   109.70830562   175.95336769
 S     19  18   7     3.208865254952   128.64287594   163.53508534
 C     22  21  19     2.575370563480   113.04311071     1.08261450
 H     21  19  18     2.560602157545   107.99252627   290.71829105
 H     22  21  19     2.041797779265   124.12674828   177.42511167
 H     24  22  21     2.039903885295   127.66529022   178.14289927
 H      2   1   3     2.041287086705   124.43223847   122.29440623
 H      3   2   1     2.039424615765   126.74692819   121.26179118
 H      6   3   2     2.042625727258   125.31219916   176.89816543
 O     25  21  19     2.537632223908   175.91474679    33.01141911
 O      1   2   3     3.920724239703   148.22732465   351.90957262
 C     31  25  21     2.365255753904   107.91343451    66.78700157
 C     33  31  25     2.833131509148   118.28941620   180.36547695
 H     34  33  31     2.055520776203   110.64275509    39.41236471
 H     34  33  31     2.062352145712   108.88551796   281.93725630
 H     34  33  31     2.052493384251   111.54730606   162.42356963
 H      4   1   2     2.038908225300   126.54101359   158.77751825
 H      5   2   1     2.041414854460   125.55091813   242.20536149

---------------------
BASIS SET INFORMATION
---------------------
There are 6 groups of distinct atoms

 Group   1 Type Ir  : 7s6p5d1f contracted to 6s3p2d1f pattern {211111/411/41/1}
 Group   2 Type C   : 8s4p1d contracted to 4s2p1d pattern {5111/31/1}
 Group   3 Type N   : 8s4p1d contracted to 4s2p1d pattern {5111/31/1}
 Group   4 Type H   : 4s contracted to 2s pattern {31}
 Group   5 Type S   : 10s7p1d contracted to 4s3p1d pattern {5311/511/1}
 Group   6 Type O   : 8s4p1d contracted to 4s2p1d pattern {5111/31/1}

Atom   0Ir   basis set group =>   1
Atom   1C    basis set group =>   2
Atom   2C    basis set group =>   2
Atom   3C    basis set group =>   2
Atom   4C    basis set group =>   2
Atom   5C    basis set group =>   2
Atom   6N    basis set group =>   3
Atom   7C    basis set group =>   2
Atom   8C    basis set group =>   2
Atom   9H    basis set group =>   4
Atom  10H    basis set group =>   4
Atom  11H    basis set group =>   4
Atom  12C    basis set group =>   2
Atom  13H    basis set group =>   4
Atom  14H    basis set group =>   4
Atom  15H    basis set group =>   4
Atom  16H    basis set group =>   4
Atom  17C    basis set group =>   2
Atom  18C    basis set group =>   2
Atom  19H    basis set group =>   4
Atom  20C    basis set group =>   2
Atom  21C    basis set group =>   2
Atom  22S    basis set group =>   5
Atom  23C    basis set group =>   2
Atom  24H    basis set group =>   4
Atom  25H    basis set group =>   4
Atom  26H    basis set group =>   4
Atom  27H    basis set group =>   4
Atom  28H    basis set group =>   4
Atom  29H    basis set group =>   4
Atom  30O    basis set group =>   6
Atom  31O    basis set group =>   6
Atom  32C    basis set group =>   2
Atom  33C    basis set group =>   2
Atom  34H    basis set group =>   4
Atom  35H    basis set group =>   4
Atom  36H    basis set group =>   4
Atom  37H    basis set group =>   4
Atom  38H    basis set group =>   4
---------------------------------
AUXILIARY/J BASIS SET INFORMATION
---------------------------------
There are 6 groups of distinct atoms

 Group   1 Type Ir  : 11s5p5d3f3g contracted to 8s5p5d2f3g pattern {41111111/11111/11111/21/111}
 Group   2 Type C   : 12s5p4d2f1g contracted to 6s4p3d1f1g pattern {711111/2111/211/2/1}
 Group   3 Type N   : 12s5p4d2f1g contracted to 6s4p3d1f1g pattern {711111/2111/211/2/1}
 Group   4 Type H   : 5s2p1d contracted to 3s1p1d pattern {311/2/1}
 Group   5 Type S   : 14s5p5d2f1g contracted to 8s4p3d1f1g pattern {71111111/2111/311/2/1}
 Group   6 Type O   : 12s5p4d2f1g contracted to 6s4p3d1f1g pattern {711111/2111/211/2/1}

Atom   0Ir   basis set group =>   1
Atom   1C    basis set group =>   2
Atom   2C    basis set group =>   2
Atom   3C    basis set group =>   2
Atom   4C    basis set group =>   2
Atom   5C    basis set group =>   2
Atom   6N    basis set group =>   3
Atom   7C    basis set group =>   2
Atom   8C    basis set group =>   2
Atom   9H    basis set group =>   4
Atom  10H    basis set group =>   4
Atom  11H    basis set group =>   4
Atom  12C    basis set group =>   2
Atom  13H    basis set group =>   4
Atom  14H    basis set group =>   4
Atom  15H    basis set group =>   4
Atom  16H    basis set group =>   4
Atom  17C    basis set group =>   2
Atom  18C    basis set group =>   2
Atom  19H    basis set group =>   4
Atom  20C    basis set group =>   2
Atom  21C    basis set group =>   2
Atom  22S    basis set group =>   5
Atom  23C    basis set group =>   2
Atom  24H    basis set group =>   4
Atom  25H    basis set group =>   4
Atom  26H    basis set group =>   4
Atom  27H    basis set group =>   4
Atom  28H    basis set group =>   4
Atom  29H    basis set group =>   4
Atom  30O    basis set group =>   6
Atom  31O    basis set group =>   6
Atom  32C    basis set group =>   2
Atom  33C    basis set group =>   2
Atom  34H    basis set group =>   4
Atom  35H    basis set group =>   4
Atom  36H    basis set group =>   4
Atom  37H    basis set group =>   4
Atom  38H    basis set group =>   4
-------------------------
ECP PARAMETER INFORMATION
-------------------------

 Group 1, Type Ir ECP Def2-ECP (replacing 60 core electrons, lmax=3)

Atom   0Ir   ECP group =>   1

------------------------------------------------------------------------------
                           ORCA GTO INTEGRAL CALCULATION
                           -- RI-GTO INTEGRALS CHOSEN --
------------------------------------------------------------------------------
------------------------------------------------------------------------------
                   ___                                                        
                  /   \      - P O W E R E D   B Y -                         
                 /     \                                                     
                 |  |  |   _    _      __       _____    __    __             
                 |  |  |  | |  | |    /  \     |  _  \  |  |  /  |          
                  \  \/   | |  | |   /    \    | | | |  |  | /  /          
                 / \  \   | |__| |  /  /\  \   | |_| |  |  |/  /          
                |  |  |   |  __  | /  /__\  \  |    /   |      \           
                |  |  |   | |  | | |   __   |  |    \   |  |\   \          
                \     /   | |  | | |  |  |  |  | |\  \  |  | \   \       
                 \___/    |_|  |_| |__|  |__|  |_| \__\ |__|  \__/        
                                                                              
                      - O R C A' S   B I G   F R I E N D -                    
                                      &                                       
                       - I N T E G R A L  F E E D E R -                       
                                                                              
 v1 FN, 2020, v2 2021                                                         
------------------------------------------------------------------------------


Reading SHARK input file reaction4-IEIP_ts_guess_scan_12-12_orca.SHARKINP.tmp ... ok
----------------------
SHARK INTEGRAL PACKAGE
----------------------

Number of atoms                             ...     39
Number of basis functions                   ...    358
Number of shells                            ...    184
Maximum angular momentum                    ...      3
Integral batch strategy                     ... SHARK/LIBINT Hybrid
RI-J (if used) integral strategy            ... SPLIT-RIJ (Revised 2003 algorithm where possible)
Printlevel                                  ...      1
Contraction scheme used                     ... SEGMENTED contraction
Coulomb Range Separation                    ... NOT USED
Exchange Range Separation                   ... NOT USED
Finite Nucleus Model                        ... NOT USED
Auxiliary Coulomb fitting basis             ... AVAILABLE
   # of basis functions in Aux-J            ...   1231
   # of shells in Aux-J                     ...    405
   Maximum angular momentum in Aux-J        ...      4
Auxiliary J/K fitting basis                 ... NOT available
Auxiliary Correlation fitting basis         ... NOT available
Auxiliary 'external' fitting basis          ... NOT available
Integral threshold                          ...     2.500000e-11
Primitive cut-off                           ...     2.500000e-12
Primitive pair pre-selection threshold      ...     2.500000e-12

Calculating pre-screening integrals         ... done (  0.1 sec) Dimension = 184
Organizing shell pair data                  ... done (  0.1 sec)
Shell pair information
Total number of shell pairs                 ...     17020
Shell pairs after pre-screening             ...     12988
Total number of primitive shell pairs       ...     60705
Primitive shell pairs kept                  ...     29228
          la=0 lb=0:   4974 shell pairs
          la=1 lb=0:   4269 shell pairs
          la=1 lb=1:    860 shell pairs
          la=2 lb=0:   1751 shell pairs
          la=2 lb=1:    785 shell pairs
          la=2 lb=2:    175 shell pairs
          la=3 lb=0:    111 shell pairs
          la=3 lb=1:     41 shell pairs
          la=3 lb=2:     21 shell pairs
          la=3 lb=3:      1 shell pairs

Calculating one electron integrals          ... done (  0.1 sec)
Calculating ECP integrals                   ... done (  0.8 sec)
Calculating RI/J V-Matrix + Cholesky decomp.... done (  0.1 sec)
Calculating Nuclear repulsion               ... done (  0.0 sec) ENN=   2036.418516985885 Eh

SHARK setup successfully completed in   1.4 seconds

Maximum memory used throughout the entire GTOINT-calculation: 90.8 MB
-------------------------------------------------------------------------------
                                 ORCA SCF
-------------------------------------------------------------------------------

------------
SCF SETTINGS
------------
Hamiltonian:
 Density Functional     Method          .... DFT(GTOs)
 Exchange Functional    Exchange        .... PBE
   PBE kappa parameter   XKappa         ....  1.024500
   PBE mue parameter    XMuePBE         ....  0.123457
 Correlation Functional Correlation     .... PBE
   PBE beta parameter  CBetaPBE         ....  0.030000
 LDA part of GGA corr.  LDAOpt          .... PW91-LDA
 Gradients option       PostSCFGGA      .... off
 Hybrid DFT is turned on
   Fraction HF Exchange ScalHFX         ....  0.420000
   Scaling of DF-GGA-X  ScalDFX         ....  0.580000
   Scaling of DF-GGA-C  ScalDFC         ....  1.000000
   Scaling of DF-LDA-C  ScalLDAC        ....  1.000000
   Perturbative correction              ....  0.000000
   Density functional embedding theory  .... OFF
 RI-approximation to the Coulomb term is turned on
   Number of AuxJ basis functions       .... 1231
   RIJ-ON(X) (HFX calculated with O(N)) .... on
   Number of AuxJ basis functions       .... 1231
   RIJ-COSX (HFX calculated with COS-X)).... on


General Settings:
 Integral files         IntName         .... reaction4-IEIP_ts_guess_scan_12-12_orca
 Hartree-Fock type      HFTyp           .... RHF
 Total Charge           Charge          ....    1
 Multiplicity           Mult            ....    1
 Number of Electrons    NEL             ....  164
 Basis Dimension        Dim             ....  358
 Nuclear Repulsion      ENuc            ....   2036.4185169859 Eh

Convergence Acceleration:
 DIIS                   CNVDIIS         .... on
   Start iteration      DIISMaxIt       ....    12
   Startup error        DIISStart       ....  0.200000
   # of expansion vecs  DIISMaxEq       ....     5
   Bias factor          DIISBfac        ....   1.050
   Max. coefficient     DIISMaxC        ....  10.000
 Trust-Rad. Augm. Hess. CNVTRAH         .... auto
   Auto Start mean grad. ratio tolernc. ....  1.125000
   Auto Start start iteration           ....    20
   Auto Start num. interpolation iter.  ....    10
   Max. Number of Micro iterations      ....    16
   Max. Number of Macro iterations      .... Maxiter - #DIIS iter
   Number of Davidson start vectors     ....     2
   Converg. threshold I  (grad. norm)   ....   1.000e-05
   Converg. threshold II (energy diff.) ....   1.000e-08
   Grad. Scal. Fac. for Micro threshold ....   0.100
   Minimum threshold for Micro iter.    ....   0.010
   NR start threshold (gradient norm)   ....   0.001
   Initial trust radius                 ....   0.400
   Minimum AH scaling param. (alpha)    ....   1.000
   Maximum AH scaling param. (alpha)    .... 1000.000
   Orbital update algorithm             .... Taylor
   White noise on init. David. guess    .... on
   Maximum white noise                  ....   0.010
   Quad. conv. algorithm                .... NR
   COSX micro iterations for RIJONX calc.... off
 SOSCF                  CNVSOSCF        .... off
 Level Shifting         CNVShift        .... on
   Level shift para.    LevelShift      ....    0.2500
   Turn off err/grad.   ShiftErr        ....    0.0010
 Zerner damping         CNVZerner       .... off
 Static damping         CNVDamp         .... on
   Fraction old density DampFac         ....    0.7000
   Max. Damping (<1)    DampMax         ....    0.9800
   Min. Damping (>=0)   DampMin         ....    0.0000
   Turn off err/grad.   DampErr         ....    0.1000
 Fernandez-Rico         CNVRico         .... off

SCF Procedure:
 Maximum # iterations   MaxIter         ....   250
 SCF integral mode      SCFMode         .... Direct
   Integral package                     .... SHARK and LIBINT hybrid scheme
 Reset frequency        DirectResetFreq ....    20
 Integral Threshold     Thresh          ....  2.500e-11 Eh
 Primitive CutOff       TCut            ....  2.500e-12 Eh

Convergence Tolerance:
 Convergence Check Mode ConvCheckMode   .... Total+1el-Energy
 Convergence forced     ConvForced      .... 0
 Energy Change          TolE            ....  1.000e-08 Eh
 1-El. energy change                    ....  1.000e-05 Eh
 DIIS Error             TolErr          ....  5.000e-07


Diagonalization of the overlap matrix:
Smallest eigenvalue                        ... 1.119e-03
Time for diagonalization                   ...    0.020 sec
Threshold for overlap eigenvalues          ... 1.000e-08
Number of eigenvalues below threshold      ... 0
Time for construction of square roots      ...    0.008 sec
Total time needed                          ...    0.029 sec

--------------------
INITIAL GUESS: HCORE
--------------------
                      -----------------
                      INTIAL GUESS DONE 
                      -----------------
-------------------
DFT GRID GENERATION
-------------------

General Integration Accuracy     IntAcc      ... 4.159
Radial Grid Type                 RadialGrid  ... OptM3 with GC (2021)
Angular Grid (max. ang.)         AngularGrid ... 3 (Lebedev-194)
Angular grid pruning method      GridPruning ... 4 (adaptive)
Weight generation scheme         WeightScheme... Becke
Basis function cutoff            BFCut       ... 1.0000e-11
Integration weight cutoff        WCut        ... 1.0000e-14
Angular grids for H and He will be reduced by one unit
Partially contracted basis set               ... off
Rotationally invariant grid construction     ... off

Total number of grid points                  ...    93288
Total number of batches                      ...     1476
Average number of points per batch           ...       63
Average number of grid points per atom       ...     2392
Time for grid setup =    2.127 sec

--------------------
COSX GRID GENERATION
--------------------

GRIDX 1
-------
General Integration Accuracy     IntAcc      ... 3.816
Radial Grid Type                 RadialGrid  ... OptM3 with GC (2021)
Angular Grid (max. ang.)         AngularGrid ... 1 (Lebedev-50)
Angular grid pruning method      GridPruning ... 4 (adaptive)
Weight generation scheme         WeightScheme... Becke
Basis function cutoff            BFCut       ... 1.0000e-11
Integration weight cutoff        WCut        ... 1.0000e-14
Angular grids for H and He will be reduced by one unit
Partially contracted basis set               ... on
Rotationally invariant grid construction     ... off

Total number of grid points                  ...    23202
Total number of batches                      ...      379
Average number of points per batch           ...       61
Average number of grid points per atom       ...      595
UseSFitting                                  ... on

GRIDX 2
-------
General Integration Accuracy     IntAcc      ... 4.020
Radial Grid Type                 RadialGrid  ... OptM3 with GC (2021)
Angular Grid (max. ang.)         AngularGrid ... 2 (Lebedev-110)
Angular grid pruning method      GridPruning ... 4 (adaptive)
Weight generation scheme         WeightScheme... Becke
Basis function cutoff            BFCut       ... 1.0000e-11
Integration weight cutoff        WCut        ... 1.0000e-14
Angular grids for H and He will be reduced by one unit
Partially contracted basis set               ... on
Rotationally invariant grid construction     ... off

Total number of grid points                  ...    50309
Total number of batches                      ...      806
Average number of points per batch           ...       62
Average number of grid points per atom       ...     1290
UseSFitting                                  ... on

GRIDX 3
-------
General Integration Accuracy     IntAcc      ... 4.338
Radial Grid Type                 RadialGrid  ... OptM3 with GC (2021)
Angular Grid (max. ang.)         AngularGrid ... 3 (Lebedev-194)
Angular grid pruning method      GridPruning ... 4 (adaptive)
Weight generation scheme         WeightScheme... Becke
Basis function cutoff            BFCut       ... 1.0000e-11
Integration weight cutoff        WCut        ... 1.0000e-14
Angular grids for H and He will be reduced by one unit
Partially contracted basis set               ... on
Rotationally invariant grid construction     ... off

Total number of grid points                  ...   108745
Total number of batches                      ...     1716
Average number of points per batch           ...       63
Average number of grid points per atom       ...     2788
UseSFitting                                  ... on

Time for X-Grid setup             =    5.020 sec

--------------
SCF ITERATIONS
--------------
ITER       Energy         Delta-E        Max-DP      RMS-DP      [F,P]     Damp
               ***  Starting incremental Fock matrix formation  ***
  0   -840.9628976746   0.00000000000021.45943163  0.14978203  3.2404358 0.7000
  1  -1086.2358772542-245.27297957961010.52402863  0.13573537  1.4925344 0.7000
  2  -1157.6557758753 -71.419898621042 5.37068490  0.07318255  1.0591719 0.7000
  3  -1184.8839157880 -27.228139912687 3.74543110  0.04829715  0.7674959 0.7000
  4  -1206.4004236205 -21.516507832555 2.62100308  0.03882406  0.4753543 0.7000
  5  -1220.9265208920 -14.526097271459 2.50538900  0.03354638  0.3604025 0.7000
  6  -1230.9416463348 -10.015125442856 1.95790013  0.03051679  0.3184229 0.7000
  7  -1239.8139152581  -8.872268923249 1.57182543  0.02591991  0.2925065 0.7000
  8  -1247.8551818494  -8.041266591327 1.63182596  0.02650188  0.3017759 0.7000
  9  -1251.2739356419  -3.418753792504 1.64329159  0.02523634  0.2725590 0.7000
 10  -1256.0532021166  -4.779266474725 1.62593126  0.02360540  0.2887134 0.7000
 11  -1257.2807548653  -1.227552748664 1.45260846  0.02279397  0.2933285 0.7000
                               ***Turning on DIIS***
 12  -1259.8911864519  -2.610431586631 1.43197236  0.02267762  0.3146256 0.7000
 13  -1260.1507209673  -0.259534515403 1.26303500  0.01925370  0.3148211 0.7000
 14  -1267.9140853396  -7.763364372268 0.88311253  0.01374155  0.2481797 0.7000
 15  -1274.3057693782  -6.391684038601 0.62086535  0.00971989  0.2035514 0.7000
 16  -1278.7958376122  -4.490068233978 0.43831070  0.00687024  0.1485082 0.7000
 17  -1281.8401665567  -3.044328944550 0.31004542  0.00485718  0.1025439 0.7000
 18  -1283.9033763381  -2.063209781330 0.71921370  0.01141859  0.0658830 0.0000
 19  -1288.4425570953  -4.539180757283 0.02517727  0.00041571  0.0245179 0.0000
               *** Restarting incremental Fock matrix formation ***
                                   *** Resetting DIIS ***
 20  -1288.4492605236  -0.006703428219 0.02748776  0.00051200  0.0108671 0.0000
 21  -1288.4515118684  -0.002251344866 0.01259149  0.00016080  0.0107916 0.0000
 22  -1288.4528697607  -0.001357892320 0.00522388  0.00007069  0.0023100 0.0000
 23  -1288.4530100607  -0.000140299934 0.00452747  0.00004249  0.0027605 0.0000
 24  -1288.4530609532  -0.000050892532 0.00412665  0.00003872  0.0007924 0.0000
               *** Restarting incremental Fock matrix formation ***
                                   *** Resetting DIIS ***
 25  -1288.4535841811  -0.000523227928 0.00488031  0.00010155  0.0006386 0.0000
 26  -1288.4535991745  -0.000014993387 0.00165448  0.00002023  0.0009690 0.0000
 27  -1288.4536031144  -0.000003939828 0.00127722  0.00001262  0.0007084 0.0000
 28  -1288.4536069557  -0.000003841324 0.00055593  0.00000413  0.0003094 0.0000
 29  -1288.4536074036  -0.000000447944 0.00028182  0.00000211  0.0001229 0.0000
 30  -1288.4536075112  -0.000000107538 0.00008821  0.00000090  0.0000303 0.0000
 31  -1288.4536075329  -0.000000021784 0.00006966  0.00000066  0.0000179 0.0000
 32  -1288.4536075465  -0.000000013511 0.00002765  0.00000027  0.0000072 0.0000
 33  -1288.4536075530  -0.000000006525 0.00001383  0.00000013  0.0000043 0.0000
 34  -1288.4536075538  -0.000000000789 0.00001412  0.00000011  0.0000059 0.0000
 35  -1288.4536075715  -0.000000017696 0.00000424  0.00000004  0.0000027 0.0000
                 **** Energy Check signals convergence ****

               *****************************************************
               *                     SUCCESS                       *
               *           SCF CONVERGED AFTER  36 CYCLES          *
               *****************************************************

Old exchange energy                            =    -59.648832517 Eh
New exchange energy                            =    -59.648974896 Eh
Exchange energy change after final integration =     -0.000142379 Eh
Total energy after final integration           =  -1288.453749947 Eh
Final COS-X integration done in                =    61.185 sec

----------------
TOTAL SCF ENERGY
----------------

Total Energy       :        -1288.45374995 Eh          -35060.60898 eV

Components:
Nuclear Repulsion  :         2036.41851699 Eh           55413.76503 eV
Electronic Energy  :        -3324.87226693 Eh          -90474.37401 eV
One Electron Energy:        -5828.47430415 Eh         -158600.84893 eV
Two Electron Energy:         2503.60203721 Eh           68126.47492 eV
Max COSX asymmetry :            0.00002528 Eh               0.00069 eV

Virial components:
Potential Energy   :        -2501.51260739 Eh          -68069.61864 eV
Kinetic Energy     :         1213.05885745 Eh           33009.00966 eV
Virial Ratio       :            2.06215271


DFT components:
N(Alpha)           :       82.000310150436 electrons
N(Beta)            :       82.000310150436 electrons
N(Total)           :      164.000620300872 electrons
E(X)               :      -79.589754924389 Eh       
E(C)               :       -7.460713677517 Eh       
E(XC)              :      -87.050468601907 Eh       
DFET-embed. en.    :        0.000000000000 Eh       

---------------
SCF CONVERGENCE
---------------

  Last Energy change         ...    3.0263e-09  Tolerance :   1.0000e-08
  Last MAX-Density change    ...    0.0000e+00  Tolerance :   1.0000e-07
  Last RMS-Density change    ...    0.0000e+00  Tolerance :   5.0000e-09
  Last DIIS Error            ...    1.7331e-06  Tolerance :   5.0000e-07

             **** THE GBW FILE WAS UPDATED (reaction4-IEIP_ts_guess_scan_12-12_orca.gbw) ****
             **** DENSITY reaction4-IEIP_ts_guess_scan_12-12_orca.scfp WAS UPDATED ****
             **** ENERGY FILE WAS UPDATED (reaction4-IEIP_ts_guess_scan_12-12_orca.en.tmp) ****
             **** THE GBW FILE WAS UPDATED (reaction4-IEIP_ts_guess_scan_12-12_orca.gbw) ****
             **** DENSITY reaction4-IEIP_ts_guess_scan_12-12_orca.scfp WAS UPDATED ****
----------------
ORBITAL ENERGIES
----------------

  NO   OCC          E(Eh)            E(eV) 
   0   2.0000     -89.761065     -2442.5228 
   1   2.0000     -19.639303      -534.4126 
   2   2.0000     -19.632060      -534.2155 
   3   2.0000     -14.831060      -403.5737 
   4   2.0000     -10.702483      -291.2294 
   5   2.0000     -10.651651      -289.8462 
   6   2.0000     -10.624357      -289.1034 
   7   2.0000     -10.622714      -289.0588 
   8   2.0000     -10.621481      -289.0252 
   9   2.0000     -10.620906      -289.0095 
  10   2.0000     -10.613126      -288.7978 
  11   2.0000     -10.611874      -288.7638 
  12   2.0000     -10.610974      -288.7393 
  13   2.0000     -10.608588      -288.6744 
  14   2.0000     -10.588284      -288.1219 
  15   2.0000     -10.587007      -288.0871 
  16   2.0000     -10.552405      -287.1455 
  17   2.0000     -10.550097      -287.0827 
  18   2.0000     -10.548595      -287.0419 
  19   2.0000      -8.400459      -228.5881 
  20   2.0000      -6.290345      -171.1690 
  21   2.0000      -6.286824      -171.0732 
  22   2.0000      -6.285410      -171.0347 
  23   2.0000      -4.019651      -109.3803 
  24   2.0000      -2.336647       -63.5834 
  25   2.0000      -2.306305       -62.7578 
  26   2.0000      -2.302703       -62.6597 
  27   2.0000      -1.335069       -36.3291 
  28   2.0000      -1.234631       -33.5960 
  29   2.0000      -1.207432       -32.8559 
  30   2.0000      -1.158582       -31.5266 
  31   2.0000      -1.125437       -30.6247 
  32   2.0000      -1.023753       -27.8577 
  33   2.0000      -0.971545       -26.4371 
  34   2.0000      -0.967689       -26.3322 
  35   2.0000      -0.964979       -26.2584 
  36   2.0000      -0.957464       -26.0539 
  37   2.0000      -0.944309       -25.6960 
  38   2.0000      -0.899439       -24.4750 
  39   2.0000      -0.870468       -23.6866 
  40   2.0000      -0.797357       -21.6972 
  41   2.0000      -0.781078       -21.2542 
  42   2.0000      -0.775691       -21.1076 
  43   2.0000      -0.774839       -21.0844 
  44   2.0000      -0.766797       -20.8656 
  45   2.0000      -0.759798       -20.6752 
  46   2.0000      -0.742453       -20.2032 
  47   2.0000      -0.722363       -19.6565 
  48   2.0000      -0.697475       -18.9793 
  49   2.0000      -0.684714       -18.6320 
  50   2.0000      -0.666044       -18.1240 
  51   2.0000      -0.663763       -18.0619 
  52   2.0000      -0.651193       -17.7199 
  53   2.0000      -0.638960       -17.3870 
  54   2.0000      -0.630148       -17.1472 
  55   2.0000      -0.626759       -17.0550 
  56   2.0000      -0.620842       -16.8940 
  57   2.0000      -0.609535       -16.5863 
  58   2.0000      -0.598551       -16.2874 
  59   2.0000      -0.595848       -16.2138 
  60   2.0000      -0.594879       -16.1875 
  61   2.0000      -0.590383       -16.0651 
  62   2.0000      -0.578333       -15.7372 
  63   2.0000      -0.572046       -15.5662 
  64   2.0000      -0.565078       -15.3765 
  65   2.0000      -0.561337       -15.2748 
  66   2.0000      -0.558065       -15.1857 
  67   2.0000      -0.545681       -14.8487 
  68   2.0000      -0.542730       -14.7684 
  69   2.0000      -0.535497       -14.5716 
  70   2.0000      -0.530128       -14.4255 
  71   2.0000      -0.518201       -14.1010 
  72   2.0000      -0.512646       -13.9498 
[...]

----------------------
LOEWDIN ATOMIC CHARGES
----------------------
   0 Ir:   -0.264205
   1 C :   -0.064315
   2 C :   -0.098355
   3 C :   -0.102701
   4 C :   -0.037638
   5 C :   -0.020489
   6 N :   -0.006593
   7 C :   -0.069212
   8 C :   -0.361734
   9 H :    0.155682
  10 H :    0.132716
  11 H :    0.142477
  12 C :   -0.344070
  13 H :    0.152822
  14 H :    0.150008
  15 H :    0.138139
  16 H :    0.133328
  17 C :    0.028946
  18 C :   -0.198703
  19 H :    0.159406
  20 C :   -0.215993
  21 C :   -0.133631
  22 S :    0.494358
  23 C :   -0.256035
  24 H :    0.373608
  25 H :    0.161566
  26 H :    0.169120
  27 H :    0.181443
  28 H :    0.178012
  29 H :    0.186048
  30 O :   -0.255150
  31 O :   -0.170261
  32 C :    0.170258
  33 C :   -0.370692
  34 H :    0.165928
  35 H :    0.173699
  36 H :    0.157730
  37 H :    0.180506
  38 H :    0.183975

-------------------------------
LOEWDIN REDUCED ORBITAL CHARGES
-------------------------------
  0 Irs       :     2.451858  s :     2.451858
      pz      :     2.256904  p :     6.780208
      px      :     2.257097
      py      :     2.266207
      dz2     :     1.703066  d :     7.943618
      dxz     :     1.637441
      dyz     :     1.467736
      dx2y2   :     1.597757
      dxy     :     1.537618
      f0      :     0.010426  f :     0.088520
      f+1     :     0.005849
      f-1     :     0.016350
      f+2     :     0.013237
      f-2     :     0.015823
      f+3     :     0.010644
      f-3     :     0.016192
  1 C s       :     2.872975  s :     2.872975
      pz      :     1.053957  p :     3.088656
      px      :     1.071927
      py      :     0.962772
      dz2     :     0.025643  d :     0.102684
      dxz     :     0.025162
      dyz     :     0.016096
      dx2y2   :     0.019070
      dxy     :     0.016713
  2 C s       :     2.876210  s :     2.876210
      pz      :     1.035583  p :     3.124077
      px      :     1.091394
      py      :     0.997099
      dz2     :     0.024123  d :     0.098069
      dxz     :     0.028205
      dyz     :     0.015888
      dx2y2   :     0.017213
      dxy     :     0.012640
  3 C s       :     2.870592  s :     2.870592
      pz      :     1.028558  p :     3.133542
      px      :     1.082922
      py      :     1.022063
      dz2     :     0.021930  d :     0.098567
      dxz     :     0.030989
      dyz     :     0.015491
      dx2y2   :     0.016470
      dxy     :     0.013688
  4 C s       :     2.874237  s :     2.874237
      pz      :     1.077436  p :     3.058339
      px      :     1.045000
      py      :     0.935903
      dz2     :     0.023066  d :     0.105062
      dxz     :     0.028565
      dyz     :     0.013685
      dx2y2   :     0.020267
      dxy     :     0.019479
  5 C s       :     2.882040  s :     2.882040
      pz      :     1.046865  p :     3.035184
      px      :     1.045076
      py      :     0.943244
      dz2     :     0.021034  d :     0.103265
      dxz     :     0.031271
      dyz     :     0.015643
      dx2y2   :     0.015821
      dxy     :     0.019495
  6 N s       :     3.122198  s :     3.122198
      pz      :     1.248060  p :     3.786197
      px      :     1.286700
      py      :     1.251438
      dz2     :     0.029913  d :     0.098197
      dxz     :     0.027064
      dyz     :     0.018170
      dx2y2   :     0.012858
      dxy     :     0.010193
  7 C s       :     2.862182  s :     2.862182
      pz      :     1.055545  p :     3.072260
      px      :     0.939048
      py      :     1.077667
      dz2     :     0.029064  d :     0.134769
      dxz     :     0.028741
      dyz     :     0.012720
      dx2y2   :     0.031057
      dxy     :     0.033189
  8 C s       :     2.953479  s :     2.953479
      pz      :     1.139184  p :     3.340717
      px      :     1.123580
      py      :     1.077953
      dz2     :     0.015337  d :     0.067537
      dxz     :     0.017114
      dyz     :     0.005067
      dx2y2   :     0.011015
      dxy     :     0.019004
  9 H s       :     0.844318  s :     0.844318
 10 H s       :     0.867284  s :     0.867284
 11 H s       :     0.857523  s :     0.857523
 12 C s       :     2.953512  s :     2.953512
      pz      :     1.145118  p :     3.322602
      px      :     1.108609
      py      :     1.068875
      dz2     :     0.015470  d :     0.067956
      dxz     :     0.014039
      dyz     :     0.007590
      dx2y2   :     0.012717
      dxy     :     0.018140
 13 H s       :     0.847178  s :     0.847178
 14 H s       :     0.849992  s :     0.849992
 15 H s       :     0.861861  s :     0.861861
 16 H s       :     0.866672  s :     0.866672
 17 C s       :     2.875631  s :     2.875631
      pz      :     1.003738  p :     2.954984
      px      :     1.062926
      py      :     0.888320
      dz2     :     0.038111  d :     0.140440
      dxz     :     0.046848
      dyz     :     0.026997
      dx2y2   :     0.013001
      dxy     :     0.015483
 18 C s       :     2.889339  s :     2.889339
      pz      :     1.047937  p :     3.196688
      px      :     1.084774
      py      :     1.063977
      dz2     :     0.033372  d :     0.112676
      dxz     :     0.034060
      dyz     :     0.017324
      dx2y2   :     0.015868
      dxy     :     0.012051
 19 H s       :     0.840594  s :     0.840594
 20 C s       :     2.900283  s :     2.900283
      pz      :     1.148055  p :     3.212904
      px      :     1.059870
      py      :     1.004979
      dz2     :     0.015316  d :     0.102806
      dxz     :     0.039116
      dyz     :     0.013700
      dx2y2   :     0.017865
      dxy     :     0.016810
 21 C s       :     2.896031  s :     2.896031
      pz      :     1.074500  p :     3.142901
      px      :     1.084304
      py      :     0.984097
      dz2     :     0.028511  d :     0.094698
      dxz     :     0.031510
      dyz     :     0.014879
      dx2y2   :     0.012134
      dxy     :     0.007664
 22 S s       :     5.498680  s :     5.498680
      pz      :     3.259090  p :     9.851086
      px      :     3.079737
      py      :     3.512258
      dz2     :     0.048549  d :     0.155875
      dxz     :     0.036032
      dyz     :     0.017485
      dx2y2   :     0.025910
      dxy     :     0.027899
 23 C s       :     2.964167  s :     2.964167
      pz      :     1.119590  p :     3.205958
      px      :     1.031560
      py      :     1.054808
      dz2     :     0.023636  d :     0.085910
      dxz     :     0.030660
      dyz     :     0.011479
      dx2y2   :     0.011231
      dxy     :     0.008905
 24 H s       :     0.626392  s :     0.626392
 25 H s       :     0.838434  s :     0.838434
 26 H s       :     0.830880  s :     0.830880
 27 H s       :     0.818557  s :     0.818557
 28 H s       :     0.821988  s :     0.821988
 29 H s       :     0.813952  s :     0.813952
 30 O s       :     3.515068  s :     3.515068
      pz      :     1.442718  p :     4.685600
      px      :     1.593337
      py      :     1.649546
      dz2     :     0.015257  d :     0.054482
      dxz     :     0.015084
      dyz     :     0.014110
      dx2y2   :     0.006333
      dxy     :     0.003699
 31 O s       :     3.440131  s :     3.440131
      pz      :     1.688609  p :     4.669490
      px      :     1.580477
      py      :     1.400405
      dz2     :     0.008934  d :     0.060639
      dxz     :     0.004860
      dyz     :     0.015151
      dx2y2   :     0.014470
      dxy     :     0.017223
 32 C s       :     2.812972  s :     2.812972
      pz      :     0.956038  p :     2.699622
      px      :     0.776214
      py      :     0.967370
      dz2     :     0.070314  d :     0.317148
      dxz     :     0.053066
      dyz     :     0.091901
      dx2y2   :     0.052055
      dxy     :     0.049812
 33 C s       :     2.957843  s :     2.957843
      pz      :     1.104916  p :     3.350304
      px      :     1.155554
      py      :     1.089834
      dz2     :     0.004247  d :     0.062545
      dxz     :     0.016149
      dyz     :     0.021475
      dx2y2   :     0.018430
      dxy     :     0.002243
 34 H s       :     0.834072  s :     0.834072
 35 H s       :     0.826301  s :     0.826301
 36 H s       :     0.842270  s :     0.842270
 37 H s       :     0.819494  s :     0.819494
 38 H s       :     0.816025  s :     0.816025


                      *****************************
                      * MAYER POPULATION ANALYSIS *
                      *****************************

  NA   - Mulliken gross atomic population
  ZA   - Total nuclear charge
  QA   - Mulliken gross atomic charge
  VA   - Mayer's total valence
  BVA  - Mayer's bonded valence
  FA   - Mayer's free valence

  ATOM       NA         ZA         QA         VA         BVA        FA
  0 Ir    16.3911    17.0000     0.6089     3.7597     3.7597    -0.0000
  1 C      6.2584     6.0000    -0.2584     3.7334     3.7334     0.0000
  2 C      6.2519     6.0000    -0.2519     3.7286     3.7286     0.0000
  3 C      6.2793     6.0000    -0.2793     3.7461     3.7461    -0.0000
  4 C      6.2164     6.0000    -0.2164     3.7136     3.7136    -0.0000
  5 C      6.1519     6.0000    -0.1519     3.7002     3.7002     0.0000
  6 N      7.4370     7.0000    -0.4370     3.2123     3.2123    -0.0000
  7 C      6.1261     6.0000    -0.1261     3.7123     3.7123    -0.0000
  8 C      6.6789     6.0000    -0.6789     3.6894     3.6894     0.0000
  9 H      0.7317     1.0000     0.2683     0.8978     0.8978     0.0000
 10 H      0.7756     1.0000     0.2244     0.9109     0.9109     0.0000
 11 H      0.7481     1.0000     0.2519     0.9012     0.9012     0.0000
 12 C      6.6326     6.0000    -0.6326     3.6720     3.6720    -0.0000
 13 H      0.7243     1.0000     0.2757     0.8739     0.8739     0.0000
 14 H      0.7428     1.0000     0.2572     0.8992     0.8992    -0.0000
 15 H      0.7671     1.0000     0.2329     0.9095     0.9095     0.0000
 16 H      0.7660     1.0000     0.2340     0.9059     0.9059     0.0000
 17 C      5.9307     6.0000     0.0693     3.6685     3.6685     0.0000
 18 C      6.1224     6.0000    -0.1224     3.6843     3.6843    -0.0000
 19 H      0.7165     1.0000     0.2835     0.8873     0.8873     0.0000
 20 C      6.5611     6.0000    -0.5611     3.5758     3.5758    -0.0000
 21 C      6.1047     6.0000    -0.1047     3.7493     3.7493     0.0000
 22 S     15.6584    16.0000     0.3416     2.5928     2.5928     0.0000
 23 C      6.4238     6.0000    -0.4238     3.7532     3.7532    -0.0000
 24 H      0.5228     1.0000     0.4772     0.7413     0.7413    -0.0000
 25 H      0.7338     1.0000     0.2662     0.9014     0.9014     0.0000
 26 H      0.7026     1.0000     0.2974     0.8975     0.8975    -0.0000
 27 H      0.7162     1.0000     0.2838     0.9071     0.9071    -0.0000
 28 H      0.7204     1.0000     0.2796     0.9096     0.9096     0.0000
 29 H      0.7055     1.0000     0.2945     0.8970     0.8970     0.0000
 30 O      8.4871     8.0000    -0.4871     2.1326     2.1326     0.0000
 31 O      8.4964     8.0000    -0.4964     2.1297     2.1297     0.0000
 32 C      5.3639     6.0000     0.6361     3.8831     3.8831    -0.0000
 33 C      6.7439     6.0000    -0.7439     3.6545     3.6545    -0.0000
 34 H      0.7251     1.0000     0.2749     0.8923     0.8923    -0.0000
 35 H      0.7220     1.0000     0.2780     0.8900     0.8900     0.0000
 36 H      0.7351     1.0000     0.2649     0.8962     0.8962     0.0000
 37 H      0.7205     1.0000     0.2795     0.9105     0.9105    -0.0000
 38 H      0.7081     1.0000     0.2919     0.9032     0.9032     0.0000

  Mayer bond orders larger than 0.100000
B(  0-Ir,  1-C ) :   0.4623 B(  0-Ir,  2-C ) :   0.3782 B(  0-Ir,  3-C ) :   0.4736 
B(  0-Ir,  4-C ) :   0.4210 B(  0-Ir,  5-C ) :   0.3550 B(  0-Ir,  6-N ) :   0.4655 
B(  0-Ir, 20-C ) :   0.5384 B(  0-Ir, 31-O ) :   0.4996 B(  1-C ,  2-C ) :   1.1249 
B(  1-C ,  4-C ) :   1.2135 B(  1-C , 27-H ) :   0.9096 B(  2-C ,  5-C ) :   1.2440 
B(  2-C , 28-H ) :   0.9102 B(  3-C ,  4-C ) :   1.1508 B(  3-C ,  5-C ) :   1.1575 
B(  3-C , 37-H ) :   0.9146 B(  4-C , 38-H ) :   0.8998 B(  5-C , 29-H ) :   0.9026 
B(  6-N ,  7-C ) :   0.8969 B(  6-N , 17-C ) :   1.6418 B(  7-C ,  8-C ) :   0.9901 
B(  7-C , 12-C ) :   0.9674 B(  7-C , 13-H ) :   0.8791 B(  8-C ,  9-H ) :   0.9051 
B(  8-C , 10-H ) :   0.9131 B(  8-C , 11-H ) :   0.9131 B( 12-C , 14-H ) :   0.9081 
B( 12-C , 15-H ) :   0.9152 B( 12-C , 16-H ) :   0.9121 B( 17-C , 18-C ) :   1.1215 
B( 17-C , 19-H ) :   0.8769 B( 18-C , 20-C ) :   1.2273 B( 18-C , 22-S ) :   1.2286 
B( 20-C , 21-C ) :   1.2704 B( 20-C , 24-H ) :   0.2887 B( 21-C , 23-C ) :   1.5324 
B( 21-C , 25-H ) :   0.9025 B( 22-S , 23-C ) :   1.2259 B( 23-C , 26-H ) :   0.8917 
B( 24-H , 30-O ) :   0.3891 B( 30-O , 32-C ) :   1.5141 B( 31-O , 32-C ) :   1.4191 
B( 32-C , 33-C ) :   0.9455 B( 33-C , 34-H ) :   0.8986 B( 33-C , 35-H ) :   0.8915 
B( 33-C , 36-H ) :   0.9071 


------------------
HIRSHFELD ANALYSIS
------------------

Total integrated alpha density =     82.000180599
Total integrated beta density  =     82.000180599

  ATOM     CHARGE      SPIN    
   0 Ir   0.165668    0.000000
   1 C   -0.006942    0.000000
   2 C   -0.017712    0.000000
   3 C   -0.024753    0.000000
   4 C    0.004066    0.000000
   5 C    0.017174    0.000000
   6 N   -0.071492    0.000000
   7 C    0.052028    0.000000
   8 C   -0.071713    0.000000
   9 H    0.052766    0.000000
  10 H    0.037453    0.000000
  11 H    0.040145    0.000000
  12 C   -0.071309    0.000000
  13 H    0.043851    0.000000
  14 H    0.049196    0.000000
  15 H    0.037581    0.000000
  16 H    0.030900    0.000000
  17 C    0.092035    0.000000
  18 C   -0.014693    0.000000
  19 H    0.076082    0.000000
  20 C   -0.092174    0.000000
  21 C   -0.030051    0.000000
  22 S    0.140475    0.000000
  23 C   -0.024179    0.000000
  24 H    0.116515    0.000000
  25 H    0.067162    0.000000
  26 H    0.079238    0.000000
  27 H    0.079754    0.000000
  28 H    0.077414    0.000000
  29 H    0.089013    0.000000
  30 O   -0.217897    0.000000
  31 O   -0.238320    0.000000
  32 C    0.255923    0.000000
  33 C   -0.060421    0.000000
  34 H    0.059797    0.000000
  35 H    0.065493    0.000000
  36 H    0.053117    0.000000
  37 H    0.078440    0.000000
  38 H    0.080012    0.000000

  TOTAL   0.999639    0.000000

-------
TIMINGS
-------

Total SCF time: 0 days 0 hours 4 min 56 sec 

Total time                  ....     296.294 sec
Sum of individual times     ....     295.763 sec  ( 99.8%)

Fock matrix formation       ....     286.972 sec  ( 96.9%)
  Split-RI-J                ....      21.091 sec  (  7.3% of F)
  Chain of spheres X        ....     249.717 sec  ( 87.0% of F)
  XC integration            ....      16.171 sec  (  5.6% of F)
    Basis function eval.    ....       7.459 sec  ( 46.1% of XC)
    Density eval.           ....       4.303 sec  ( 26.6% of XC)
    XC-Functional eval.     ....       1.197 sec  (  7.4% of XC)
    XC-Potential eval.      ....       2.631 sec  ( 16.3% of XC)
Diagonalization             ....       0.250 sec  (  0.1%)
Density matrix formation    ....       0.039 sec  (  0.0%)
Population analysis         ....       1.618 sec  (  0.5%)
Initial guess               ....       0.032 sec  (  0.0%)
Orbital Transformation      ....       0.000 sec  (  0.0%)
Orbital Orthonormalization  ....       0.025 sec  (  0.0%)
DIIS solution               ....       0.091 sec  (  0.0%)
Grid generation             ....       6.760 sec  (  2.3%)

Maximum memory used throughout the entire SCF-calculation: 173.3 MB


-------------------------------------------------------------------------------
                          DFT DISPERSION CORRECTION                            
                                                                               
                              DFTD3 V3.1  Rev 1                                
                          USING Becke-Johnson damping                          
-------------------------------------------------------------------------------
The PBEh-3c composite method is recognized
Using three-body term ABC
Active option DFTDOPT                   ...         4   

molecular C6(AA) [au] = 19535.258265 


            DFT-D V3
 parameters
 s6 scaling factor         :     1.0000 
 a1 scaling factor         :     0.4860 
 s8 scaling factor         :     0.0000 
 a2 scaling factor         :     4.5000 
 Damping factor alpha9(ATM):    16.0000 
 ad hoc parameters k1-k3   :    16.0000     1.3333    -4.0000 

 Edisp/kcal,au: -19.226585014443  -0.030639510252 
 E6   /kcal   : -19.560265239 
 E8   /kcal   :  -0.000000000 
 E6(ABC)      :   0.333680224 
 % E8         :   0.000000000 
 % E6(ABC)    :  -1.735514778 

-------------------------   ----------------
Dispersion correction           -0.030639510
-------------------------   ----------------

 ** NOTE ** -> element ir will be treated as co
NOTIFICATION: Different basis set in ORCA and otool_gcp:
ORCA: 358  gCP: 357 
If you are NOT using ECPs, check your basis set inputs!
------------------   -----------------
gCP correction             0.079171574
------------------   -----------------

-------------------------   --------------------
FINAL SINGLE POINT ENERGY     -1288.405000243225
-------------------------   --------------------

                                *** OPTIMIZATION RUN DONE ***

                            ***************************************
                            *     ORCA property calculations      *
                            ***************************************

                                    ---------------------
                                    Active property flags
                                    ---------------------
   (+) Dipole Moment


------------------------------------------------------------------------------
                       ORCA ELECTRIC PROPERTIES CALCULATION
------------------------------------------------------------------------------

Dipole Moment Calculation                       ... on
Quadrupole Moment Calculation                   ... off
Polarizability Calculation                      ... off
GBWName                                         ... reaction4-IEIP_ts_guess_scan_12-12_orca.gbw
Electron density                                ... reaction4-IEIP_ts_guess_scan_12-12_orca.scfp
The origin for moment calculation is the CENTER OF MASS  = ( 0.865186, -0.546476 -0.187291)

-------------
DIPOLE MOMENT
-------------
                                X             Y             Z
Electronic contribution:     37.30254     -75.50384      70.50560
Nuclear contribution   :    -37.85451      75.25173     -70.66362
                        -----------------------------------------
Total Dipole Moment    :     -0.55198      -0.25211      -0.15802
                        -----------------------------------------
Magnitude (a.u.)       :      0.62706
Magnitude (Debye)      :      1.59387



--------------------
Rotational spectrum 
--------------------
 
Rotational constants in cm-1:     0.010574     0.008802     0.008210 
Rotational constants in MHz :   316.997667   263.865357   246.116496 

 Dipole components along the rotational axes: 
x,y,z [a.u.] :     0.061112     0.247186     0.573039 
x,y,z [Debye]:     0.155334     0.628298     1.456550 

 

Timings for individual modules:

Sum of individual times         ...     7446.630 sec (= 124.110 min)
GTO integral calculation        ...       25.658 sec (=   0.428 min)   0.3 %
SCF iterations                  ...     5768.607 sec (=  96.143 min)  77.5 %
SCF Gradient evaluation         ...     1648.817 sec (=  27.480 min)  22.1 %
Geometry relaxation             ...        3.547 sec (=   0.059 min)   0.0 %
                             ****ORCA TERMINATED NORMALLY****
TOTAL RUN TIME: 0 days 2 hours 4 minutes 11 seconds 459 msec
