
                                 *****************
                                 * O   R   C   A *
                                 *****************

                                            #,                                       
                                            ###                                      
                                            ####                                     
                                            #####                                    
                                            ######                                   
                                           ########,                                 
                                     ,,################,,,,,                         
                               ,,#################################,,                 
                          ,,##########################################,,             
                       ,#########################################, ''#####,          
                    ,#############################################,,   '####,        
                  ,##################################################,,,,####,       
                ,###########''''           ''''###############################       
              ,#####''   ,,,,##########,,,,          '''####'''          '####       
            ,##' ,,,,###########################,,,                        '##       
           ' ,,###''''                  '''############,,,                           
         ,,##''                                '''############,,,,        ,,,,,,###''
      ,#''                                            '''#######################'''  
     '                                                          ''''####''''         
             ,#######,   #######,   ,#######,      ##                                
            ,#'     '#,  ##    ##  ,#'     '#,    #''#        ######   ,####,        
            ##       ##  ##   ,#'  ##            #'  '#       #        #'  '#        
            ##       ##  #######   ##           ,######,      #####,   #    #        
            '#,     ,#'  ##    ##  '#,     ,#' ,#      #,         ##   #,  ,#        
             '#######'   ##     ##  '#######'  #'      '#     #####' # '####'        



                  #######################################################
                  #                        -***-                        #
                  #          Department of theory and spectroscopy      #
                  #    Directorship and core code : Frank Neese         #
                  #        Max Planck Institute fuer Kohlenforschung    #
                  #                Kaiser Wilhelm Platz 1               #
                  #                 D-45470 Muelheim/Ruhr               #
                  #                      Germany                        #
                  #                                                     #
                  #                  All rights reserved                #
                  #                        -***-                        #
                  #######################################################


                         Program Version 5.0.3 -  RELEASE  -


 With contributions from (in alphabetic order):
   Daniel Aravena         : Magnetic Suceptibility
   Michael Atanasov       : Ab Initio Ligand Field Theory (pilot matlab implementation)
   Alexander A. Auer      : GIAO ZORA, VPT2 properties, NMR spectrum
   Ute Becker             : Parallelization
   Giovanni Bistoni       : ED, misc. LED, open-shell LED, HFLD
   Martin Brehm           : Molecular dynamics
   Dmytro Bykov           : SCF Hessian
   Vijay G. Chilkuri      : MRCI spin determinant printing, contributions to CSF-ICE
   Dipayan Datta          : RHF DLPNO-CCSD density
   Achintya Kumar Dutta   : EOM-CC, STEOM-CC
   Dmitry Ganyushin       : Spin-Orbit,Spin-Spin,Magnetic field MRCI
   Miquel Garcia          : C-PCM and meta-GGA Hessian, CC/C-PCM, Gaussian charge scheme
   Yang Guo               : DLPNO-NEVPT2, F12-NEVPT2, CIM, IAO-localization
   Andreas Hansen         : Spin unrestricted coupled pair/coupled cluster methods
   Benjamin Helmich-Paris : MC-RPA, TRAH-SCF, COSX integrals
   Lee Huntington         : MR-EOM, pCC
   Robert Izsak           : Overlap fitted RIJCOSX, COSX-SCS-MP3, EOM
   Marcus Kettner         : VPT2
   Christian Kollmar      : KDIIS, OOCD, Brueckner-CCSD(T), CCSD density, CASPT2, CASPT2-K
   Simone Kossmann        : Meta GGA functionals, TD-DFT gradient, OOMP2, MP2 Hessian
   Martin Krupicka        : Initial AUTO-CI
   Lucas Lang             : DCDCAS
   Marvin Lechner         : AUTO-CI (C++ implementation), FIC-MRCC
   Dagmar Lenk            : GEPOL surface, SMD
   Dimitrios Liakos       : Extrapolation schemes; Compound Job, initial MDCI parallelization
   Dimitrios Manganas     : Further ROCIS development; embedding schemes
   Dimitrios Pantazis     : SARC Basis sets
   Anastasios Papadopoulos: AUTO-CI, single reference methods and gradients
   Taras Petrenko         : DFT Hessian,TD-DFT gradient, ASA, ECA, R-Raman, ABS, FL, XAS/XES, NRVS
   Peter Pinski           : DLPNO-MP2, DLPNO-MP2 Gradient
   Christoph Reimann      : Effective Core Potentials
   Marius Retegan         : Local ZFS, SOC
   Christoph Riplinger    : Optimizer, TS searches, QM/MM, DLPNO-CCSD(T), (RO)-DLPNO pert. Triples
   Tobias Risthaus        : Range-separated hybrids, TD-DFT gradient, RPA, STAB
   Michael Roemelt        : Original ROCIS implementation
   Masaaki Saitow         : Open-shell DLPNO-CCSD energy and density
   Barbara Sandhoefer     : DKH picture change effects
   Avijit Sen             : IP-ROCIS
   Kantharuban Sivalingam : CASSCF convergence, NEVPT2, FIC-MRCI
   Bernardo de Souza      : ESD, SOC TD-DFT
   Georgi Stoychev        : AutoAux, RI-MP2 NMR, DLPNO-MP2 response
   Willem Van den Heuvel  : Paramagnetic NMR
   Boris Wezisla          : Elementary symmetry handling
   Frank Wennmohs         : Technical directorship


 We gratefully acknowledge several colleagues who have allowed us to
 interface, adapt or use parts of their codes:
   Stefan Grimme, W. Hujo, H. Kruse, P. Pracht,  : VdW corrections, initial TS optimization,
                  C. Bannwarth, S. Ehlert          DFT functionals, gCP, sTDA/sTD-DF
   Ed Valeev, F. Pavosevic, A. Kumar             : LibInt (2-el integral package), F12 methods
   Garnet Chan, S. Sharma, J. Yang, R. Olivares  : DMRG
   Ulf Ekstrom                                   : XCFun DFT Library
   Mihaly Kallay                                 : mrcc  (arbitrary order and MRCC methods)
   Jiri Pittner, Ondrej Demel                    : Mk-CCSD
   Frank Weinhold                                : gennbo (NPA and NBO analysis)
   Christopher J. Cramer and Donald G. Truhlar   : smd solvation model
   Lars Goerigk                                  : TD-DFT with DH, B97 family of functionals
   V. Asgeirsson, H. Jonsson                     : NEB implementation
   FAccTs GmbH                                   : IRC, NEB, NEB-TS, DLPNO-Multilevel, CI-OPT
                                                   MM, QMMM, 2- and 3-layer-ONIOM, Crystal-QMMM,
                                                   LR-CPCM, SF, NACMEs, symmetry and pop. for TD-DFT,
                                                   nearIR, NL-DFT gradient (VV10), updates on ESD,
                                                   ML-optimized integration grids
   S Lehtola, MJT Oliveira, MAL Marques          : LibXC Library
   Liviu Ungur et al                             : ANISO software


 Your calculation uses the libint2 library for the computation of 2-el integrals
 For citations please refer to: http://libint.valeyev.net

 Your ORCA version has been built with support for libXC version: 5.1.0
 For citations please refer to: https://tddft.org/programs/libxc/

 This ORCA versions uses:
   CBLAS   interface :  Fast vector & matrix operations
   LAPACKE interface :  Fast linear algebra routines
   SCALAPACK package :  Parallel linear algebra routines
   Shared memory     :  Shared parallel matrices
   BLAS/LAPACK       :  OpenBLAS 0.3.15  USE64BITINT DYNAMIC_ARCH NO_AFFINITY SkylakeX SINGLE_THREADED
        Core in use  :  SkylakeX
   Copyright (c) 2011-2014, The OpenBLAS Project


Your calculation utilizes the geometrical counterpoise correction gCP
Please cite in your paper:
H.Kruse, S. Grimme J.Chem.Phys., 136, (2012), 154101 
   

Your calculation utilizes the atom-pairwise dispersion correction
with the Becke-Johnson damping scheme (D3BJ)
Cite in your paper:
S.Grimme, S.Ehrlich, L.Goerigk, J Comput Chem, (2011), 32, 1456–1465 
S.Grimme, J.Antony, S.Ehrlich and H.Krieg, J.Chem.Phys., 132, (2010), 154104 
   

Your calculation employs the composite approach PBEh-3c.
Please cite in your paper:
S. Grimme, J. G. Brandenburg, C. Bannwarth, A. Hansen J.Chem.Phys., 143, (2015), 054107 
   

================================================================================

cite the ECPs for Ir [Def2-ECP] as follows:
Ce-Yb(ecp-28): M. Dolg, H. Stoll, H.Preuss, J. Chem. Phys., 1989, 90, 1730-1734.
Y-Cd(ecp-28), Hf-Hg(ecp-46): D. Andrae,U. Haeussermann, M. Dolg, H. Stoll, H. Preuss, Theor. Chim. Acta, 1990, 77, 123-141.
In-Sb(ecp-28), Tl-Bi(ecp-46): B. Metz, H. Stoll, M. Dolg, J. Chem. Phys., 2000, 113, 2563-2569.
Te-Xe(ecp-28), Po-Rn(ecp-46): K. A. Peterson, D. Figgen, E. Goll, H. Stoll, M. Dolg, J. Chem. Phys., 2003, 119, 11113-11123.
Rb(ecp-28), Cs(ecp-46): T. Leininger, A. Nicklass, W. Kuechle, H. Stoll, M. Dolg, A. Bergner, Chem. Phys. Lett., 1996, 255, 274-280.
Sr(ecp-28), Ba(ecp-46): M. Kaupp, P. V. Schleyer, H. Stoll and H. Preuss, J. Chem. Phys., 1991, 94, 1360-1366.
La(ecp-46): M. Dolg, H. Stoll, A. Savin, H. Preuss, Theor. Chim. Acta, 1989, 75, 173-194.
Lu(ecp-28): X. Cao, M. Dolg, J. Chem. Phys., 2001, 115, 7348-7355.

ECP parameters for Ir [Def2-ECP] have been obtained from:
TURBOMOLE (7.0.2)

----- Orbital basis set information -----
Your calculation utilizes the basis: def2-mSVP

----- AuxJ basis set information -----
Your calculation utilizes the auxiliary basis: def2/J
   F. Weigend, Phys. Chem. Chem. Phys. 8, 1057 (2006).

================================================================================
                                        WARNINGS
                       Please study these warnings very carefully!
================================================================================


WARNING: Geometry Optimization
  ===> : Switching off AutoStart
         For restart on a previous wavefunction, please use MOREAD

WARNING: No Hueckel Guess possible with ECP basis!
  ===> : Switching to HCORE guess!

INFO   : the flag for use of the SHARK integral package has been found!

================================================================================
                                       INPUT FILE
================================================================================
NAME = reaction4-IEIP_ts_guess_scan_4-10_orca.inp
|  1> ! Opt PBEh-3c
|  2> %geom Constraints
|  3> { B 0 20 2.428571428571429 C }
|  4> { B 24 30 1.3571428571428572 C }
|  5>     end
|  6> end
|  7> %output 
|  8> xyzfile=True 
|  9> end 
| 10> %scf 
| 11> maxiter 250 
| 12> end
| 13> %output
| 14> Print[P_Hirshfeld] = 1
| 15> end
| 16> % maxcore
| 17> 4000
| 18> *xyz 1 1
| 19> Ir   0.58300723  -0.73084605   0.48878845 
| 20> C    0.02619070  -2.81176395   0.38094452 
| 21> C    0.07125325  -2.35763536   1.74810479 
| 22> C    2.18317715  -2.14443634   0.85039016 
| 23> C    1.30714057  -2.65537940  -0.17976286 
| 24> C    1.43076052  -1.99688097   2.02970781 
| 25> N   -1.04099813   0.14709134  -0.51353490 
| 26> C   -2.32070033   0.45098547   0.14841023 
| 27> C   -3.12002540   1.54419026  -0.54336781 
| 28> H   -3.95228082   1.83095204   0.09805280 
| 29> H   -3.55608268   1.21992254  -1.48951609 
| 30> H   -2.52260890   2.43920723  -0.71919410 
| 31> C   -3.13572826  -0.82752235   0.30245035 
| 32> H   -2.04176857   0.80721285   1.14148502 
| 33> H   -4.05740211  -0.61108323   0.84063410 
| 34> H   -3.40713958  -1.24376990  -0.66859113 
| 35> H   -2.60171708  -1.58847540   0.86954015 
| 36> C   -0.84736739   0.36953069  -1.75803465 
| 37> C    0.49588863   0.18275075  -2.24898434 
| 38> H   -1.64262782   0.72066354  -2.40941161 
| 39> C    1.59692202   0.43538391  -1.43990118 
| 40> C    2.79862721   0.07424738  -2.11129933 
| 41> S    0.92140210  -0.42666444  -3.78516401 
| 42> C    2.58549164  -0.39585211  -3.37092848 
| 43> H    1.54187311   1.34254367  -0.61500130 
| 44> H    3.78603613   0.21201666  -1.69512234 
| 45> H    3.32207276  -0.70644335  -4.09653905 
| 46> H   -0.84960587  -3.17501234  -0.13734294 
| 47> H   -0.73762289  -2.38680331   2.46313871 
| 48> H    1.79338812  -1.60015065   2.96714002 
| 49> O    1.39967838   2.40861357   0.23593464 
| 50> O    0.53425593   0.93330327   1.66646719 
| 51> C    0.95552905   2.10513954   1.34708039 
| 52> C    0.91117088   3.12175679   2.45112056 
| 53> H    0.88103705   4.12988196   2.04683715 
| 54> H    1.81815951   3.03108692   3.05216309 
| 55> H    0.06484019   2.95830620   3.11455858 
| 56> H    3.23352090  -1.92183125   0.73569255 
| 57> H    1.59162283  -2.88504618  -1.19620497 
| 58> *
| 59> 
| 60>                          ****END OF INPUT****
================================================================================

                       *****************************
                       * Geometry Optimization Run *
                       *****************************

Geometry optimization settings:
Update method            Update   .... BFGS
Choice of coordinates    CoordSys .... Z-matrix Internals
Initial Hessian          InHess   .... Almoef's Model

Convergence Tolerances:
Energy Change            TolE     ....  5.0000e-06 Eh
Max. Gradient            TolMAXG  ....  3.0000e-04 Eh/bohr
RMS Gradient             TolRMSG  ....  1.0000e-04 Eh/bohr
Max. Displacement        TolMAXD  ....  4.0000e-03 bohr
RMS Displacement         TolRMSD  ....  2.0000e-03 bohr
Strict Convergence                ....  False
------------------------------------------------------------------------------
                        ORCA OPTIMIZATION COORDINATE SETUP
------------------------------------------------------------------------------

The optimization will be done in new redundant internal coordinates
Making redundant internal coordinates   ...  (new redundants) done
Evaluating the initial hessian          ...  (Almloef) done
Evaluating the coordinates              ...  done
Calculating the B-matrix                .... done
Calculating the G-matrix                .... done
Diagonalizing the G-matrix              .... done
Imposing constraints:
 Iter   0:  RMS(Cart)=    0.0219452864 RMS(Int)=    0.0076003031
 Iter   1:  RMS(Cart)=    0.0028604575 RMS(Int)=    0.0010917201
 Iter   2:  RMS(Cart)=    0.0004080734 RMS(Int)=    0.0001588293
 Iter   3:  RMS(Cart)=    0.0000591553 RMS(Int)=    0.0000231398
 Iter   4:  RMS(Cart)=    0.0000086079 RMS(Int)=    0.0000033720
 Iter   5:  RMS(Cart)=    0.0000012539 RMS(Int)=    0.0000004914
 Iter   6:  RMS(Cart)=    0.0000001827 RMS(Int)=    0.0000000716
 Iter   7:  RMS(Cart)=    0.0000000266 RMS(Int)=    0.0000000104
CONVERGED
Small eigenvalue found = 1.338e-02
Small eigenvalue found = 2.459e-02
Small eigenvalue found = 2.620e-02
The first mode is                       ....  234
The number of degrees of freedom        ....  111
Storing new coordinates                 .... done

    -----------------------------------------------------------------
                    Redundant Internal Coordinates


    -----------------------------------------------------------------
         Definition                    Initial Value    Approx d2E/dq
    -----------------------------------------------------------------
      1. B(C   1,Ir  0)                  2.1567         0.086950   
      2. B(C   2,C   1)                  1.4415         0.517449   
      3. B(C   2,Ir  0)                  2.1199         0.099561   
      4. B(C   3,Ir  0)                  2.1655         0.084212   
      5. B(C   4,Ir  0)                  2.1621         0.085246   
      6. B(C   4,C   1)                  1.4074         0.586945   
      7. B(C   4,C   3)                  1.4457         0.509395   
      8. B(C   5,C   3)                  1.4070         0.587703   
      9. B(C   5,C   2)                  1.4346         0.530627   
     10. B(C   5,Ir  0)                  2.1669         0.083754   
     11. B(N   6,Ir  0)                  2.0997         0.095718   
     12. B(C   7,N   6)                  1.4725         0.413336   
     13. B(C   8,C   7)                  1.5207         0.386537   
     14. B(H   9,C   8)                  1.0892         0.361193   
     15. B(H  10,C   8)                  1.0911         0.358652   
     16. B(H  11,C   8)                  1.0904         0.359629   
     17. B(C  12,C   7)                  1.5240         0.381898   
     18. B(H  13,C   7)                  1.0913         0.358407   
     19. B(H  14,C  12)                  1.0890         0.361395   
     20. B(H  15,C  12)                  1.0908         0.359041   
     21. B(H  16,C  12)                  1.0890         0.361494   
     22. B(C  17,N   6)                  1.2755         0.841443   
     23. B(C  18,C  17)                  1.4402         0.515564   
     24. B(H  19,C  17)                  1.0863         0.365042   
     25. B(C  20,C  18)                  1.3901         0.625942   
     26. B(C  20,Ir  0)                  2.4286         0.027374 C 
     27. B(C  21,C  20)                  1.4235         0.553206   
     28. B(S  22,C  18)                  1.7066         0.526597   
     29. B(C  23,C  21)                  1.3611         0.694317   
     30. B(C  23,S  22)                  1.7148         0.510214   
     31. B(H  24,C  20)                  1.2268         0.217402   
     32. B(H  25,C  21)                  1.0804         0.373092   
     33. B(H  26,C  23)                  1.0797         0.374128   
     34. B(H  27,C   1)                  1.0806         0.372819   
     35. B(H  28,C   2)                  1.0800         0.373572   
     36. B(H  29,C   5)                  1.0806         0.372767   
     37. B(O  30,H  24)                  1.3571         0.114699 C 
     38. B(O  31,Ir  0)                  2.0396         0.119930   
     39. B(C  32,O  30)                  1.2319         0.990725   
     40. B(C  32,O  31)                  1.2835         0.821285   
     41. B(C  33,C  32)                  1.5015         0.414869   
     42. B(H  34,C  33)                  1.0866         0.364645   
     43. B(H  35,C  33)                  1.0918         0.357682   
     44. B(H  36,C  33)                  1.0877         0.363125   
     45. B(H  37,C   3)                  1.0798         0.373873   
     46. B(H  38,C   4)                  1.0802         0.373301   
     47. A(C   4,Ir  0,N   6)          118.9123         0.250019   
     48. A(C   3,Ir  0,C   5)           37.9025         0.245917   
     49. A(C   3,Ir  0,N   6)          157.4961         0.249574   
     50. A(C   5,Ir  0,O  31)           94.2924         0.257774   
     51. A(C   1,Ir  0,C   4)           38.0389         0.247690   
     52. A(C   1,Ir  0,N   6)          100.3319         0.250741   
     53. A(C   3,Ir  0,O  31)          116.9897         0.257983   
     54. A(C   4,Ir  0,O  31)          155.9056         0.258450   
     55. A(C   2,Ir  0,C   5)           39.0846         0.251978   
     56. A(C   1,Ir  0,C   2)           39.3848         0.253365   
     57. A(C   2,Ir  0,N   6)          114.6359         0.255776   
     58. A(C   2,Ir  0,C   4)           65.2785         0.252630   
     59. A(C   3,Ir  0,C   4)           39.0311         0.246545   
     60. A(C   1,Ir  0,O  31)          144.0490         0.259211   
     61. A(N   6,Ir  0,O  31)           85.1800         0.261708   
     62. A(C   4,Ir  0,C   5)           64.4729         0.246351   
     63. A(C   1,Ir  0,C   3)           64.5056         0.247252   
     64. A(C   2,Ir  0,C   3)           65.0729         0.252179   
     65. A(C   2,Ir  0,O  31)          106.0511         0.264509   
     66. A(C   5,Ir  0,N   6)          152.3201         0.249376   
     67. A(C   1,Ir  0,C   5)           64.7282         0.247057   
     68. A(C   4,C   1,H  27)          125.7448         0.351712   
     69. A(Ir  0,C   1,C   2)           68.9300         0.314126   
     70. A(C   2,C   1,H  27)          125.8872         0.344325   
     71. A(C   2,C   1,C   4)          108.3301         0.416148   
     72. A(Ir  0,C   1,H  27)          123.8908         0.269785   
     73. A(Ir  0,C   1,C   4)           71.1887         0.320640   
     74. A(C   1,C   2,C   5)          107.1638         0.408763   
     75. A(C   5,C   2,H  28)          125.9179         0.345900   
     76. A(Ir  0,C   2,C   5)           72.2291         0.322459   
     77. A(Ir  0,C   2,C   1)           71.6852         0.321134   
     78. A(Ir  0,C   2,H  28)          126.5044         0.275498   
     79. A(C   1,C   2,H  28)          126.5897         0.344441   
     80. A(Ir  0,C   3,H  37)          124.5097         0.268595   
     81. A(Ir  0,C   3,C   5)           71.1057         0.319036   
     82. A(C   5,C   3,H  37)          126.0032         0.351957   
     83. A(C   4,C   3,H  37)          125.9140         0.343583   
     84. A(Ir  0,C   3,C   4)           70.3589         0.311710   
     85. A(C   4,C   3,C   5)          108.0815         0.415083   
     86. A(C   3,C   4,H  38)          125.8741         0.343494   
     87. A(Ir  0,C   4,C   1)           70.7724         0.319605   
     88. A(C   1,C   4,H  38)          126.2454         0.351789   
     89. A(Ir  0,C   4,H  38)          124.6422         0.269030   
     90. A(Ir  0,C   4,C   3)           70.6101         0.312326   
     91. A(C   1,C   4,C   3)          107.8777         0.414988   
     92. A(Ir  0,C   5,H  29)          122.2581         0.268254   
     93. A(C   3,C   5,H  29)          125.8969         0.351781   
     94. A(C   2,C   5,H  29)          125.4956         0.345774   
     95. A(Ir  0,C   5,C   3)           70.9918         0.318752   
     96. A(C   2,C   5,C   3)          108.4221         0.418111   
     97. A(Ir  0,C   5,C   2)           68.6863         0.313500   
     98. A(Ir  0,N   6,C  17)          114.2857         0.341904   
     99. A(C   7,N   6,C  17)          122.4805         0.420810   
    100. A(Ir  0,N   6,C   7)          123.2105         0.304318   
    101. A(N   6,C   7,C   8)          113.6205         0.369552   
    102. A(N   6,C   7,C  12)          109.6994         0.368787   
    103. A(C   8,C   7,C  12)          111.5894         0.366860   
    104. A(N   6,C   7,H  13)          104.7334         0.327532   
    105. A(C   8,C   7,H  13)          108.2796         0.325890   
    106. A(C  12,C   7,H  13)          108.5757         0.325243   
    107. A(C   7,C   8,H  11)          112.0520         0.326072   
    108. A(H   9,C   8,H  11)          107.3086         0.290918   
    109. A(H  10,C   8,H  11)          108.8498         0.290596   
    110. A(C   7,C   8,H   9)          108.8451         0.326305   
    111. A(C   7,C   8,H  10)          113.0101         0.325926   
    112. A(H   9,C   8,H  10)          106.4714         0.290794   
    113. A(C   7,C  12,H  14)          109.6234         0.325688   
    114. A(C   7,C  12,H  15)          111.2977         0.325338   
    115. A(H  14,C  12,H  15)          107.7696         0.290869   
    116. A(C   7,C  12,H  16)          112.1238         0.325702   
    117. A(H  14,C  12,H  16)          107.2510         0.291180   
    118. A(H  15,C  12,H  16)          108.5997         0.290881   
    119. A(N   6,C  17,C  18)          116.1558         0.440724   
    120. A(N   6,C  17,H  19)          122.2141         0.370336   
    121. A(C  18,C  17,H  19)          121.5934         0.342900   
    122. A(C  17,C  18,C  20)          121.1593         0.420672   
    123. A(C  17,C  18,S  22)          125.6743         0.430340   
    124. A(C  20,C  18,S  22)          113.0864         0.445661   
    125. A(C  18,C  20,C  21)          110.2856         0.426004   
    126. A(C  18,C  20,H  24)          119.5078         0.324932   
    127. A(C  21,C  20,H  24)          122.6742         0.318427   
    128. A(C  20,C  21,H  25)          123.8650         0.348259   
    129. A(C  23,C  21,H  25)          122.8916         0.361939   
    130. A(C  20,C  21,C  23)          113.1437         0.434005   
    131. A(C  18,S  22,C  23)           91.0382         0.453441   
    132. A(C  21,C  23,H  26)          127.9161         0.362111   
    133. A(S  22,C  23,H  26)          119.6392         0.361596   
    134. A(C  21,C  23,S  22)          112.4232         0.451526   
    135. L(C  20,H  24,O  30,C  18, 1) 175.4514         0.226357   
    136. L(C  20,H  24,O  30,C  18, 2) 183.7603         0.226357   
    137. A(H  24,O  30,C  32)          113.4589         0.311019   
    138. A(Ir  0,O  31,C  32)          126.2687         0.353691   
    139. A(O  30,C  32,O  31)          124.1088         0.491194   
    140. A(O  30,C  32,C  33)          120.5621         0.436453   
    141. A(O  31,C  32,C  33)          115.3064         0.422011   
    142. A(C  32,C  33,H  34)          110.8197         0.330655   
    143. A(C  32,C  33,H  35)          108.9057         0.329603   
    144. A(H  34,C  33,H  35)          107.7524         0.291105   
    145. A(C  32,C  33,H  36)          111.6992         0.330426   
    146. A(H  34,C  33,H  36)          110.1681         0.291797   
    147. A(H  35,C  33,H  36)          107.3440         0.290914   
    148. D(H  27,C   1,Ir  0,N   6)      3.3966         0.001708   
    149. D(C   2,C   1,Ir  0,C   5)     38.9475         0.001708   
    150. D(C   2,C   1,Ir  0,N   6)   -116.4689         0.001708   
    151. D(C   2,C   1,Ir  0,C   4)    119.1621         0.001708   
    152. D(H  27,C   1,Ir  0,C   2)    119.8655         0.001708   
    153. D(C   4,C   1,Ir  0,C   2)   -119.1621         0.001708   
    154. D(C   4,C   1,Ir  0,C   3)    -38.0805         0.001708   
    155. D(C   4,C   1,Ir  0,C   5)    -80.2146         0.001708   
    156. D(H  27,C   1,Ir  0,O  31)     99.4752         0.001708   
    157. D(C   4,C   1,Ir  0,N   6)    124.3690         0.001708   
    158. D(H  27,C   1,Ir  0,C   5)    158.8130         0.001708   
    159. D(H  27,C   1,Ir  0,C   4)   -120.9724         0.001708   
    160. D(C   4,C   1,Ir  0,O  31)   -139.5524         0.001708   
    161. D(C   2,C   1,Ir  0,C   3)     81.0816         0.001708   
    162. D(C   2,C   1,Ir  0,O  31)    -20.3903         0.001708   
    163. D(H  27,C   1,Ir  0,C   3)   -159.0529         0.001708   
    164. D(C   5,C   2,C   1,H  27)    178.7109         0.021242   
    165. D(C   1,C   2,Ir  0,C   5)   -115.6272         0.001772   
    166. D(C   5,C   2,Ir  0,N   6)   -168.7110         0.001772   
    167. D(C   1,C   2,Ir  0,C   3)    -79.5192         0.001772   
    168. D(H  28,C   2,Ir  0,C   4)   -158.7492         0.001772   
    169. D(C   5,C   2,Ir  0,C   1)    115.6272         0.001772   
    170. D(Ir  0,C   2,C   1,C   4)     60.5499         0.021242   
    171. D(C   5,C   2,Ir  0,C   3)     36.1080         0.001772   
    172. D(H  28,C   2,Ir  0,N   6)    -46.7613         0.001772   
    173. D(H  28,C   2,Ir  0,C   5)    121.9497         0.001772   
    174. D(C   5,C   2,C   1,C   4)     -3.4281         0.021242   
    175. D(H  28,C   2,C   1,H  27)      5.0123         0.021242   
    176. D(H  28,C   2,Ir  0,C   1)   -122.4231         0.001772   
    177. D(H  28,C   2,C   1,C   4)   -177.1268         0.021242   
    178. D(C   1,C   2,Ir  0,O  31)    167.7106         0.001772   
    179. D(C   5,C   2,Ir  0,C   4)     79.3011         0.001772   
    180. D(H  28,C   2,C   1,Ir  0)    122.3233         0.021242   
    181. D(Ir  0,C   2,C   1,H  27)   -117.3111         0.021242   
    182. D(C   1,C   2,Ir  0,N   6)     75.6618         0.001772   
    183. D(C   5,C   2,Ir  0,O  31)    -76.6621         0.001772   
    184. D(H  28,C   2,Ir  0,O  31)     45.2876         0.001772   
    185. D(H  28,C   2,Ir  0,C   3)    158.0577         0.001772   
    186. D(C   1,C   2,Ir  0,C   4)    -36.3262         0.001772   
    187. D(C   5,C   2,C   1,Ir  0)    -63.9780         0.021242   
    188. D(C   4,C   3,Ir  0,C   5)    118.0644         0.001695   
    189. D(C   4,C   3,Ir  0,O  31)    176.9038         0.001695   
    190. D(C   4,C   3,Ir  0,N   6)    -13.6906         0.001695   
    191. D(C   4,C   3,Ir  0,C   1)     37.1211         0.001695   
    192. D(C   5,C   3,Ir  0,O  31)     58.8394         0.001695   
    193. D(C   5,C   3,Ir  0,C   2)    -37.2144         0.001695   
    194. D(C   4,C   3,Ir  0,C   2)     80.8501         0.001695   
    195. D(H  37,C   3,Ir  0,C   4)    120.6926         0.001695   
    196. D(H  37,C   3,Ir  0,C   1)    157.8137         0.001695   
    197. D(C   5,C   3,Ir  0,C   1)    -80.9433         0.001695   
    198. D(C   5,C   3,Ir  0,C   4)   -118.0644         0.001695   
    199. D(H  37,C   3,Ir  0,C   5)   -121.2430         0.001695   
    200. D(H  37,C   3,Ir  0,N   6)    107.0020         0.001695   
    201. D(H  37,C   3,Ir  0,O  31)    -62.4036         0.001695   
    202. D(C   5,C   3,Ir  0,N   6)   -131.7550         0.001695   
    203. D(H  37,C   3,Ir  0,C   2)   -158.4574         0.001695   
    204. D(C   1,C   4,Ir  0,C   3)    117.8674         0.001700   
    205. D(H  38,C   4,C   3,H  37)      0.3221         0.020567   
    206. D(C   1,C   4,Ir  0,C   5)     80.9452         0.001700   
    207. D(C   1,C   4,Ir  0,N   6)    -68.0725         0.001700   
    208. D(C   1,C   4,Ir  0,O  31)    111.0968         0.001700   
    209. D(C   1,C   4,Ir  0,C   2)     37.5897         0.001700   
    210. D(C   3,C   4,Ir  0,C   1)   -117.8674         0.001700   
    211. D(H  38,C   4,C   3,C   5)   -179.2826         0.020567   
    212. D(C   3,C   4,Ir  0,C   5)    -36.9222         0.001700   
    213. D(C   3,C   4,Ir  0,N   6)    174.0600         0.001700   
    214. D(C   3,C   4,Ir  0,O  31)     -6.7706         0.001700   
    215. D(Ir  0,C   4,C   1,C   2)    -59.1393         0.027651   
    216. D(H  38,C   4,Ir  0,C   2)    158.9300         0.001700   
    217. D(H  38,C   4,Ir  0,C   3)   -120.7923         0.001700   
    218. D(H  38,C   4,C   1,C   2)   -178.5318         0.027651   
    219. D(H  38,C   4,Ir  0,N   6)     53.2678         0.001700   
    220. D(H  38,C   4,Ir  0,O  31)   -127.5629         0.001700   
    221. D(Ir  0,C   4,C   1,H  27)    118.7255         0.027651   
    222. D(C   3,C   4,C   1,Ir  0)     61.1871         0.027651   
    223. D(C   3,C   4,C   1,H  27)    179.9127         0.027651   
    224. D(H  38,C   4,C   1,Ir  0)   -119.3926         0.027651   
    225. D(H  38,C   4,Ir  0,C   5)   -157.7145         0.001700   
    226. D(H  38,C   4,C   1,H  27)     -0.6670         0.027651   
    227. D(Ir  0,C   4,C   3,C   5)     61.4312         0.020567   
    228. D(Ir  0,C   4,C   3,H  37)   -118.9641         0.020567   
    229. D(C   3,C   4,C   1,C   2)      2.0478         0.027651   
    230. D(C   1,C   4,C   3,C   5)      0.1404         0.020567   
    231. D(C   1,C   4,C   3,H  37)    179.7452         0.020567   
    232. D(H  38,C   4,C   3,Ir  0)    119.2862         0.020567   
    233. D(H  38,C   4,Ir  0,C   1)    121.3403         0.001700   
    234. D(C   1,C   4,C   3,Ir  0)    -61.2907         0.020567   
    235. D(C   3,C   4,Ir  0,C   2)    -80.2778         0.001700   
    236. D(C   2,C   5,Ir  0,C   1)    -39.2463         0.001693   
    237. D(H  29,C   5,C   3,C   4)   -177.5418         0.027726   
    238. D(C   2,C   5,Ir  0,C   4)    -81.5392         0.001693   
    239. D(C   2,C   5,Ir  0,N   6)     22.5228         0.001693   
    240. D(C   2,C   5,Ir  0,O  31)    110.3273         0.001693   
    241. D(C   3,C   5,Ir  0,C   1)     80.3038         0.001693   
    242. D(C   3,C   5,Ir  0,C   2)    119.5501         0.001693   
    243. D(C   3,C   5,Ir  0,C   4)     38.0108         0.001693   
    244. D(H  29,C   5,C   2,C   1)    178.7966         0.022378   
    245. D(C   3,C   5,Ir  0,O  31)   -130.1227         0.001693   
    246. D(H  29,C   5,Ir  0,C   1)   -158.6380         0.001693   
    247. D(C   3,C   5,C   2,Ir  0)    -60.1022         0.022378   
    248. D(H  29,C   5,Ir  0,C   3)    121.0582         0.001693   
    249. D(H  29,C   5,Ir  0,C   4)    159.0690         0.001693   
    250. D(H  29,C   5,Ir  0,N   6)    -96.8690         0.001693   
    251. D(H  29,C   5,Ir  0,O  31)     -9.0645         0.001693   
    252. D(Ir  0,C   5,C   2,C   1)     63.6180         0.022378   
    253. D(H  29,C   5,Ir  0,C   2)   -119.3917         0.001693   
    254. D(Ir  0,C   5,C   2,H  28)   -122.6292         0.022378   
    255. D(C   3,C   5,C   2,C   1)      3.5158         0.022378   
    256. D(C   3,C   5,C   2,H  28)    177.2686         0.022378   
    257. D(C   3,C   5,Ir  0,N   6)    142.0728         0.001693   
    258. D(H  29,C   5,C   2,Ir  0)    115.1786         0.022378   
    259. D(H  29,C   5,C   2,H  28)     -7.4507         0.022378   
    260. D(Ir  0,C   5,C   3,C   4)    -60.9564         0.027726   
    261. D(Ir  0,C   5,C   3,H  37)    119.4393         0.027726   
    262. D(C   2,C   5,C   3,Ir  0)     58.6715         0.027726   
    263. D(C   2,C   5,C   3,C   4)     -2.2849         0.027726   
    264. D(C   2,C   5,C   3,H  37)    178.1108         0.027726   
    265. D(C   2,C   5,Ir  0,C   3)   -119.5501         0.001693   
    266. D(H  29,C   5,C   3,Ir  0)   -116.5854         0.027726   
    267. D(H  29,C   5,C   3,H  37)      2.8539         0.027726   
    268. D(C  17,N   6,Ir  0,C   1)    -95.1949         0.001771   
    269. D(C   7,N   6,Ir  0,C   2)     44.4139         0.001771   
    270. D(C   7,N   6,Ir  0,C   3)    128.4154         0.001771   
    271. D(C   7,N   6,Ir  0,C   4)    118.6120         0.001771   
    272. D(C   7,N   6,Ir  0,C   5)     29.0063         0.001771   
    273. D(C   7,N   6,Ir  0,C   1)     83.0883         0.001771   
    274. D(C   7,N   6,Ir  0,O  31)    -61.0477         0.001771   
    275. D(C  17,N   6,Ir  0,C   2)   -133.8692         0.001771   
    276. D(C  17,N   6,Ir  0,C   3)    -49.8677         0.001771   
    277. D(C  17,N   6,Ir  0,C   4)    -59.6711         0.001771   
    278. D(C  17,N   6,Ir  0,C   5)   -149.2768         0.001771   
    279. D(C  17,N   6,Ir  0,O  31)    120.6692         0.001771   
    280. D(C   8,C   7,N   6,Ir  0)    156.6804         0.014572   
    281. D(C   8,C   7,N   6,C  17)    -25.1748         0.014572   
    282. D(C  12,C   7,N   6,Ir  0)    -77.6478         0.014572   
    283. D(C  12,C   7,N   6,C  17)    100.4970         0.014572   
    284. D(H  13,C   7,N   6,Ir  0)     38.7126         0.014572   
    285. D(H  13,C   7,N   6,C  17)   -143.1425         0.014572   
    286. D(H   9,C   8,C   7,N   6)   -169.9265         0.011888   
    287. D(H   9,C   8,C   7,C  12)     65.4125         0.011888   
    288. D(H   9,C   8,C   7,H  13)    -54.0276         0.011888   
    289. D(H  10,C   8,C   7,N   6)     72.0105         0.011888   
    290. D(H  10,C   8,C   7,C  12)    -52.6504         0.011888   
    291. D(H  10,C   8,C   7,H  13)   -172.0905         0.011888   
    292. D(H  11,C   8,C   7,N   6)    -51.4082         0.011888   
    293. D(H  11,C   8,C   7,C  12)   -176.0692         0.011888   
    294. D(H  11,C   8,C   7,H  13)     64.4907         0.011888   
    295. D(H  14,C  12,C   7,N   6)    176.9168         0.011618   
    296. D(H  14,C  12,C   7,C   8)    -56.2580         0.011618   
    297. D(H  14,C  12,C   7,H  13)     63.0067         0.011618   
    298. D(H  15,C  12,C   7,N   6)    -63.9559         0.011618   
    299. D(H  15,C  12,C   7,C   8)     62.8693         0.011618   
    300. D(H  15,C  12,C   7,H  13)   -177.8660         0.011618   
    301. D(H  16,C  12,C   7,N   6)     57.9163         0.011618   
    302. D(H  16,C  12,C   7,C   8)   -175.2585         0.011618   
    303. D(H  16,C  12,C   7,H  13)    -55.9938         0.011618   
    304. D(C  18,C  17,N   6,Ir  0)     -8.7872         0.061139   
    305. D(C  18,C  17,N   6,C   7)    172.9156         0.061139   
    306. D(H  19,C  17,N   6,Ir  0)    173.3839         0.061139   
    307. D(H  19,C  17,N   6,C   7)     -4.9133         0.061139   
    308. D(C  20,C  18,C  17,N   6)    -32.4004         0.018121   
    309. D(C  20,C  18,C  17,H  19)    145.4431         0.018121   
    310. D(S  22,C  18,C  17,N   6)    144.1168         0.018121   
    311. D(S  22,C  18,C  17,H  19)    -38.0397         0.018121   
    312. D(C  21,C  20,C  18,C  17)    175.2728         0.029499   
    313. D(C  21,C  20,C  18,S  22)     -1.6521         0.029499   
    314. D(H  24,C  20,C  18,C  17)    -34.2065         0.029499   
    315. D(H  24,C  20,C  18,S  22)    148.8686         0.029499   
    316. D(C  23,C  21,C  20,C  18)      1.2449         0.022730   
    317. D(C  23,C  21,C  20,H  24)   -148.1718         0.022730   
    318. D(H  25,C  21,C  20,C  18)    177.7007         0.022730   
    319. D(H  25,C  21,C  20,H  24)     28.2840         0.022730   
    320. D(C  23,S  22,C  18,C  17)   -175.4808         0.005632   
    321. D(C  23,S  22,C  18,C  20)      1.2797         0.005632   
    322. D(S  22,C  23,C  21,C  20)     -0.3084         0.033906   
    323. D(S  22,C  23,C  21,H  25)   -176.8038         0.033906   
    324. D(H  26,C  23,C  21,C  20)    177.9765         0.033906   
    325. D(H  26,C  23,C  21,H  25)      1.4811         0.033906   
    326. D(C  21,C  23,S  22,C  18)     -0.5419         0.005366   
    327. D(H  26,C  23,S  22,C  18)   -178.9851         0.005366   
    328. D(C  32,O  30,C  20,C  18)     90.7993         0.001503   
    329. D(C  32,O  30,C  20,C  21)   -124.6009         0.001503   
    330. D(C  32,O  31,Ir  0,C   1)   -177.0109         0.001903   
    331. D(C  32,O  31,Ir  0,C   2)    169.6893         0.001903   
    332. D(C  32,O  31,Ir  0,C   3)     99.9098         0.001903   
    333. D(C  32,O  31,Ir  0,C   4)    104.6891         0.001903   
    334. D(C  32,O  31,Ir  0,C   5)    131.7239         0.001903   
    335. D(C  32,O  31,Ir  0,N   6)    -76.0406         0.001903   
    336. D(O  31,C  32,O  30,H  24)     -6.2939         0.080175   
    337. D(C  33,C  32,O  30,H  24)    171.8918         0.080175   
    338. D(O  30,C  32,O  31,Ir  0)      3.3034         0.052318   
    339. D(C  33,C  32,O  31,Ir  0)   -174.9685         0.052318   
    340. D(H  34,C  33,C  32,O  30)     24.7192         0.012737   
    341. D(H  34,C  33,C  32,O  31)   -156.9424         0.012737   
    342. D(H  35,C  33,C  32,O  30)    -93.6427         0.012737   
    343. D(H  35,C  33,C  32,O  31)     84.6958         0.012737   
    344. D(H  36,C  33,C  32,O  30)    147.9703         0.012737   
    345. D(H  36,C  33,C  32,O  31)    -33.6913         0.012737   
    -----------------------------------------------------------------

Number of atoms                         .... 39
Number of degrees of freedom            .... 345

         *************************************************************
         *                GEOMETRY OPTIMIZATION CYCLE   1            *
         *************************************************************
---------------------------------
CARTESIAN COORDINATES (ANGSTROEM)
---------------------------------
  Ir     0.584595   -0.723197    0.474129
  C      0.032761   -2.805061    0.361951
  C      0.083929   -2.355521    1.730593
  C      2.190783   -2.133250    0.822110
  C      1.310648   -2.643083   -0.205217
  C      1.444069   -1.991904    2.006209
  N     -1.047395    0.152800   -0.514863
  C     -2.326011    0.454639    0.150126
  C     -3.128529    1.546874   -0.539494
  H     -3.959721    1.832239    0.103931
  H     -3.566300    1.222239   -1.484727
  H     -2.532825    2.442813   -0.716447
  C     -3.138817   -0.825102    0.305685
  H     -2.045304    0.810991    1.142657
  H     -4.059563   -0.610161    0.846061
  H     -3.411865   -1.241469   -0.664847
  H     -2.602385   -1.585437    0.871325
  C     -0.852182    0.372680   -1.755994
  C      0.492909    0.176243   -2.231652
  H     -1.642815    0.723122   -2.413393
  C      1.588800    0.427440   -1.414142
  C      2.793267    0.055022   -2.075126
  S      0.927080   -0.445540   -3.760540
  C      2.587615   -0.421973   -3.333251
  H      1.536740    1.341771   -0.597783
  H      3.778386    0.190026   -1.652600
  H      3.328229   -0.741286   -4.051035
  H     -0.844853   -3.168880   -0.152867
  H     -0.721041   -2.389369    2.449854
  H      1.810550   -1.597363    2.943077
  O      1.400190    2.405782    0.233524
  O      0.536595    0.936077    1.659185
  C      0.955006    2.107523    1.342744
  C      0.909259    3.125077    2.445866
  H      0.879366    4.132850    2.040687
  H      1.815616    3.035097    3.047965
  H      0.062244    2.962030    3.108530
  H      3.239868   -1.907250    0.702478
  H      1.590469   -2.868295   -1.223970

----------------------------
CARTESIAN COORDINATES (A.U.)
----------------------------
  NO LB      ZA    FRAG     MASS         X           Y           Z
   0 Ir   17.0000*   0   192.220    1.104725   -1.366645    0.895975
   1 C     6.0000    0    12.011    0.061909   -5.300797    0.683988
   2 C     6.0000    0    12.011    0.158604   -4.451289    3.270347
   3 C     6.0000    0    12.011    4.139979   -4.031258    1.553562
   4 C     6.0000    0    12.011    2.476766   -4.994703   -0.387803
   5 C     6.0000    0    12.011    2.728895   -3.764153    3.791185
   6 N     7.0000    0    14.007   -1.979289    0.288750   -0.972950
   7 C     6.0000    0    12.011   -4.395523    0.859143    0.283696
   8 C     6.0000    0    12.011   -5.912064    2.923168   -1.019497
   9 H     1.0000    0     1.008   -7.482788    3.462430    0.196401
  10 H     1.0000    0     1.008   -6.739330    2.309697   -2.805728
  11 H     1.0000    0     1.008   -4.786346    4.616247   -1.353888
  12 C     6.0000    0    12.011   -5.931505   -1.559217    0.577662
  13 H     1.0000    0     1.008   -3.865064    1.532550    2.159309
  14 H     1.0000    0     1.008   -7.671462   -1.153037    1.598823
  15 H     1.0000    0     1.008   -6.447490   -2.346037   -1.256379
  16 H     1.0000    0     1.008   -4.917795   -2.996042    1.646565
  17 C     6.0000    0    12.011   -1.610391    0.704263   -3.318347
  18 C     6.0000    0    12.011    0.931463    0.333051   -4.217211
  19 H     1.0000    0     1.008   -3.104470    1.366503   -4.560651
  20 C     6.0000    0    12.011    3.002397    0.807744   -2.672340
  21 C     6.0000    0    12.011    5.278510    0.103976   -3.921420
  22 S    16.0000    0    32.060    1.751928   -0.841949   -7.106390
  23 C     6.0000    0    12.011    4.889884   -0.797413   -6.298932
  24 H     1.0000    0     1.008    2.904018    2.535579   -1.129647
  25 H     1.0000    0     1.008    7.140115    0.359097   -3.122961
  26 H     1.0000    0     1.008    6.289441   -1.400827   -7.655347
  27 H     1.0000    0     1.008   -1.596540   -5.988315   -0.288877
  28 H     1.0000    0     1.008   -1.362571   -4.515254    4.629554
  29 H     1.0000    0     1.008    3.421443   -3.018578    5.561609
  30 O     8.0000    0    15.999    2.645976    4.546268    0.441296
  31 O     8.0000    0    15.999    1.014017    1.768929    3.135404
  32 C     6.0000    0    12.011    1.804700    3.982641    2.537419
  33 C     6.0000    0    12.011    1.718250    5.905539    4.622017
  34 H     1.0000    0     1.008    1.661761    7.809954    3.856339
  35 H     1.0000    0     1.008    3.431017    5.735503    5.759820
  36 H     1.0000    0     1.008    0.117623    5.597426    5.874271
  37 H     1.0000    0     1.008    6.122464   -3.604181    1.327491
  38 H     1.0000    0     1.008    3.005551   -5.420292   -2.312968
* core charge reduced due to ECP

--------------------------------
INTERNAL COORDINATES (ANGSTROEM)
--------------------------------
 Ir     0   0   0     0.000000000000     0.00000000     0.00000000
 C      1   0   0     2.156825043405     0.00000000     0.00000000
 C      2   1   0     1.441315584296    68.93108906     0.00000000
 C      1   2   3     2.165533901265    64.48927445    81.07582684
 C      2   1   3     1.407011536171    71.19529188   240.84040557
 C      4   1   2     1.406660403906    71.11140654   279.05495300
 N      1   2   3     2.100671218450   100.35700265   243.49100734
 C      7   1   2     1.472467560955   122.93153500    83.00813829
 C      8   7   1     1.520715008486   113.62051108   156.65109577
 H      9   8   7     1.089174825967   108.84512450   190.07349936
 H      9   8   7     1.091096729636   113.00996292    72.01051409
 H      9   8   7     1.090356242388   112.05205566   308.59166332
 C      8   7   1     1.524001683415   109.69923663   282.32281081
 H      8   7   1     1.091282920022   104.73349675    38.68346627
 H     13   8   7     1.089022647700   109.62319904   176.91682470
 H     13   8   7     1.090801395024   111.29783514   296.04418261
 H     13   8   7     1.088948265958   112.12379857    57.91637623
 C      7   1   2     1.278965111194   114.83021296   264.68255520
 C     18   7   1     1.442308940333   116.72410223   350.95931707
 H     18   7   1     1.086289728338   121.92836777   173.36324792
 C     19  18   7     1.389501205189   121.07945202   327.77724424
 C     21  19  18     1.423126991100   110.38103230   175.25952886
 S     19  18   7     1.706545213428   125.79404206   144.32691931
 C     22  21  19     1.361280976591   113.07722110     1.29748186
 H     21  19  18     1.227366703426   119.35295630   326.05946107
 H     22  21  19     1.080351811593   123.89459923   177.75922461
 H     24  22  21     1.079596852534   127.91198480   177.97040988
 H      2   1   3     1.080551209362   123.88767474   119.86986078
 H      3   2   1     1.080002261997   126.58954464   122.32067389
 H      6   4   1     1.080589131647   125.89647068   243.41724563
 O     25  21  19     1.371428578858   175.00774628   333.47035934
 O      1   2   3     2.039288322714   144.09867931   339.62564597
 C     31  25  21     1.234507995910   113.87128956   117.07842191
 C     33  31  25     1.501460281598   120.39885054   171.89154586
 H     34  33  31     1.086586159354   110.81968948    24.63282380
 H     34  33  31     1.091834018129   108.90567639   266.27099241
 H     34  33  31     1.087723190241   111.69912148   147.88390908
 H      4   1   2     1.079782645257   124.50446499   157.81619419
 H      5   2   1     1.080199772760   126.23661804   240.60720315

---------------------------
INTERNAL COORDINATES (A.U.)
---------------------------
 Ir     0   0   0     0.000000000000     0.00000000     0.00000000
 C      1   0   0     4.075808650818     0.00000000     0.00000000
 C      2   1   0     2.723691726872    68.93108906     0.00000000
 C      1   2   3     4.092266007114    64.48927445    81.07582684
 C      2   1   3     2.658866470631    71.19529188   240.84040557
 C      4   1   2     2.658202926814    71.11140654   279.05495300
 N      1   2   3     3.969693300281   100.35700265   243.49100734
 C      7   1   2     2.782560431287   122.93153500    83.00813829
 C      8   7   1     2.873734893783   113.62051108   156.65109577
 H      9   8   7     2.058242133040   108.84512450   190.07349936
 H      9   8   7     2.061874004629   113.00996292    72.01051409
 H      9   8   7     2.060474686526   112.05205566   308.59166332
 C      8   7   1     2.879945809289   109.69923663   282.32281081
 H      8   7   1     2.062225853468   104.73349675    38.68346627
 H     13   8   7     2.057954557791   109.62319904   176.91682470
 H     13   8   7     2.061315903094   111.29783514   296.04418261
 H     13   8   7     2.057813996669   112.12379857    57.91637623
 C      7   1   2     2.416893794997   114.83021296   264.68255520
 C     18   7   1     2.725568897735   116.72410223   350.95931707
 H     18   7   1     2.052790088650   121.92836777   173.36324792
 C     19  18   7     2.625776740561   121.07945202   327.77724424
 C     21  19  18     2.689320266970   110.38103230   175.25952886
 S     19  18   7     3.224903088534   125.79404206   144.32691931
 C     22  21  19     2.572448237073   113.07722110     1.29748186
 H     21  19  18     2.319386935369   119.35295630   326.05946107
 H     22  21  19     2.041569052197   123.89459923   177.75922461
 H     24  22  21     2.040142386332   127.91198480   177.97040988
 H      2   1   3     2.041945859372   123.88767474   119.86986078
 H      3   2   1     2.040908499190   126.58954464   122.32067389
 H      6   4   1     2.042017522105   125.89647068   243.41724563
 O     25  21  19     2.591624426275   175.00774628   333.47035934
 O      1   2   3     3.853696438032   144.09867931   339.62564597
 C     31  25  21     2.332882022407   113.87128956   117.07842191
 C     33  31  25     2.837348733181   120.39885054   171.89154586
 H     34  33  31     2.053350262088   110.81968948    24.63282380
 H     34  33  31     2.063267277963   108.90567639   266.27099241
 H     34  33  31     2.055498939071   111.69912148   147.88390908
 H      4   1   2     2.040493483696   124.50446499   157.81619419
 H      5   2   1     2.041281740441   126.23661804   240.60720315

---------------------
BASIS SET INFORMATION
---------------------
There are 6 groups of distinct atoms

 Group   1 Type Ir  : 7s6p5d1f contracted to 6s3p2d1f pattern {211111/411/41/1}
 Group   2 Type C   : 8s4p1d contracted to 4s2p1d pattern {5111/31/1}
 Group   3 Type N   : 8s4p1d contracted to 4s2p1d pattern {5111/31/1}
 Group   4 Type H   : 4s contracted to 2s pattern {31}
 Group   5 Type S   : 10s7p1d contracted to 4s3p1d pattern {5311/511/1}
 Group   6 Type O   : 8s4p1d contracted to 4s2p1d pattern {5111/31/1}

Atom   0Ir   basis set group =>   1
Atom   1C    basis set group =>   2
Atom   2C    basis set group =>   2
Atom   3C    basis set group =>   2
Atom   4C    basis set group =>   2
Atom   5C    basis set group =>   2
Atom   6N    basis set group =>   3
Atom   7C    basis set group =>   2
Atom   8C    basis set group =>   2
Atom   9H    basis set group =>   4
Atom  10H    basis set group =>   4
Atom  11H    basis set group =>   4
Atom  12C    basis set group =>   2
Atom  13H    basis set group =>   4
Atom  14H    basis set group =>   4
Atom  15H    basis set group =>   4
Atom  16H    basis set group =>   4
Atom  17C    basis set group =>   2
Atom  18C    basis set group =>   2
Atom  19H    basis set group =>   4
Atom  20C    basis set group =>   2
Atom  21C    basis set group =>   2
Atom  22S    basis set group =>   5
Atom  23C    basis set group =>   2
Atom  24H    basis set group =>   4
Atom  25H    basis set group =>   4
Atom  26H    basis set group =>   4
Atom  27H    basis set group =>   4
Atom  28H    basis set group =>   4
Atom  29H    basis set group =>   4
Atom  30O    basis set group =>   6
Atom  31O    basis set group =>   6
Atom  32C    basis set group =>   2
Atom  33C    basis set group =>   2
Atom  34H    basis set group =>   4
Atom  35H    basis set group =>   4
Atom  36H    basis set group =>   4
Atom  37H    basis set group =>   4
Atom  38H    basis set group =>   4
---------------------------------
AUXILIARY/J BASIS SET INFORMATION
---------------------------------
There are 6 groups of distinct atoms

 Group   1 Type Ir  : 11s5p5d3f3g contracted to 8s5p5d2f3g pattern {41111111/11111/11111/21/111}
 Group   2 Type C   : 12s5p4d2f1g contracted to 6s4p3d1f1g pattern {711111/2111/211/2/1}
 Group   3 Type N   : 12s5p4d2f1g contracted to 6s4p3d1f1g pattern {711111/2111/211/2/1}
 Group   4 Type H   : 5s2p1d contracted to 3s1p1d pattern {311/2/1}
 Group   5 Type S   : 14s5p5d2f1g contracted to 8s4p3d1f1g pattern {71111111/2111/311/2/1}
 Group   6 Type O   : 12s5p4d2f1g contracted to 6s4p3d1f1g pattern {711111/2111/211/2/1}

Atom   0Ir   basis set group =>   1
Atom   1C    basis set group =>   2
Atom   2C    basis set group =>   2
Atom   3C    basis set group =>   2
Atom   4C    basis set group =>   2
Atom   5C    basis set group =>   2
Atom   6N    basis set group =>   3
Atom   7C    basis set group =>   2
Atom   8C    basis set group =>   2
Atom   9H    basis set group =>   4
Atom  10H    basis set group =>   4
Atom  11H    basis set group =>   4
Atom  12C    basis set group =>   2
Atom  13H    basis set group =>   4
Atom  14H    basis set group =>   4
Atom  15H    basis set group =>   4
Atom  16H    basis set group =>   4
Atom  17C    basis set group =>   2
Atom  18C    basis set group =>   2
Atom  19H    basis set group =>   4
Atom  20C    basis set group =>   2
Atom  21C    basis set group =>   2
Atom  22S    basis set group =>   5
Atom  23C    basis set group =>   2
Atom  24H    basis set group =>   4
Atom  25H    basis set group =>   4
Atom  26H    basis set group =>   4
Atom  27H    basis set group =>   4
Atom  28H    basis set group =>   4
Atom  29H    basis set group =>   4
Atom  30O    basis set group =>   6
Atom  31O    basis set group =>   6
Atom  32C    basis set group =>   2
Atom  33C    basis set group =>   2
Atom  34H    basis set group =>   4
Atom  35H    basis set group =>   4
Atom  36H    basis set group =>   4
Atom  37H    basis set group =>   4
Atom  38H    basis set group =>   4
-------------------------
ECP PARAMETER INFORMATION
-------------------------

 Group 1, Type Ir ECP Def2-ECP (replacing 60 core electrons, lmax=3)

Atom   0Ir   ECP group =>   1

------------------------------------------------------------------------------
                           ORCA GTO INTEGRAL CALCULATION
                           -- RI-GTO INTEGRALS CHOSEN --
------------------------------------------------------------------------------
------------------------------------------------------------------------------
                   ___                                                        
                  /   \      - P O W E R E D   B Y -                         
                 /     \                                                     
                 |  |  |   _    _      __       _____    __    __             
                 |  |  |  | |  | |    /  \     |  _  \  |  |  /  |          
                  \  \/   | |  | |   /    \    | | | |  |  | /  /          
                 / \  \   | |__| |  /  /\  \   | |_| |  |  |/  /          
                |  |  |   |  __  | /  /__\  \  |    /   |      \           
                |  |  |   | |  | | |   __   |  |    \   |  |\   \          
                \     /   | |  | | |  |  |  |  | |\  \  |  | \   \       
                 \___/    |_|  |_| |__|  |__|  |_| \__\ |__|  \__/        
                                                                              
                      - O R C A' S   B I G   F R I E N D -                    
                                      &                                       
                       - I N T E G R A L  F E E D E R -                       
                                                                              
 v1 FN, 2020, v2 2021                                                         
------------------------------------------------------------------------------


Reading SHARK input file reaction4-IEIP_ts_guess_scan_4-10_orca.SHARKINP.tmp ... ok
----------------------
SHARK INTEGRAL PACKAGE
----------------------

Number of atoms                             ...     39
Number of basis functions                   ...    358
Number of shells                            ...    184
Maximum angular momentum                    ...      3
Integral batch strategy                     ... SHARK/LIBINT Hybrid
RI-J (if used) integral strategy            ... SPLIT-RIJ (Revised 2003 algorithm where possible)
Printlevel                                  ...      1
Contraction scheme used                     ... SEGMENTED contraction
Coulomb Range Separation                    ... NOT USED
Exchange Range Separation                   ... NOT USED
Finite Nucleus Model                        ... NOT USED
Auxiliary Coulomb fitting basis             ... AVAILABLE
   # of basis functions in Aux-J            ...   1231
   # of shells in Aux-J                     ...    405
   Maximum angular momentum in Aux-J        ...      4
Auxiliary J/K fitting basis                 ... NOT available
Auxiliary Correlation fitting basis         ... NOT available
Auxiliary 'external' fitting basis          ... NOT available
Integral threshold                          ...     2.500000e-11
Primitive cut-off                           ...     2.500000e-12
Primitive pair pre-selection threshold      ...     2.500000e-12

Calculating pre-screening integrals         ... done (  0.1 sec) Dimension = 184
Organizing shell pair data                  ... done (  0.1 sec)
Shell pair information
Total number of shell pairs                 ...     17020
Shell pairs after pre-screening             ...     12971
Total number of primitive shell pairs       ...     60705
Primitive shell pairs kept                  ...     29164
          la=0 lb=0:   4972 shell pairs
          la=1 lb=0:   4250 shell pairs
          la=1 lb=1:    856 shell pairs
          la=2 lb=0:   1749 shell pairs
          la=2 lb=1:    788 shell pairs
          la=2 lb=2:    180 shell pairs
          la=3 lb=0:    112 shell pairs
          la=3 lb=1:     42 shell pairs
          la=3 lb=2:     21 shell pairs
          la=3 lb=3:      1 shell pairs

Calculating one electron integrals          ... done (  0.1 sec)
Calculating ECP integrals                   ... done (  0.7 sec)
Calculating RI/J V-Matrix + Cholesky decomp.... done (  0.1 sec)
Calculating Nuclear repulsion               ... done (  0.0 sec) ENN=   2036.642779254163 Eh

SHARK setup successfully completed in   1.3 seconds

Maximum memory used throughout the entire GTOINT-calculation: 90.9 MB
-------------------------------------------------------------------------------
                                 ORCA SCF
-------------------------------------------------------------------------------

------------
SCF SETTINGS
------------
Hamiltonian:
 Density Functional     Method          .... DFT(GTOs)
 Exchange Functional    Exchange        .... PBE
   PBE kappa parameter   XKappa         ....  1.024500
   PBE mue parameter    XMuePBE         ....  0.123457
 Correlation Functional Correlation     .... PBE
   PBE beta parameter  CBetaPBE         ....  0.030000
 LDA part of GGA corr.  LDAOpt          .... PW91-LDA
 Gradients option       PostSCFGGA      .... off
 Hybrid DFT is turned on
   Fraction HF Exchange ScalHFX         ....  0.420000
   Scaling of DF-GGA-X  ScalDFX         ....  0.580000
   Scaling of DF-GGA-C  ScalDFC         ....  1.000000
   Scaling of DF-LDA-C  ScalLDAC        ....  1.000000
   Perturbative correction              ....  0.000000
   Density functional embedding theory  .... OFF
 RI-approximation to the Coulomb term is turned on
   Number of AuxJ basis functions       .... 1231
   RIJ-ON(X) (HFX calculated with O(N)) .... on
   Number of AuxJ basis functions       .... 1231
   RIJ-COSX (HFX calculated with COS-X)).... on


General Settings:
 Integral files         IntName         .... reaction4-IEIP_ts_guess_scan_4-10_orca
 Hartree-Fock type      HFTyp           .... RHF
 Total Charge           Charge          ....    1
 Multiplicity           Mult            ....    1
 Number of Electrons    NEL             ....  164
 Basis Dimension        Dim             ....  358
 Nuclear Repulsion      ENuc            ....   2036.6427792542 Eh

Convergence Acceleration:
 DIIS                   CNVDIIS         .... on
   Start iteration      DIISMaxIt       ....    12
   Startup error        DIISStart       ....  0.200000
   # of expansion vecs  DIISMaxEq       ....     5
   Bias factor          DIISBfac        ....   1.050
   Max. coefficient     DIISMaxC        ....  10.000
 Trust-Rad. Augm. Hess. CNVTRAH         .... auto
   Auto Start mean grad. ratio tolernc. ....  1.125000
   Auto Start start iteration           ....    20
   Auto Start num. interpolation iter.  ....    10
   Max. Number of Micro iterations      ....    16
   Max. Number of Macro iterations      .... Maxiter - #DIIS iter
   Number of Davidson start vectors     ....     2
   Converg. threshold I  (grad. norm)   ....   1.000e-05
   Converg. threshold II (energy diff.) ....   1.000e-08
   Grad. Scal. Fac. for Micro threshold ....   0.100
   Minimum threshold for Micro iter.    ....   0.010
   NR start threshold (gradient norm)   ....   0.001
   Initial trust radius                 ....   0.400
   Minimum AH scaling param. (alpha)    ....   1.000
   Maximum AH scaling param. (alpha)    .... 1000.000
   Orbital update algorithm             .... Taylor
   White noise on init. David. guess    .... on
   Maximum white noise                  ....   0.010
   Quad. conv. algorithm                .... NR
   COSX micro iterations for RIJONX calc.... off
 SOSCF                  CNVSOSCF        .... off
 Level Shifting         CNVShift        .... on
   Level shift para.    LevelShift      ....    0.2500
   Turn off err/grad.   ShiftErr        ....    0.0010
 Zerner damping         CNVZerner       .... off
 Static damping         CNVDamp         .... on
   Fraction old density DampFac         ....    0.7000
   Max. Damping (<1)    DampMax         ....    0.9800
   Min. Damping (>=0)   DampMin         ....    0.0000
   Turn off err/grad.   DampErr         ....    0.1000
 Fernandez-Rico         CNVRico         .... off

SCF Procedure:
 Maximum # iterations   MaxIter         ....   250
 SCF integral mode      SCFMode         .... Direct
   Integral package                     .... SHARK and LIBINT hybrid scheme
 Reset frequency        DirectResetFreq ....    20
 Integral Threshold     Thresh          ....  2.500e-11 Eh
 Primitive CutOff       TCut            ....  2.500e-12 Eh

Convergence Tolerance:
 Convergence Check Mode ConvCheckMode   .... Total+1el-Energy
 Convergence forced     ConvForced      .... 0
 Energy Change          TolE            ....  1.000e-08 Eh
 1-El. energy change                    ....  1.000e-05 Eh
 DIIS Error             TolErr          ....  5.000e-07


Diagonalization of the overlap matrix:
Smallest eigenvalue                        ... 1.183e-03
Time for diagonalization                   ...    0.017 sec
Threshold for overlap eigenvalues          ... 1.000e-08
Number of eigenvalues below threshold      ... 0
Time for construction of square roots      ...    0.005 sec
Total time needed                          ...    0.023 sec

--------------------
INITIAL GUESS: HCORE
--------------------
                      -----------------
                      INTIAL GUESS DONE 
                      -----------------
-------------------
DFT GRID GENERATION
-------------------

General Integration Accuracy     IntAcc      ... 4.159
Radial Grid Type                 RadialGrid  ... OptM3 with GC (2021)
Angular Grid (max. ang.)         AngularGrid ... 3 (Lebedev-194)
Angular grid pruning method      GridPruning ... 4 (adaptive)
Weight generation scheme         WeightScheme... Becke
Basis function cutoff            BFCut       ... 1.0000e-11
Integration weight cutoff        WCut        ... 1.0000e-14
Angular grids for H and He will be reduced by one unit
Partially contracted basis set               ... off
Rotationally invariant grid construction     ... off

Total number of grid points                  ...    93301
Total number of batches                      ...     1478
Average number of points per batch           ...       63
Average number of grid points per atom       ...     2392
Time for grid setup =    1.759 sec

--------------------
COSX GRID GENERATION
--------------------

GRIDX 1
-------
General Integration Accuracy     IntAcc      ... 3.816
Radial Grid Type                 RadialGrid  ... OptM3 with GC (2021)
Angular Grid (max. ang.)         AngularGrid ... 1 (Lebedev-50)
Angular grid pruning method      GridPruning ... 4 (adaptive)
Weight generation scheme         WeightScheme... Becke
Basis function cutoff            BFCut       ... 1.0000e-11
Integration weight cutoff        WCut        ... 1.0000e-14
Angular grids for H and He will be reduced by one unit
Partially contracted basis set               ... on
Rotationally invariant grid construction     ... off

Total number of grid points                  ...    23169
Total number of batches                      ...      382
Average number of points per batch           ...       60
Average number of grid points per atom       ...      594
UseSFitting                                  ... on

GRIDX 2
-------
General Integration Accuracy     IntAcc      ... 4.020
Radial Grid Type                 RadialGrid  ... OptM3 with GC (2021)
Angular Grid (max. ang.)         AngularGrid ... 2 (Lebedev-110)
Angular grid pruning method      GridPruning ... 4 (adaptive)
Weight generation scheme         WeightScheme... Becke
Basis function cutoff            BFCut       ... 1.0000e-11
Integration weight cutoff        WCut        ... 1.0000e-14
Angular grids for H and He will be reduced by one unit
Partially contracted basis set               ... on
Rotationally invariant grid construction     ... off

Total number of grid points                  ...    50307
Total number of batches                      ...      805
Average number of points per batch           ...       62
Average number of grid points per atom       ...     1290
UseSFitting                                  ... on

GRIDX 3
-------
General Integration Accuracy     IntAcc      ... 4.338
Radial Grid Type                 RadialGrid  ... OptM3 with GC (2021)
Angular Grid (max. ang.)         AngularGrid ... 3 (Lebedev-194)
Angular grid pruning method      GridPruning ... 4 (adaptive)
Weight generation scheme         WeightScheme... Becke
Basis function cutoff            BFCut       ... 1.0000e-11
Integration weight cutoff        WCut        ... 1.0000e-14
Angular grids for H and He will be reduced by one unit
Partially contracted basis set               ... on
Rotationally invariant grid construction     ... off

Total number of grid points                  ...   108783
Total number of batches                      ...     1722
Average number of points per batch           ...       63
Average number of grid points per atom       ...     2789
UseSFitting                                  ... on

Time for X-Grid setup             =    4.512 sec

--------------
SCF ITERATIONS
--------------
ITER       Energy         Delta-E        Max-DP      RMS-DP      [F,P]     Damp
               ***  Starting incremental Fock matrix formation  ***
  0   -867.3967100658   0.00000000000019.70728966  0.15094325  3.2000295 0.7000
  1  -1099.4909612288-232.094251162970 8.30868336  0.11589873  1.4881313 0.7000
  2  -1166.8120179707 -67.321056741996 5.41598806  0.06551301  1.0249576 0.7000
  3  -1192.6078354459 -25.795817475157 3.75847654  0.04547874  0.7287466 0.7000
  4  -1209.9742594248 -17.366423978899 2.65566377  0.03579970  0.4461496 0.7000
  5  -1225.4977847417 -15.523525316894 2.18250459  0.03081249  0.3384950 0.7000
  6  -1235.2556638675  -9.757879125820 1.76406509  0.02967075  0.3286477 0.7000
  7  -1242.2672058711  -7.011542003613 1.67391835  0.02649731  0.3281559 0.7000
  8  -1246.3927871032  -4.125581232086 1.61867245  0.02599788  0.3867022 0.7000
  9  -1250.5526091532  -4.159822049992 1.46541794  0.02429780  0.3435287 0.7000
 10  -1254.0359762151  -3.483367061863 1.54517251  0.02598661  0.3652834 0.7000
 11  -1255.5759518072  -1.539975592117 1.49105716  0.02312556  0.3211536 0.7000
                               ***Turning on DIIS***
 12  -1259.0721366394  -3.496184832175 1.47358385  0.02370482  0.3323654 0.7000
 13  -1259.4297669371  -0.357630297764 1.36591812  0.01927247  0.2931309 0.7000
 14  -1268.4143245090  -8.984557571914 0.95261350  0.01365741  0.2191426 0.7000
 15  -1274.7107774764  -6.296452967330 0.66435324  0.00965476  0.1708699 0.7000
 16  -1279.0267685498  -4.315991073472 0.46265798  0.00681040  0.1128046 0.7000
 17  -1281.9403111010  -2.913542551109 1.07082607  0.01597911  0.0719082 0.0000
 18  -1288.4237440243  -6.483432923374 0.03481787  0.00052911  0.0207929 0.0000
 19  -1288.4355895282  -0.011845503900 0.02934474  0.00038597  0.0143170 0.0000
               *** Restarting incremental Fock matrix formation ***
                                   *** Resetting DIIS ***
 20  -1288.4394797306  -0.003890202406 0.03878874  0.00053433  0.0163225 0.0000
 21  -1288.4403812574  -0.000901526800 0.01937091  0.00022052  0.0223296 0.0000
 22  -1288.4428242927  -0.002443035294 0.00303839  0.00007228  0.0028741 0.0000
 23  -1288.4429916856  -0.000167392885 0.00253633  0.00003607  0.0019620 0.0000
 24  -1288.4430280764  -0.000036390750 0.00183412  0.00002979  0.0004277 0.0000
               *** Restarting incremental Fock matrix formation ***
                                   *** Resetting DIIS ***
 25  -1288.4441910891  -0.001163012698 0.00435102  0.00008286  0.0006977 0.0000
 26  -1288.4442070986  -0.000016009585 0.00175224  0.00001622  0.0006601 0.0000
 27  -1288.4442065426   0.000000556038 0.00095169  0.00000937  0.0008287 0.0000
 28  -1288.4442100671  -0.000003524509 0.00025038  0.00000310  0.0001503 0.0000
 29  -1288.4442102472  -0.000000180075 0.00014507  0.00000142  0.0000765 0.0000
 30  -1288.4442102996  -0.000000052423 0.00006542  0.00000060  0.0000230 0.0000
 31  -1288.4442103160  -0.000000016364 0.00002848  0.00000035  0.0000113 0.0000
 32  -1288.4442103172  -0.000000001242 0.00002189  0.00000023  0.0000060 0.0000
 33  -1288.4442103133   0.000000003910 0.00001033  0.00000011  0.0000026 0.0000
 34  -1288.4442103172  -0.000000003882 0.00000399  0.00000005  0.0000016 0.0000
                            ***DIIS convergence achieved***

               *****************************************************
               *                     SUCCESS                       *
               *           SCF CONVERGED AFTER  35 CYCLES          *
               *****************************************************

Old exchange energy                            =    -59.658549401 Eh
New exchange energy                            =    -59.658493100 Eh
Exchange energy change after final integration =      0.000056302 Eh
Total energy after final integration           =  -1288.444154009 Eh
Final COS-X integration done in                =    55.614 sec

----------------
TOTAL SCF ENERGY
----------------

Total Energy       :        -1288.44415401 Eh          -35060.34786 eV

Components:
Nuclear Repulsion  :         2036.64277925 Eh           55419.86752 eV
Electronic Energy  :        -3325.08693326 Eh          -90480.21538 eV
One Electron Energy:        -5828.80232069 Eh         -158609.77471 eV
Two Electron Energy:         2503.71538743 Eh           68129.55933 eV
Max COSX asymmetry :            0.00002116 Eh               0.00058 eV

Virial components:
Potential Energy   :        -2501.57397848 Eh          -68071.28863 eV
Kinetic Energy     :         1213.12982447 Eh           33010.94077 eV
Virial Ratio       :            2.06208266


DFT components:
N(Alpha)           :       82.000489323143 electrons
N(Beta)            :       82.000489323143 electrons
N(Total)           :      164.000978646287 electrons
E(X)               :      -79.594237089604 Eh       
E(C)               :       -7.455637519047 Eh       
E(XC)              :      -87.049874608650 Eh       
DFET-embed. en.    :        0.000000000000 Eh       

---------------
SCF CONVERGENCE
---------------

  Last Energy change         ...    6.4074e-09  Tolerance :   1.0000e-08
  Last MAX-Density change    ...    0.0000e+00  Tolerance :   1.0000e-07
  Last RMS-Density change    ...    0.0000e+00  Tolerance :   5.0000e-09
  Last DIIS Error            ...    5.3622e-07  Tolerance :   5.0000e-07

             **** THE GBW FILE WAS UPDATED (reaction4-IEIP_ts_guess_scan_4-10_orca.gbw) ****
             **** DENSITY reaction4-IEIP_ts_guess_scan_4-10_orca.scfp WAS UPDATED ****
             **** ENERGY FILE WAS UPDATED (reaction4-IEIP_ts_guess_scan_4-10_orca.en.tmp) ****
             **** THE GBW FILE WAS UPDATED (reaction4-IEIP_ts_guess_scan_4-10_orca.gbw) ****
             **** DENSITY reaction4-IEIP_ts_guess_scan_4-10_orca.scfp WAS UPDATED ****
----------------
ORBITAL ENERGIES
----------------

  NO   OCC          E(Eh)            E(eV) 
   0   2.0000     -89.759779     -2442.4878 
   1   2.0000     -19.626983      -534.0774 
   2   2.0000     -19.597062      -533.2632 
   3   2.0000     -14.838438      -403.7744 
   4   2.0000     -10.686197      -290.7862 
   5   2.0000     -10.659356      -290.0558 
   6   2.0000     -10.635739      -289.4132 
   7   2.0000     -10.632802      -289.3333 
   8   2.0000     -10.630294      -289.2650 
   9   2.0000     -10.629868      -289.2534 
  10   2.0000     -10.629400      -289.2407 
  11   2.0000     -10.627798      -289.1971 
  12   2.0000     -10.615436      -288.8607 
  13   2.0000     -10.608000      -288.6584 
  14   2.0000     -10.582432      -287.9626 
  15   2.0000     -10.579600      -287.8855 
  16   2.0000     -10.556421      -287.2548 
  17   2.0000     -10.551690      -287.1261 
  18   2.0000     -10.536450      -286.7114 
  19   2.0000      -8.399172      -228.5531 
  20   2.0000      -6.289183      -171.1374 
  21   2.0000      -6.285573      -171.0391 
  22   2.0000      -6.283982      -170.9958 
  23   2.0000      -4.028517      -109.6215 
  24   2.0000      -2.347545       -63.8799 
  25   2.0000      -2.313648       -62.9576 
  26   2.0000      -2.311746       -62.9058 
  27   2.0000      -1.314287       -35.7636 
  28   2.0000      -1.216457       -33.1015 
  29   2.0000      -1.211616       -32.9697 
  30   2.0000      -1.171787       -31.8860 
  31   2.0000      -1.124108       -30.5885 
  32   2.0000      -1.025972       -27.9181 
  33   2.0000      -0.986518       -26.8445 
  34   2.0000      -0.976827       -26.5808 
  35   2.0000      -0.963805       -26.2265 
  36   2.0000      -0.957826       -26.0638 
  37   2.0000      -0.931446       -25.3459 
  38   2.0000      -0.902617       -24.5614 
  39   2.0000      -0.872313       -23.7368 
  40   2.0000      -0.797482       -21.7006 
  41   2.0000      -0.787799       -21.4371 
  42   2.0000      -0.786431       -21.3999 
  43   2.0000      -0.779855       -21.2209 
  44   2.0000      -0.771316       -20.9886 
  45   2.0000      -0.760428       -20.6923 
  46   2.0000      -0.743572       -20.2336 
  47   2.0000      -0.723697       -19.6928 
  48   2.0000      -0.693376       -18.8677 
  49   2.0000      -0.677111       -18.4251 
  50   2.0000      -0.664620       -18.0852 
  51   2.0000      -0.652421       -17.7533 
  52   2.0000      -0.649322       -17.6690 
  53   2.0000      -0.639618       -17.4049 
  54   2.0000      -0.638529       -17.3753 
  55   2.0000      -0.633230       -17.2311 
  56   2.0000      -0.622947       -16.9512 
  57   2.0000      -0.610705       -16.6181 
  58   2.0000      -0.607554       -16.5324 
  59   2.0000      -0.606524       -16.5043 
  60   2.0000      -0.596618       -16.2348 
  61   2.0000      -0.588025       -16.0010 
  62   2.0000      -0.576723       -15.6934 
  63   2.0000      -0.569310       -15.4917 
  64   2.0000      -0.562950       -15.3186 
  65   2.0000      -0.557993       -15.1838 
  66   2.0000      -0.552664       -15.0388 
  67   2.0000      -0.548666       -14.9300 
  68   2.0000      -0.540197       -14.6995 
  69   2.0000      -0.535296       -14.5661 
  70   2.0000      -0.528031       -14.3684 
  71   2.0000      -0.520119       -14.1532 
  72   2.0000      -0.515737       -14.0339 
  73   2.0000      -0.505983       -13.7685 
  74   2.0000      -0.492223       -13.3941 
  75   2.0000      -0.480859       -13.0848 
  76   2.0000      -0.466655       -12.6983 
  77   2.0000      -0.449920       -12.2429 
  78   2.0000      -0.443367       -12.0646 
  79   2.0000      -0.421388       -11.4666 
  80   2.0000      -0.416803       -11.3418 
  81   2.0000      -0.401706       -10.9310 
  82   0.0000      -0.199536        -5.4297 
  83   0.0000      -0.159950        -4.3525 
  84   0.0000      -0.140761        -3.8303 
  85   0.0000      -0.094911        -2.5827 
  86   0.0000      -0.074997        -2.0408 
  87   0.0000      -0.066919        -1.8210 
  88   0.0000      -0.057816        -1.5733 
  89   0.0000      -0.055912        -1.5214 
  90   0.0000      -0.044219        -1.2033 
  91   0.0000      -0.034143        -0.9291 
  92   0.0000      -0.004284        -0.1166 
  93   0.0000      -0.003049        -0.0830 
  94   0.0000       0.012440         0.3385 
  95   0.0000       0.021687         0.5901 
  96   0.0000       0.026201         0.7130 
  97   0.0000       0.036417         0.9910 
  98   0.0000       0.045278         1.2321 
  99   0.0000       0.058788         1.5997 
 100   0.0000       0.069420         1.8890 
 101   0.0000       0.072049         1.9605 
 102   0.0000       0.073715         2.0059 
 103   0.0000       0.079539         2.1644 
 104   0.0000       0.083447         2.2707 
 105   0.0000       0.090535         2.4636 
 106   0.0000       0.094374         2.5681 
 107   0.0000       0.101313         2.7569 
 108   0.0000       0.107164         2.9161 
 109   0.0000       0.112703         3.0668 
 110   0.0000       0.115159         3.1336 
 111   0.0000       0.120892         3.2896 
 112   0.0000       0.123048         3.3483 
 113   0.0000       0.125979         3.4281 
 114   0.0000       0.130114         3.5406 
 115   0.0000       0.136207         3.7064 
 116   0.0000       0.142838         3.8868 
 117   0.0000       0.154405         4.2016 
 118   0.0000       0.158111         4.3024 
 119   0.0000       0.158506         4.3132 
 120   0.0000       0.167991         4.5713 
 121   0.0000       0.181571         4.9408 
 122   0.0000       0.191771         5.2184 
 123   0.0000       0.200084         5.4446 
 124   0.0000       0.227065         6.1787 
 125   0.0000       0.234009         6.3677 
 126   0.0000       0.257642         7.0108 
 127   0.0000       0.265585         7.2269 
 128   0.0000       0.279366         7.6019 
 129   0.0000       0.292484         7.9589 
 130   0.0000       0.303591         8.2611 
 131   0.0000       0.311661         8.4807 
 132   0.0000       0.322370         8.7721 
 133   0.0000       0.338197         9.2028 
 134   0.0000       0.341682         9.2977 
 135   0.0000       0.355116         9.6632 
 136   0.0000       0.359477         9.7819 
 137   0.0000       0.372978        10.1492 
 138   0.0000       0.381695        10.3864 
 139   0.0000       0.398075        10.8322 
 140   0.0000       0.403537        10.9808 
 141   0.0000       0.419683        11.4201 
 142   0.0000       0.423770        11.5314 
 143   0.0000       0.437495        11.9048 
 144   0.0000       0.443308        12.0630 
 145   0.0000       0.450385        12.2556 
 146   0.0000       0.457630        12.4527 
 147   0.0000       0.461037        12.5454 
 148   0.0000       0.467433        12.7195 
 149   0.0000       0.481397        13.0995 
 150   0.0000       0.485158        13.2018 
 151   0.0000       0.489695        13.3253 
 152   0.0000       0.491912        13.3856 
 153   0.0000       0.499055        13.5800 
 154   0.0000       0.508237        13.8298 
 155   0.0000       0.516635        14.0584 
 156   0.0000       0.528661        14.3856 
[...]

----------------------
LOEWDIN ATOMIC CHARGES
----------------------
   0 Ir:   -0.226252
   1 C :   -0.044580
   2 C :   -0.070260
   3 C :   -0.062677
   4 C :   -0.049134
   5 C :   -0.020240
   6 N :   -0.010867
   7 C :   -0.069278
   8 C :   -0.363209
   9 H :    0.156507
  10 H :    0.133185
  11 H :    0.145942
  12 C :   -0.343765
  13 H :    0.155368
  14 H :    0.152253
  15 H :    0.137386
  16 H :    0.132613
  17 C :    0.034790
  18 C :   -0.192529
  19 H :    0.160863
  20 C :   -0.205273
  21 C :   -0.139308
  22 S :    0.471871
  23 C :   -0.261075
  24 H :    0.313317
  25 H :    0.160718
  26 H :    0.167575
  27 H :    0.184680
  28 H :    0.184620
  29 H :    0.192600
  30 O :   -0.273301
  31 O :   -0.198330
  32 C :    0.161623
  33 C :   -0.374120
  34 H :    0.161315
  35 H :    0.169158
  36 H :    0.154539
  37 H :    0.186353
  38 H :    0.186922

-------------------------------
LOEWDIN REDUCED ORBITAL CHARGES
-------------------------------
  0 Irs       :     2.452461  s :     2.452461
      pz      :     2.241847  p :     6.751095
      px      :     2.241179
      py      :     2.268070
      dz2     :     1.827420  d :     7.934039
      dxz     :     1.712843
      dyz     :     1.303111
      dx2y2   :     1.637077
      dxy     :     1.453588
      f0      :     0.011068  f :     0.088657
      f+1     :     0.003484
      f-1     :     0.013386
      f+2     :     0.016556
      f-2     :     0.016411
      f+3     :     0.011267
      f-3     :     0.016485
  1 C s       :     2.874920  s :     2.874920
      pz      :     1.049570  p :     3.065474
      px      :     1.084696
      py      :     0.931208
      dz2     :     0.026209  d :     0.104186
      dxz     :     0.026648
      dyz     :     0.017153
      dx2y2   :     0.018735
      dxy     :     0.015441
  2 C s       :     2.874191  s :     2.874191
      pz      :     1.042625  p :     3.094261
      px      :     1.079685
      py      :     0.971951
      dz2     :     0.025112  d :     0.101808
      dxz     :     0.028012
      dyz     :     0.017450
      dx2y2   :     0.018159
      dxy     :     0.013075
  3 C s       :     2.874078  s :     2.874078
      pz      :     1.032228  p :     3.087448
      px      :     1.080706
      py      :     0.974514
      dz2     :     0.023534  d :     0.101152
      dxz     :     0.032035
      dyz     :     0.015763
      dx2y2   :     0.015525
      dxy     :     0.014295
  4 C s       :     2.874732  s :     2.874732
      pz      :     1.089652  p :     3.071717
      px      :     1.037899
      py      :     0.944166
      dz2     :     0.022563  d :     0.102685
      dxz     :     0.031078
      dyz     :     0.012972
      dx2y2   :     0.018187
      dxy     :     0.017886
  5 C s       :     2.877947  s :     2.877947
      pz      :     1.060137  p :     3.037588
      px      :     1.034520
      py      :     0.942931
      dz2     :     0.024147  d :     0.104705
      dxz     :     0.030746
      dyz     :     0.015736
      dx2y2   :     0.015684
      dxy     :     0.018392
  6 N s       :     3.122442  s :     3.122442
      pz      :     1.264532  p :     3.790633
      px      :     1.291823
      py      :     1.234278
      dz2     :     0.030282  d :     0.097791
      dxz     :     0.027566
      dyz     :     0.018520
      dx2y2   :     0.011558
      dxy     :     0.009865
  7 C s       :     2.862566  s :     2.862566
      pz      :     1.062090  p :     3.072501
      px      :     0.935527
      py      :     1.074883
      dz2     :     0.026008  d :     0.134212
      dxz     :     0.028041
      dyz     :     0.017040
      dx2y2   :     0.029929
      dxy     :     0.033193
  8 C s       :     2.953369  s :     2.953369
      pz      :     1.132830  p :     3.342375
      px      :     1.124843
      py      :     1.084702
      dz2     :     0.013221  d :     0.067464
      dxz     :     0.017438
      dyz     :     0.008605
      dx2y2   :     0.009453
      dxy     :     0.018747
  9 H s       :     0.843493  s :     0.843493
 10 H s       :     0.866815  s :     0.866815
 11 H s       :     0.854058  s :     0.854058
 12 C s       :     2.953158  s :     2.953158
      pz      :     1.142253  p :     3.322628
      px      :     1.110204
      py      :     1.070170
      dz2     :     0.011958  d :     0.067978
      dxz     :     0.013331
      dyz     :     0.013154
      dx2y2   :     0.011664
      dxy     :     0.017870
 13 H s       :     0.844632  s :     0.844632
 14 H s       :     0.847747  s :     0.847747
 15 H s       :     0.862614  s :     0.862614
 16 H s       :     0.867387  s :     0.867387
 17 C s       :     2.877879  s :     2.877879
      pz      :     1.018751  p :     2.946696
      px      :     1.066863
      py      :     0.861081
      dz2     :     0.040083  d :     0.140636
      dxz     :     0.051140
      dyz     :     0.025039
      dx2y2   :     0.011681
      dxy     :     0.012693
 18 C s       :     2.894641  s :     2.894641
      pz      :     1.044597  p :     3.185811
      px      :     1.090255
      py      :     1.050959
      dz2     :     0.032607  d :     0.112077
      dxz     :     0.031387
      dyz     :     0.016904
      dx2y2   :     0.018877
      dxy     :     0.012303
 19 H s       :     0.839137  s :     0.839137
 20 C s       :     2.921277  s :     2.921277
      pz      :     1.121933  p :     3.195009
      px      :     1.050564
      py      :     1.022512
      dz2     :     0.011016  d :     0.088987
      dxz     :     0.034767
      dyz     :     0.009091
      dx2y2   :     0.016797
      dxy     :     0.017316
 21 C s       :     2.898282  s :     2.898282
      pz      :     1.072837  p :     3.146526
      px      :     1.090135
      py      :     0.983554
      dz2     :     0.026734  d :     0.094500
      dxz     :     0.030052
      dyz     :     0.014139
      dx2y2   :     0.015227
      dxy     :     0.008348
 22 S s       :     5.503730  s :     5.503730
      pz      :     3.267602  p :     9.871171
      px      :     3.087611
      py      :     3.515957
      dz2     :     0.044732  d :     0.153228
      dxz     :     0.031676
      dyz     :     0.021028
      dx2y2   :     0.031425
      dxy     :     0.024367
 23 C s       :     2.965318  s :     2.965318
      pz      :     1.119568  p :     3.209867
      px      :     1.022702
      py      :     1.067597
      dz2     :     0.022497  d :     0.085890
      dxz     :     0.028486
      dyz     :     0.012063
      dx2y2   :     0.012845
      dxy     :     0.009999
 24 H s       :     0.686683  s :     0.686683
 25 H s       :     0.839282  s :     0.839282
 26 H s       :     0.832425  s :     0.832425
 27 H s       :     0.815320  s :     0.815320
 28 H s       :     0.815380  s :     0.815380
 29 H s       :     0.807400  s :     0.807400
 30 O s       :     3.506628  s :     3.506628
      pz      :     1.453162  p :     4.711770
      px      :     1.546444
      py      :     1.712165
      dz2     :     0.017195  d :     0.054902
      dxz     :     0.013497
      dyz     :     0.016058
      dx2y2   :     0.004752
      dxy     :     0.003400
 31 O s       :     3.443968  s :     3.443968
      pz      :     1.694951  p :     4.694804
      px      :     1.616061
      py      :     1.383792
      dz2     :     0.009233  d :     0.059557
      dxz     :     0.003880
      dyz     :     0.016258
      dx2y2   :     0.015184
      dxy     :     0.015003
 32 C s       :     2.812893  s :     2.812893
      pz      :     0.990129  p :     2.704274
      px      :     0.758597
      py      :     0.955548
      dz2     :     0.074483  d :     0.321210
      dxz     :     0.047109
      dyz     :     0.104843
      dx2y2   :     0.046052
      dxy     :     0.048723
 33 C s       :     2.959045  s :     2.959045
      pz      :     1.099290  p :     3.352402
      px      :     1.150881
      py      :     1.102231
      dz2     :     0.004842  d :     0.062672
      dxz     :     0.017236
      dyz     :     0.020105
      dx2y2   :     0.018346
      dxy     :     0.002143
 34 H s       :     0.838685  s :     0.838685
 35 H s       :     0.830842  s :     0.830842
 36 H s       :     0.845461  s :     0.845461
 37 H s       :     0.813647  s :     0.813647
 38 H s       :     0.813078  s :     0.813078


                      *****************************
                      * MAYER POPULATION ANALYSIS *
                      *****************************

  NA   - Mulliken gross atomic population
  ZA   - Total nuclear charge
  QA   - Mulliken gross atomic charge
  VA   - Mayer's total valence
  BVA  - Mayer's bonded valence
  FA   - Mayer's free valence

  ATOM       NA         ZA         QA         VA         BVA        FA
  0 Ir    16.3865    17.0000     0.6135     3.7482     3.7482    -0.0000
  1 C      6.2159     6.0000    -0.2159     3.7028     3.7028    -0.0000
  2 C      6.2883     6.0000    -0.2883     3.7405     3.7405    -0.0000
  3 C      6.2417     6.0000    -0.2417     3.7349     3.7349     0.0000
  4 C      6.2396     6.0000    -0.2396     3.7230     3.7230    -0.0000
  5 C      6.1647     6.0000    -0.1647     3.6929     3.6929    -0.0000
  6 N      7.4346     7.0000    -0.4346     3.2155     3.2155     0.0000
  7 C      6.1253     6.0000    -0.1253     3.7026     3.7026     0.0000
  8 C      6.6863     6.0000    -0.6863     3.6871     3.6871     0.0000
  9 H      0.7298     1.0000     0.2702     0.8971     0.8971     0.0000
 10 H      0.7749     1.0000     0.2251     0.9103     0.9103    -0.0000
 11 H      0.7412     1.0000     0.2588     0.8984     0.8984     0.0000
 12 C      6.6355     6.0000    -0.6355     3.6733     3.6733     0.0000
 13 H      0.7197     1.0000     0.2803     0.8747     0.8747    -0.0000
 14 H      0.7375     1.0000     0.2625     0.8974     0.8974    -0.0000
 15 H      0.7686     1.0000     0.2314     0.9096     0.9096    -0.0000
 16 H      0.7694     1.0000     0.2306     0.9064     0.9064     0.0000
 17 C      5.9299     6.0000     0.0701     3.6473     3.6473    -0.0000
 18 C      6.1780     6.0000    -0.1780     3.7135     3.7135     0.0000
 19 H      0.7125     1.0000     0.2875     0.8872     0.8872    -0.0000
 20 C      6.4529     6.0000    -0.4529     3.4742     3.4742    -0.0000
 21 C      6.1382     6.0000    -0.1382     3.7639     3.7639    -0.0000
 22 S     15.6874    16.0000     0.3126     2.5757     2.5757     0.0000
 23 C      6.4277     6.0000    -0.4277     3.7494     3.7494    -0.0000
 24 H      0.5041     1.0000     0.4959     0.7302     0.7302     0.0000
 25 H      0.7366     1.0000     0.2634     0.9044     0.9044    -0.0000
 26 H      0.7038     1.0000     0.2962     0.8978     0.8978    -0.0000
 27 H      0.7095     1.0000     0.2905     0.9026     0.9026    -0.0000
 28 H      0.7095     1.0000     0.2905     0.9059     0.9059    -0.0000
 29 H      0.6950     1.0000     0.3050     0.8923     0.8923    -0.0000
 30 O      8.4883     8.0000    -0.4883     2.1121     2.1121    -0.0000
 31 O      8.5312     8.0000    -0.5312     2.0867     2.0867    -0.0000
 32 C      5.3752     6.0000     0.6248     3.9047     3.9047    -0.0000
 33 C      6.7453     6.0000    -0.7453     3.6650     3.6650    -0.0000
 34 H      0.7288     1.0000     0.2712     0.8945     0.8945    -0.0000
 35 H      0.7305     1.0000     0.2695     0.8939     0.8939     0.0000
 36 H      0.7439     1.0000     0.2561     0.8998     0.8998     0.0000
 37 H      0.7081     1.0000     0.2919     0.9024     0.9024     0.0000
 38 H      0.7042     1.0000     0.2958     0.9016     0.9016     0.0000

  Mayer bond orders larger than 0.100000
B(  0-Ir,  1-C ) :   0.4221 B(  0-Ir,  2-C ) :   0.5216 B(  0-Ir,  3-C ) :   0.4602 
B(  0-Ir,  4-C ) :   0.4514 B(  0-Ir,  5-C ) :   0.4022 B(  0-Ir,  6-N ) :   0.4679 
B(  0-Ir, 20-C ) :   0.2899 B(  0-Ir, 31-O ) :   0.5607 B(  1-C ,  2-C ) :   1.1189 
B(  1-C ,  4-C ) :   1.2416 B(  1-C , 27-H ) :   0.9041 B(  2-C ,  5-C ) :   1.1410 
B(  2-C , 28-H ) :   0.9081 B(  3-C ,  4-C ) :   1.1097 B(  3-C ,  5-C ) :   1.2270 
B(  3-C , 37-H ) :   0.9064 B(  4-C , 38-H ) :   0.9002 B(  5-C , 29-H ) :   0.8982 
B(  6-N ,  7-C ) :   0.8919 B(  6-N , 17-C ) :   1.6722 B(  7-C ,  8-C ) :   0.9914 
B(  7-C , 12-C ) :   0.9683 B(  7-C , 13-H ) :   0.8752 B(  8-C ,  9-H ) :   0.9042 
B(  8-C , 10-H ) :   0.9130 B(  8-C , 11-H ) :   0.9096 B( 12-C , 14-H ) :   0.9069 
B( 12-C , 15-H ) :   0.9156 B( 12-C , 16-H ) :   0.9126 B( 17-C , 18-C ) :   1.0803 
B( 17-C , 19-H ) :   0.8753 B( 18-C , 20-C ) :   1.2878 B( 18-C , 22-S ) :   1.2219 
B( 20-C , 21-C ) :   1.2819 B( 20-C , 24-H ) :   0.4226 B( 21-C , 23-C ) :   1.5415 
B( 21-C , 25-H ) :   0.9054 B( 22-S , 23-C ) :   1.2118 B( 23-C , 26-H ) :   0.8921 
B( 24-H , 30-O ) :   0.2732 B( 30-O , 32-C ) :   1.6397 B( 31-O , 32-C ) :   1.3125 
B( 32-C , 33-C ) :   0.9479 B( 33-C , 34-H ) :   0.9034 B( 33-C , 35-H ) :   0.8966 
B( 33-C , 36-H ) :   0.9087 


------------------
HIRSHFELD ANALYSIS
------------------

Total integrated alpha density =     82.000141861
Total integrated beta density  =     82.000141861

  ATOM     CHARGE      SPIN    
   0 Ir   0.197064    0.000000
   1 C    0.005069    0.000000
   2 C   -0.003305    0.000000
   3 C   -0.002729    0.000000
   4 C   -0.000033    0.000000
   5 C    0.019828    0.000000
   6 N   -0.070830    0.000000
   7 C    0.052960    0.000000
   8 C   -0.071281    0.000000
   9 H    0.053384    0.000000
  10 H    0.037703    0.000000
  11 H    0.042933    0.000000
  12 C   -0.070993    0.000000
  13 H    0.045381    0.000000
  14 H    0.050986    0.000000
  15 H    0.036808    0.000000
  16 H    0.030175    0.000000
  17 C    0.099061    0.000000
  18 C   -0.011232    0.000000
  19 H    0.076820    0.000000
  20 C   -0.076853    0.000000
  21 C   -0.033879    0.000000
  22 S    0.123847    0.000000
  23 C   -0.026508    0.000000
  24 H    0.071429    0.000000
  25 H    0.068083    0.000000
  26 H    0.077484    0.000000
  27 H    0.083514    0.000000
  28 H    0.083873    0.000000
  29 H    0.094119    0.000000
  30 O   -0.243579    0.000000
  31 O   -0.253275    0.000000
  32 C    0.247210    0.000000
  33 C   -0.065725    0.000000
  34 H    0.055780    0.000000
  35 H    0.061109    0.000000
  36 H    0.049587    0.000000
  37 H    0.085393    0.000000
  38 H    0.080339    0.000000

  TOTAL   0.999716    0.000000

-------
TIMINGS
-------

Total SCF time: 0 days 0 hours 4 min 50 sec 

Total time                  ....     290.614 sec
Sum of individual times     ....     290.105 sec  ( 99.8%)

Fock matrix formation       ....     281.985 sec  ( 97.0%)
  Split-RI-J                ....      22.461 sec  (  8.0% of F)
  Chain of spheres X        ....     243.879 sec  ( 86.5% of F)
  XC integration            ....      15.622 sec  (  5.5% of F)
    Basis function eval.    ....       7.284 sec  ( 46.6% of XC)
    Density eval.           ....       4.111 sec  ( 26.3% of XC)
    XC-Functional eval.     ....       1.157 sec  (  7.4% of XC)
    XC-Potential eval.      ....       2.486 sec  ( 15.9% of XC)
Diagonalization             ....       0.242 sec  (  0.1%)
Density matrix formation    ....       0.038 sec  (  0.0%)
Population analysis         ....       1.437 sec  (  0.5%)
Initial guess               ....       0.030 sec  (  0.0%)
Orbital Transformation      ....       0.000 sec  (  0.0%)
Orbital Orthonormalization  ....       0.023 sec  (  0.0%)
DIIS solution               ....       0.094 sec  (  0.0%)
Grid generation             ....       6.280 sec  (  2.2%)

Maximum memory used throughout the entire SCF-calculation: 173.0 MB


-------------------------------------------------------------------------------
                          DFT DISPERSION CORRECTION                            
                                                                               
                              DFTD3 V3.1  Rev 1                                
                          USING Becke-Johnson damping                          
-------------------------------------------------------------------------------
The PBEh-3c composite method is recognized
Using three-body term ABC
Active option DFTDOPT                   ...         4   

molecular C6(AA) [au] = 19555.875008 


            DFT-D V3
 parameters
 s6 scaling factor         :     1.0000 
 a1 scaling factor         :     0.4860 
 s8 scaling factor         :     0.0000 
 a2 scaling factor         :     4.5000 
 Damping factor alpha9(ATM):    16.0000 
 ad hoc parameters k1-k3   :    16.0000     1.3333    -4.0000 

 Edisp/kcal,au: -19.214431317053  -0.030620142104 
 E6   /kcal   : -19.557472347 
 E8   /kcal   :  -0.000000000 
 E6(ABC)      :   0.343041030 
 % E8         :   0.000000000 
 % E6(ABC)    :  -1.785330123 

-------------------------   ----------------
Dispersion correction           -0.030620142
-------------------------   ----------------

 ** NOTE ** -> element ir will be treated as co
NOTIFICATION: Different basis set in ORCA and otool_gcp:
ORCA: 358  gCP: 357 
If you are NOT using ECPs, check your basis set inputs!
------------------   -----------------
gCP correction             0.078154520
------------------   -----------------

-------------------------   --------------------
FINAL SINGLE POINT ENERGY     -1288.397174370385
-------------------------   --------------------

                                *** OPTIMIZATION RUN DONE ***

                            ***************************************
                            *     ORCA property calculations      *
                            ***************************************

                                    ---------------------
                                    Active property flags
                                    ---------------------
   (+) Dipole Moment


------------------------------------------------------------------------------
                       ORCA ELECTRIC PROPERTIES CALCULATION
------------------------------------------------------------------------------

Dipole Moment Calculation                       ... on
Quadrupole Moment Calculation                   ... off
Polarizability Calculation                      ... off
GBWName                                         ... reaction4-IEIP_ts_guess_scan_4-10_orca.gbw
Electron density                                ... reaction4-IEIP_ts_guess_scan_4-10_orca.scfp
The origin for moment calculation is the CENTER OF MASS  = ( 0.850413, -0.613008 -0.119175)

-------------
DIPOLE MOMENT
-------------
                                X             Y             Z
Electronic contribution:     35.80970     -70.28131      77.40231
Nuclear contribution   :    -36.43353      69.26821     -77.56568
                        -----------------------------------------
Total Dipole Moment    :     -0.62383      -1.01310      -0.16337
                        -----------------------------------------
Magnitude (a.u.)       :      1.20093
Magnitude (Debye)      :      3.05252



--------------------
Rotational spectrum 
--------------------
 
Rotational constants in cm-1:     0.010564     0.008904     0.008138 
Rotational constants in MHz :   316.705341   266.946171   243.983029 

 Dipole components along the rotational axes: 
x,y,z [a.u.] :     0.011595     0.375356    -1.140703 
x,y,z [Debye]:     0.029472     0.954079    -2.899437 

 

Timings for individual modules:

Sum of individual times         ...     5732.817 sec (=  95.547 min)
GTO integral calculation        ...       18.948 sec (=   0.316 min)   0.3 %
SCF iterations                  ...     4533.983 sec (=  75.566 min)  79.1 %
SCF Gradient evaluation         ...     1177.174 sec (=  19.620 min)  20.5 %
Geometry relaxation             ...        2.711 sec (=   0.045 min)   0.0 %
                             ****ORCA TERMINATED NORMALLY****
TOTAL RUN TIME: 0 days 1 hours 35 minutes 36 seconds 853 msec
