
                                 *****************
                                 * O   R   C   A *
                                 *****************

                                            #,                                       
                                            ###                                      
                                            ####                                     
                                            #####                                    
                                            ######                                   
                                           ########,                                 
                                     ,,################,,,,,                         
                               ,,#################################,,                 
                          ,,##########################################,,             
                       ,#########################################, ''#####,          
                    ,#############################################,,   '####,        
                  ,##################################################,,,,####,       
                ,###########''''           ''''###############################       
              ,#####''   ,,,,##########,,,,          '''####'''          '####       
            ,##' ,,,,###########################,,,                        '##       
           ' ,,###''''                  '''############,,,                           
         ,,##''                                '''############,,,,        ,,,,,,###''
      ,#''                                            '''#######################'''  
     '                                                          ''''####''''         
             ,#######,   #######,   ,#######,      ##                                
            ,#'     '#,  ##    ##  ,#'     '#,    #''#        ######   ,####,        
            ##       ##  ##   ,#'  ##            #'  '#       #        #'  '#        
            ##       ##  #######   ##           ,######,      #####,   #    #        
            '#,     ,#'  ##    ##  '#,     ,#' ,#      #,         ##   #,  ,#        
             '#######'   ##     ##  '#######'  #'      '#     #####' # '####'        



                  #######################################################
                  #                        -***-                        #
                  #          Department of theory and spectroscopy      #
                  #    Directorship and core code : Frank Neese         #
                  #        Max Planck Institute fuer Kohlenforschung    #
                  #                Kaiser Wilhelm Platz 1               #
                  #                 D-45470 Muelheim/Ruhr               #
                  #                      Germany                        #
                  #                                                     #
                  #                  All rights reserved                #
                  #                        -***-                        #
                  #######################################################


                         Program Version 5.0.3 -  RELEASE  -


 With contributions from (in alphabetic order):
   Daniel Aravena         : Magnetic Suceptibility
   Michael Atanasov       : Ab Initio Ligand Field Theory (pilot matlab implementation)
   Alexander A. Auer      : GIAO ZORA, VPT2 properties, NMR spectrum
   Ute Becker             : Parallelization
   Giovanni Bistoni       : ED, misc. LED, open-shell LED, HFLD
   Martin Brehm           : Molecular dynamics
   Dmytro Bykov           : SCF Hessian
   Vijay G. Chilkuri      : MRCI spin determinant printing, contributions to CSF-ICE
   Dipayan Datta          : RHF DLPNO-CCSD density
   Achintya Kumar Dutta   : EOM-CC, STEOM-CC
   Dmitry Ganyushin       : Spin-Orbit,Spin-Spin,Magnetic field MRCI
   Miquel Garcia          : C-PCM and meta-GGA Hessian, CC/C-PCM, Gaussian charge scheme
   Yang Guo               : DLPNO-NEVPT2, F12-NEVPT2, CIM, IAO-localization
   Andreas Hansen         : Spin unrestricted coupled pair/coupled cluster methods
   Benjamin Helmich-Paris : MC-RPA, TRAH-SCF, COSX integrals
   Lee Huntington         : MR-EOM, pCC
   Robert Izsak           : Overlap fitted RIJCOSX, COSX-SCS-MP3, EOM
   Marcus Kettner         : VPT2
   Christian Kollmar      : KDIIS, OOCD, Brueckner-CCSD(T), CCSD density, CASPT2, CASPT2-K
   Simone Kossmann        : Meta GGA functionals, TD-DFT gradient, OOMP2, MP2 Hessian
   Martin Krupicka        : Initial AUTO-CI
   Lucas Lang             : DCDCAS
   Marvin Lechner         : AUTO-CI (C++ implementation), FIC-MRCC
   Dagmar Lenk            : GEPOL surface, SMD
   Dimitrios Liakos       : Extrapolation schemes; Compound Job, initial MDCI parallelization
   Dimitrios Manganas     : Further ROCIS development; embedding schemes
   Dimitrios Pantazis     : SARC Basis sets
   Anastasios Papadopoulos: AUTO-CI, single reference methods and gradients
   Taras Petrenko         : DFT Hessian,TD-DFT gradient, ASA, ECA, R-Raman, ABS, FL, XAS/XES, NRVS
   Peter Pinski           : DLPNO-MP2, DLPNO-MP2 Gradient
   Christoph Reimann      : Effective Core Potentials
   Marius Retegan         : Local ZFS, SOC
   Christoph Riplinger    : Optimizer, TS searches, QM/MM, DLPNO-CCSD(T), (RO)-DLPNO pert. Triples
   Tobias Risthaus        : Range-separated hybrids, TD-DFT gradient, RPA, STAB
   Michael Roemelt        : Original ROCIS implementation
   Masaaki Saitow         : Open-shell DLPNO-CCSD energy and density
   Barbara Sandhoefer     : DKH picture change effects
   Avijit Sen             : IP-ROCIS
   Kantharuban Sivalingam : CASSCF convergence, NEVPT2, FIC-MRCI
   Bernardo de Souza      : ESD, SOC TD-DFT
   Georgi Stoychev        : AutoAux, RI-MP2 NMR, DLPNO-MP2 response
   Willem Van den Heuvel  : Paramagnetic NMR
   Boris Wezisla          : Elementary symmetry handling
   Frank Wennmohs         : Technical directorship


 We gratefully acknowledge several colleagues who have allowed us to
 interface, adapt or use parts of their codes:
   Stefan Grimme, W. Hujo, H. Kruse, P. Pracht,  : VdW corrections, initial TS optimization,
                  C. Bannwarth, S. Ehlert          DFT functionals, gCP, sTDA/sTD-DF
   Ed Valeev, F. Pavosevic, A. Kumar             : LibInt (2-el integral package), F12 methods
   Garnet Chan, S. Sharma, J. Yang, R. Olivares  : DMRG
   Ulf Ekstrom                                   : XCFun DFT Library
   Mihaly Kallay                                 : mrcc  (arbitrary order and MRCC methods)
   Jiri Pittner, Ondrej Demel                    : Mk-CCSD
   Frank Weinhold                                : gennbo (NPA and NBO analysis)
   Christopher J. Cramer and Donald G. Truhlar   : smd solvation model
   Lars Goerigk                                  : TD-DFT with DH, B97 family of functionals
   V. Asgeirsson, H. Jonsson                     : NEB implementation
   FAccTs GmbH                                   : IRC, NEB, NEB-TS, DLPNO-Multilevel, CI-OPT
                                                   MM, QMMM, 2- and 3-layer-ONIOM, Crystal-QMMM,
                                                   LR-CPCM, SF, NACMEs, symmetry and pop. for TD-DFT,
                                                   nearIR, NL-DFT gradient (VV10), updates on ESD,
                                                   ML-optimized integration grids
   S Lehtola, MJT Oliveira, MAL Marques          : LibXC Library
   Liviu Ungur et al                             : ANISO software


 Your calculation uses the libint2 library for the computation of 2-el integrals
 For citations please refer to: http://libint.valeyev.net

 Your ORCA version has been built with support for libXC version: 5.1.0
 For citations please refer to: https://tddft.org/programs/libxc/

 This ORCA versions uses:
   CBLAS   interface :  Fast vector & matrix operations
   LAPACKE interface :  Fast linear algebra routines
   SCALAPACK package :  Parallel linear algebra routines
   Shared memory     :  Shared parallel matrices
   BLAS/LAPACK       :  OpenBLAS 0.3.15  USE64BITINT DYNAMIC_ARCH NO_AFFINITY SkylakeX SINGLE_THREADED
        Core in use  :  SkylakeX
   Copyright (c) 2011-2014, The OpenBLAS Project


Your calculation utilizes the geometrical counterpoise correction gCP
Please cite in your paper:
H.Kruse, S. Grimme J.Chem.Phys., 136, (2012), 154101 
   

Your calculation utilizes the atom-pairwise dispersion correction
with the Becke-Johnson damping scheme (D3BJ)
Cite in your paper:
S.Grimme, S.Ehrlich, L.Goerigk, J Comput Chem, (2011), 32, 1456–1465 
S.Grimme, J.Antony, S.Ehrlich and H.Krieg, J.Chem.Phys., 132, (2010), 154104 
   

Your calculation employs the composite approach PBEh-3c.
Please cite in your paper:
S. Grimme, J. G. Brandenburg, C. Bannwarth, A. Hansen J.Chem.Phys., 143, (2015), 054107 
   

================================================================================

cite the ECPs for Ir [Def2-ECP] as follows:
Ce-Yb(ecp-28): M. Dolg, H. Stoll, H.Preuss, J. Chem. Phys., 1989, 90, 1730-1734.
Y-Cd(ecp-28), Hf-Hg(ecp-46): D. Andrae,U. Haeussermann, M. Dolg, H. Stoll, H. Preuss, Theor. Chim. Acta, 1990, 77, 123-141.
In-Sb(ecp-28), Tl-Bi(ecp-46): B. Metz, H. Stoll, M. Dolg, J. Chem. Phys., 2000, 113, 2563-2569.
Te-Xe(ecp-28), Po-Rn(ecp-46): K. A. Peterson, D. Figgen, E. Goll, H. Stoll, M. Dolg, J. Chem. Phys., 2003, 119, 11113-11123.
Rb(ecp-28), Cs(ecp-46): T. Leininger, A. Nicklass, W. Kuechle, H. Stoll, M. Dolg, A. Bergner, Chem. Phys. Lett., 1996, 255, 274-280.
Sr(ecp-28), Ba(ecp-46): M. Kaupp, P. V. Schleyer, H. Stoll and H. Preuss, J. Chem. Phys., 1991, 94, 1360-1366.
La(ecp-46): M. Dolg, H. Stoll, A. Savin, H. Preuss, Theor. Chim. Acta, 1989, 75, 173-194.
Lu(ecp-28): X. Cao, M. Dolg, J. Chem. Phys., 2001, 115, 7348-7355.

ECP parameters for Ir [Def2-ECP] have been obtained from:
TURBOMOLE (7.0.2)

----- Orbital basis set information -----
Your calculation utilizes the basis: def2-mSVP

----- AuxJ basis set information -----
Your calculation utilizes the auxiliary basis: def2/J
   F. Weigend, Phys. Chem. Chem. Phys. 8, 1057 (2006).

================================================================================
                                        WARNINGS
                       Please study these warnings very carefully!
================================================================================


WARNING: Geometry Optimization
  ===> : Switching off AutoStart
         For restart on a previous wavefunction, please use MOREAD

WARNING: No Hueckel Guess possible with ECP basis!
  ===> : Switching to HCORE guess!

INFO   : the flag for use of the SHARK integral package has been found!

================================================================================
                                       INPUT FILE
================================================================================
NAME = reaction4-IEIP_ts_guess_scan_11-1_orca.inp
|  1> ! Opt PBEh-3c
|  2> %geom Constraints
|  3> { B 0 20 2.1285714285714286 C }
|  4> { B 24 30 1.4857142857142858 C }
|  5>     end
|  6> end
|  7> %output 
|  8> xyzfile=True 
|  9> end 
| 10> %scf 
| 11> maxiter 250 
| 12> end
| 13> %output
| 14> Print[P_Hirshfeld] = 1
| 15> end
| 16> % maxcore
| 17> 4000
| 18> *xyz 1 1
| 19> Ir   0.63149709  -0.70952942   0.40655875 
| 20> C    0.10331408  -2.81897807   0.34301190 
| 21> C    0.06965704  -2.35838069   1.70398082 
| 22> C    2.22140580  -2.09650310   0.90435001 
| 23> C    1.41221641  -2.65376008  -0.15284899 
| 24> C    1.39206990  -1.94314305   2.03822860 
| 25> N   -1.04751064   0.14686645  -0.52958273 
| 26> C   -2.30626908   0.42474454   0.17808516 
| 27> C   -3.09508879   1.58310750  -0.41318207 
| 28> H   -3.91351845   1.83245136   0.26072468 
| 29> H   -3.54842092   1.33984585  -1.37514492 
| 30> H   -2.48255573   2.47775430  -0.52731999 
| 31> C   -3.14049944  -0.84971283   0.24480063 
| 32> H   -2.00199753   0.69508559   1.19010226 
| 33> H   -4.03767021  -0.67030582   0.83547447 
| 34> H   -3.45402267  -1.16986380  -0.74962778 
| 35> H   -2.59745834  -1.66790487   0.71536896 
| 36> C   -0.89076349   0.40481642  -1.77341156 
| 37> C    0.44213887   0.19383210  -2.27192958 
| 38> H   -1.68972256   0.79533693  -2.39579732 
| 39> C    1.49931372   0.21721178  -1.35501643 
| 40> C    2.72230649  -0.11067601  -2.02275295 
| 41> S    0.91900270  -0.21752713  -3.84260776 
| 42> C    2.55792449  -0.36802937  -3.34633112 
| 43> H    1.52194092   1.20426723  -0.66847504 
| 44> H    3.68974560  -0.09997518  -1.54200446 
| 45> H    3.31502459  -0.61385057  -4.07537197 
| 46> H   -0.73419936  -3.21475226  -0.21332004 
| 47> H   -0.77530231  -2.38907281   2.37509073 
| 48> H    1.69360093  -1.51372022   2.98308034 
| 49> O    1.40797013   2.44875607   0.16113823 
| 50> O    0.55000272   0.96570773   1.58474423 
| 51> C    0.95936348   2.14158567   1.26774182 
| 52> C    0.89107860   3.15939804   2.37197828 
| 53> H    0.86382675   4.16767270   1.96796306 
| 54> H    1.78682878   3.07123913   2.98968362 
| 55> H    0.03298698   2.99227570   3.01931301 
| 56> H    3.27822123  -1.88252374   0.85802713 
| 57> H    1.75293228  -2.91455611  -1.14398185 
| 58> *
| 59> 
| 60>                          ****END OF INPUT****
================================================================================

                       *****************************
                       * Geometry Optimization Run *
                       *****************************

Geometry optimization settings:
Update method            Update   .... BFGS
Choice of coordinates    CoordSys .... Z-matrix Internals
Initial Hessian          InHess   .... Almoef's Model

Convergence Tolerances:
Energy Change            TolE     ....  5.0000e-06 Eh
Max. Gradient            TolMAXG  ....  3.0000e-04 Eh/bohr
RMS Gradient             TolRMSG  ....  1.0000e-04 Eh/bohr
Max. Displacement        TolMAXD  ....  4.0000e-03 bohr
RMS Displacement         TolRMSD  ....  2.0000e-03 bohr
Strict Convergence                ....  False
------------------------------------------------------------------------------
                        ORCA OPTIMIZATION COORDINATE SETUP
------------------------------------------------------------------------------

The optimization will be done in new redundant internal coordinates
Making redundant internal coordinates   ...  (new redundants) done
Evaluating the initial hessian          ...  (Almloef) done
Evaluating the coordinates              ...  done
Calculating the B-matrix                .... done
Calculating the G-matrix                .... done
Diagonalizing the G-matrix              .... done
Imposing constraints:
 Iter   0:  RMS(Cart)=    0.0180401255 RMS(Int)=    0.0071905393
 Iter   1:  RMS(Cart)=    0.0021750895 RMS(Int)=    0.0009006253
 Iter   2:  RMS(Cart)=    0.0002721245 RMS(Int)=    0.0001126460
 Iter   3:  RMS(Cart)=    0.0000340029 RMS(Int)=    0.0000140542
 Iter   4:  RMS(Cart)=    0.0000042406 RMS(Int)=    0.0000017515
 Iter   5:  RMS(Cart)=    0.0000005284 RMS(Int)=    0.0000002182
 Iter   6:  RMS(Cart)=    0.0000000658 RMS(Int)=    0.0000000272
CONVERGED
Small eigenvalue found = 1.377e-02
Small eigenvalue found = 2.269e-02
The first mode is                       ....  280
The number of degrees of freedom        ....  111
Storing new coordinates                 .... done

    -----------------------------------------------------------------
                    Redundant Internal Coordinates


    -----------------------------------------------------------------
         Definition                    Initial Value    Approx d2E/dq
    -----------------------------------------------------------------
      1. B(C   1,Ir  0)                  2.1754         0.081185   
      2. B(C   2,C   1)                  1.4369         0.525349   
      3. B(C   2,Ir  0)                  2.1718         0.082229   
      4. B(C   3,Ir  0)                  2.1676         0.083518   
      5. B(C   4,C   3)                  1.4432         0.513771   
      6. B(C   4,Ir  0)                  2.1683         0.083292   
      7. B(C   4,C   1)                  1.4098         0.581824   
      8. B(C   5,Ir  0)                  2.1819         0.079169   
      9. B(C   5,C   2)                  1.4269         0.547790   
     10. B(C   5,C   3)                  1.4140         0.573854   
     11. B(N   6,Ir  0)                  2.1049         0.094388   
     12. B(C   7,N   6)                  1.4705         0.416276   
     13. B(C   8,C   7)                  1.5211         0.386041   
     14. B(H   9,C   8)                  1.0891         0.361286   
     15. B(H  10,C   8)                  1.0909         0.358914   
     16. B(H  11,C   8)                  1.0902         0.359786   
     17. B(C  12,C   7)                  1.5247         0.380955   
     18. B(H  13,C   7)                  1.0908         0.359044   
     19. B(H  14,C  12)                  1.0890         0.361378   
     20. B(H  15,C  12)                  1.0907         0.359142   
     21. B(H  16,C  12)                  1.0889         0.361520   
     22. B(C  17,N   6)                  1.2749         0.838469   
     23. B(C  18,C  17)                  1.4339         0.522575   
     24. B(H  19,C  17)                  1.0855         0.366167   
     25. B(C  20,Ir  0)                  2.1286         0.082408 C 
     26. B(C  20,C  18)                  1.4000         0.603134   
     27. B(C  21,C  20)                  1.4322         0.536516   
     28. B(S  22,C  18)                  1.6922         0.555030   
     29. B(C  23,C  21)                  1.3581         0.701837   
     30. B(C  23,S  22)                  1.7182         0.503022   
     31. B(H  24,C  20)                  1.2030         0.238152   
     32. B(H  25,C  21)                  1.0804         0.373085   
     33. B(H  26,C  23)                  1.0794         0.374383   
     34. B(H  27,C   1)                  1.0805         0.372832   
     35. B(H  28,C   2)                  1.0795         0.374283   
     36. B(H  29,C   5)                  1.0808         0.372516   
     37. B(O  30,H  24)                  1.4857         0.071521 C 
     38. B(O  31,Ir  0)                  2.0492         0.115439   
     39. B(C  32,O  30)                  1.2331         0.996401   
     40. B(C  32,O  31)                  1.2846         0.823546   
     41. B(C  33,C  32)                  1.5033         0.412058   
     42. B(H  34,C  33)                  1.0866         0.364694   
     43. B(H  35,C  33)                  1.0917         0.357924   
     44. B(H  36,C  33)                  1.0878         0.363032   
     45. B(H  37,C   3)                  1.0793         0.374598   
     46. B(H  38,C   4)                  1.0800         0.373545   
     47. A(C   1,Ir  0,N   6)          100.7872         0.247746   
     48. A(C   1,Ir  0,C   3)           64.2035         0.244523   
     49. A(C   2,Ir  0,N   6)          111.5133         0.248205   
     50. A(C   2,Ir  0,C   5)           38.2640         0.243096   
     51. A(N   6,Ir  0,O  31)           83.7363         0.259681   
     52. A(C  20,Ir  0,O  31)           97.6775         0.255710   
     53. A(C   2,Ir  0,C  20)          155.7318         0.244501   
     54. A(C   2,Ir  0,O  31)          105.4913         0.255628   
     55. A(C   1,Ir  0,C   5)           63.8141         0.242652   
     56. A(C   3,Ir  0,C   4)           38.8848         0.245427   
     57. A(C   2,Ir  0,C   3)           64.3860         0.244973   
     58. A(C   3,Ir  0,C  20)           99.4473         0.245050   
     59. A(C   4,Ir  0,N   6)          122.5099         0.248669   
     60. A(C   1,Ir  0,O  31)          143.1087         0.255147   
     61. A(C   5,Ir  0,O  31)           92.6440         0.254204   
     62. A(C   5,Ir  0,C  20)          135.0172         0.243172   
     63. A(C   4,Ir  0,C  20)           91.6194         0.244954   
     64. A(C   2,Ir  0,C   4)           64.3356         0.244877   
     65. A(C   1,Ir  0,C  20)          119.1321         0.244052   
     66. A(C   3,Ir  0,N   6)          161.3915         0.248767   
     67. A(C   1,Ir  0,C   4)           37.8762         0.244427   
     68. A(C   4,Ir  0,O  31)          153.5751         0.256113   
     69. A(C   1,Ir  0,C   2)           38.6035         0.243976   
     70. A(C   3,Ir  0,O  31)          114.8550         0.256215   
     71. A(C   5,Ir  0,N   6)          147.1402         0.246845   
     72. A(C   3,Ir  0,C   5)           37.9416         0.243640   
     73. A(N   6,Ir  0,C  20)           77.7129         0.248284   
     74. A(C   4,Ir  0,C   5)           63.9543         0.243545   
     75. A(C   2,C   1,H  27)          125.9143         0.345204   
     76. A(Ir  0,C   1,C   2)           70.5632         0.311419   
     77. A(C   2,C   1,C   4)          108.5234         0.416621   
     78. A(C   4,C   1,H  27)          125.5584         0.351194   
     79. A(Ir  0,C   1,H  27)          123.9541         0.267001   
     80. A(Ir  0,C   1,C   4)           70.7915         0.316619   
     81. A(Ir  0,C   2,C   1)           70.8333         0.312063   
     82. A(Ir  0,C   2,C   5)           71.2505         0.314185   
     83. A(C   1,C   2,C   5)          107.0580         0.412182   
     84. A(Ir  0,C   2,H  28)          126.5519         0.267673   
     85. A(C   5,C   2,H  28)          126.0735         0.347869   
     86. A(C   1,C   2,H  28)          126.7176         0.345429   
     87. A(C   4,C   3,C   5)          107.4688         0.413957   
     88. A(Ir  0,C   3,C   4)           70.5869         0.311723   
     89. A(Ir  0,C   3,C   5)           71.5776         0.317369   
     90. A(Ir  0,C   3,H  37)          125.5642         0.268338   
     91. A(C   5,C   3,H  37)          126.0121         0.350656   
     92. A(C   4,C   3,H  37)          126.4498         0.344188   
     93. A(Ir  0,C   4,C   1)           71.3323         0.317943   
     94. A(Ir  0,C   4,H  38)          124.5367         0.268114   
     95. A(Ir  0,C   4,C   3)           70.5284         0.311587   
     96. A(C   3,C   4,H  38)          126.0363         0.344025   
     97. A(C   1,C   4,C   3)          107.9826         0.414973   
     98. A(C   1,C   4,H  38)          125.9735         0.351307   
     99. A(Ir  0,C   5,H  29)          121.7565         0.265957   
    100. A(Ir  0,C   5,C   2)           70.4855         0.312261   
    101. A(C   3,C   5,H  29)          125.5077         0.350326   
    102. A(Ir  0,C   5,C   3)           70.4808         0.314622   
    103. A(C   2,C   5,C   3)          108.9327         0.418707   
    104. A(C   2,C   5,H  29)          125.4213         0.347591   
    105. A(Ir  0,N   6,C  17)          114.4998         0.340902   
    106. A(C   7,N   6,C  17)          122.3622         0.421077   
    107. A(Ir  0,N   6,C   7)          123.1375         0.303982   
    108. A(C   8,C   7,H  13)          108.4554         0.325916   
    109. A(C  12,C   7,H  13)          108.6139         0.325206   
    110. A(N   6,C   7,C   8)          113.6252         0.369921   
    111. A(N   6,C   7,C  12)          109.3575         0.369079   
    112. A(C   8,C   7,C  12)          111.7049         0.366624   
    113. A(N   6,C   7,H  13)          104.7461         0.328011   
    114. A(C   7,C   8,H   9)          108.8767         0.326250   
    115. A(C   7,C   8,H  10)          112.8591         0.325897   
    116. A(H   9,C   8,H  10)          106.5236         0.290839   
    117. A(C   7,C   8,H  11)          111.9782         0.326027   
    118. A(H   9,C   8,H  11)          107.4043         0.290950   
    119. A(H  10,C   8,H  11)          108.9135         0.290649   
    120. A(C   7,C  12,H  14)          109.6812         0.325553   
    121. A(C   7,C  12,H  15)          111.2679         0.325221   
    122. A(H  14,C  12,H  15)          107.8213         0.290880   
    123. A(C   7,C  12,H  16)          111.9694         0.325574   
    124. A(H  14,C  12,H  16)          107.4714         0.291181   
    125. A(H  15,C  12,H  16)          108.4690         0.290897   
    126. A(N   6,C  17,C  18)          114.2496         0.441518   
    127. A(N   6,C  17,H  19)          122.9575         0.370307   
    128. A(C  18,C  17,H  19)          122.7388         0.343855   
    129. A(C  17,C  18,S  22)          128.1410         0.435484   
    130. A(C  20,C  18,S  22)          113.7029         0.446912   
    131. A(C  17,C  18,C  20)          117.9385         0.418904   
    132. A(C  18,C  20,C  21)          109.3763         0.420875   
    133. A(Ir  0,C  20,H  24)           83.9672         0.250374   
    134. A(C  18,C  20,H  24)          113.7364         0.327836   
    135. A(C  21,C  20,H  24)          116.0779         0.321592   
    136. A(Ir  0,C  20,C  18)          103.5371         0.319258   
    137. A(Ir  0,C  20,C  21)          128.0071         0.313238   
    138. A(C  20,C  21,C  23)          113.3827         0.432458   
    139. A(C  20,C  21,H  25)          123.6574         0.346466   
    140. A(C  23,C  21,H  25)          122.8680         0.362604   
    141. A(C  18,S  22,C  23)           91.2080         0.456622   
    142. A(C  21,C  23,S  22)          112.3267         0.451245   
    143. A(C  21,C  23,H  26)          128.0583         0.362820   
    144. A(S  22,C  23,H  26)          119.5878         0.360764   
    145. A(Ir  0,O  31,C  32)          126.2090         0.351577   
    146. A(O  30,C  32,O  31)          124.3588         0.491965   
    147. A(O  30,C  32,C  33)          120.5069         0.436367   
    148. A(O  31,C  32,C  33)          115.1183         0.421706   
    149. A(C  32,C  33,H  34)          110.8722         0.330291   
    150. A(C  32,C  33,H  35)          108.8862         0.329269   
    151. A(H  34,C  33,H  35)          107.8134         0.291142   
    152. A(C  32,C  33,H  36)          111.6495         0.330041   
    153. A(H  34,C  33,H  36)          110.1244         0.291791   
    154. A(H  35,C  33,H  36)          107.3460         0.290933   
    155. D(C   2,C   1,Ir  0,N   6)   -111.0810         0.001682   
    156. D(C   4,C   1,Ir  0,C   2)   -118.6656         0.001682   
    157. D(H  27,C   1,Ir  0,C   3)   -158.6331         0.001682   
    158. D(C   4,C   1,Ir  0,C  20)     48.4069         0.001682   
    159. D(C   2,C   1,Ir  0,C   3)     80.5508         0.001682   
    160. D(C   4,C   1,Ir  0,N   6)    130.2534         0.001682   
    161. D(H  27,C   1,Ir  0,C   2)    120.8161         0.001682   
    162. D(C   2,C   1,Ir  0,O  31)    -17.1346         0.001682   
    163. D(H  27,C   1,Ir  0,N   6)      9.7351         0.001682   
    164. D(C   2,C   1,Ir  0,C  20)    167.0726         0.001682   
    165. D(C   4,C   1,Ir  0,C   3)    -38.1148         0.001682   
    166. D(H  27,C   1,Ir  0,C  20)    -72.1113         0.001682   
    167. D(H  27,C   1,Ir  0,C   4)   -120.5183         0.001682   
    168. D(H  27,C   1,Ir  0,O  31)    103.6815         0.001682   
    169. D(C   2,C   1,Ir  0,C   5)     38.1480         0.001682   
    170. D(H  27,C   1,Ir  0,C   5)    158.9641         0.001682   
    171. D(C   4,C   1,Ir  0,C   5)    -80.5177         0.001682   
    172. D(C   4,C   1,Ir  0,O  31)   -135.8002         0.001682   
    173. D(C   2,C   1,Ir  0,C   4)    118.6656         0.001682   
    174. D(H  28,C   2,Ir  0,C   5)    121.4943         0.001686   
    175. D(H  28,C   2,C   1,C   4)   -177.2660         0.021919   
    176. D(C   5,C   2,C   1,H  27)    179.1483         0.021919   
    177. D(C   1,C   2,Ir  0,N   6)     80.1378         0.001686   
    178. D(C   1,C   2,Ir  0,C   3)    -80.0373         0.001686   
    179. D(Ir  0,C   2,C   1,C   4)     60.9099         0.021919   
    180. D(H  28,C   2,Ir  0,C   1)   -122.0219         0.001686   
    181. D(H  28,C   2,Ir  0,C  20)   -150.4110         0.001686   
    182. D(C   1,C   2,Ir  0,C   5)   -116.4838         0.001686   
    183. D(C   5,C   2,Ir  0,C   3)     36.4464         0.001686   
    184. D(H  28,C   2,Ir  0,C   4)   -158.7251         0.001686   
    185. D(H  28,C   2,Ir  0,C   3)    157.9408         0.001686   
    186. D(Ir  0,C   2,C   1,H  27)   -118.4071         0.021919   
    187. D(C   1,C   2,Ir  0,C   4)    -36.7032         0.001686   
    188. D(C   5,C   2,Ir  0,C   1)    116.4838         0.001686   
    189. D(C   1,C   2,Ir  0,C  20)    -28.3891         0.001686   
    190. D(C   5,C   2,Ir  0,O  31)    -74.0914         0.001686   
    191. D(C   5,C   2,Ir  0,N   6)   -163.3784         0.001686   
    192. D(H  28,C   2,C   1,Ir  0)    121.8241         0.021919   
    193. D(C   5,C   2,C   1,Ir  0)    -62.4446         0.021919   
    194. D(C   1,C   2,Ir  0,O  31)    169.4248         0.001686   
    195. D(C   5,C   2,Ir  0,C  20)     88.0947         0.001686   
    196. D(H  28,C   2,Ir  0,N   6)    -41.8841         0.001686   
    197. D(C   5,C   2,Ir  0,C   4)     79.7806         0.001686   
    198. D(C   5,C   2,C   1,C   4)     -1.5347         0.021919   
    199. D(H  28,C   2,Ir  0,O  31)     47.4029         0.001686   
    200. D(H  28,C   2,C   1,H  27)      3.4170         0.021919   
    201. D(C   4,C   3,Ir  0,N   6)     -1.2321         0.001692   
    202. D(C   5,C   3,Ir  0,C   1)    -79.7939         0.001692   
    203. D(H  37,C   3,Ir  0,C   5)   -121.5785         0.001692   
    204. D(H  37,C   3,Ir  0,C   2)   -158.3303         0.001692   
    205. D(C   4,C   3,Ir  0,O  31)    176.1656         0.001692   
    206. D(H  37,C   3,Ir  0,N   6)    120.2621         0.001692   
    207. D(C   5,C   3,Ir  0,C  20)    162.3200         0.001692   
    208. D(H  37,C   3,Ir  0,C   1)    158.6276         0.001692   
    209. D(H  37,C   3,Ir  0,C   4)    121.4942         0.001692   
    210. D(C   4,C   3,Ir  0,C   5)    116.9273         0.001692   
    211. D(C   5,C   3,Ir  0,C   4)   -116.9273         0.001692   
    212. D(C   5,C   3,Ir  0,O  31)     59.2383         0.001692   
    213. D(C   4,C   3,Ir  0,C  20)    -80.7527         0.001692   
    214. D(C   4,C   3,Ir  0,C   1)     37.1334         0.001692   
    215. D(C   4,C   3,Ir  0,C   2)     80.1755         0.001692   
    216. D(C   5,C   3,Ir  0,N   6)   -118.1594         0.001692   
    217. D(C   5,C   3,Ir  0,C   2)    -36.7517         0.001692   
    218. D(H  37,C   3,Ir  0,C  20)     40.7415         0.001692   
    219. D(H  37,C   3,Ir  0,O  31)    -62.3402         0.001692   
    220. D(C   1,C   4,Ir  0,C  20)   -139.1915         0.001691   
    221. D(C   1,C   4,Ir  0,C   2)     37.3999         0.001691   
    222. D(C   3,C   4,Ir  0,C   2)    -80.3162         0.001691   
    223. D(C   1,C   4,Ir  0,C   5)     80.1149         0.001691   
    224. D(C   1,C   4,Ir  0,N   6)    -62.7500         0.001691   
    225. D(C   3,C   4,Ir  0,C   5)    -37.6013         0.001691   
    226. D(C   3,C   4,Ir  0,C   1)   -117.7161         0.001691   
    227. D(C   1,C   4,Ir  0,O  31)    109.8794         0.001691   
    228. D(C   1,C   4,Ir  0,C   3)    117.7161         0.001691   
    229. D(H  38,C   4,C   1,Ir  0)   -119.6176         0.027143   
    230. D(C   3,C   4,Ir  0,C  20)    103.0923         0.001691   
    231. D(C   3,C   4,Ir  0,O  31)     -7.8367         0.001691   
    232. D(Ir  0,C   4,C   1,C   2)    -60.7665         0.027143   
    233. D(H  38,C   4,Ir  0,C   1)    121.3430         0.001691   
    234. D(H  38,C   4,Ir  0,C   3)   -120.9408         0.001691   
    235. D(H  38,C   4,Ir  0,C   5)   -158.5421         0.001691   
    236. D(H  38,C   4,Ir  0,N   6)     58.5930         0.001691   
    237. D(H  38,C   4,Ir  0,C  20)    -17.8485         0.001691   
    238. D(H  38,C   4,Ir  0,C   2)    158.7430         0.001691   
    239. D(Ir  0,C   4,C   1,H  27)    118.5536         0.027143   
    240. D(H  38,C   4,Ir  0,O  31)   -128.7776         0.001691   
    241. D(C   3,C   4,C   1,Ir  0)     61.3419         0.027143   
    242. D(C   3,C   4,C   1,C   2)      0.5754         0.027143   
    243. D(H  38,C   4,C   1,C   2)    179.6160         0.027143   
    244. D(C   3,C   4,Ir  0,N   6)    179.5338         0.001691   
    245. D(C   3,C   4,C   1,H  27)    179.8954         0.027143   
    246. D(Ir  0,C   4,C   3,H  37)   -120.4213         0.020932   
    247. D(Ir  0,C   4,C   3,C   5)     62.4725         0.020932   
    248. D(H  38,C   4,C   3,C   5)   -178.4232         0.020932   
    249. D(C   1,C   4,C   3,C   5)      0.6167         0.020932   
    250. D(C   1,C   4,C   3,H  37)    177.7229         0.020932   
    251. D(H  38,C   4,C   3,Ir  0)    119.1044         0.020932   
    252. D(H  38,C   4,C   1,H  27)     -1.0640         0.027143   
    253. D(H  38,C   4,C   3,H  37)     -1.3170         0.020932   
    254. D(C   1,C   4,C   3,Ir  0)    -61.8558         0.020932   
    255. D(H  29,C   5,C   2,H  28)     -6.3943         0.023912   
    256. D(C   2,C   5,Ir  0,C   4)    -80.8641         0.001673   
    257. D(C   2,C   5,Ir  0,C   3)   -119.3968         0.001673   
    258. D(C   3,C   5,C   2,C   1)      1.9288         0.023912   
    259. D(C   2,C   5,Ir  0,C  20)   -144.4715         0.001673   
    260. D(C   2,C   5,Ir  0,O  31)    111.9132         0.001673   
    261. D(H  29,C   5,Ir  0,O  31)     -8.3387         0.001673   
    262. D(C   3,C   5,Ir  0,C   2)    119.3968         0.001673   
    263. D(C   3,C   5,Ir  0,C   4)     38.5327         0.001673   
    264. D(C   3,C   5,Ir  0,N   6)    148.7682         0.001673   
    265. D(C   3,C   5,Ir  0,C  20)    -25.0747         0.001673   
    266. D(C   3,C   5,Ir  0,O  31)   -128.6900         0.001673   
    267. D(H  29,C   5,Ir  0,C   1)   -158.7379         0.001673   
    268. D(H  29,C   5,Ir  0,C   2)   -120.2519         0.001673   
    269. D(H  29,C   5,Ir  0,C   3)    120.3513         0.001673   
    270. D(H  29,C   5,Ir  0,C   4)    158.8840         0.001673   
    271. D(H  29,C   5,Ir  0,N   6)    -90.8806         0.001673   
    272. D(C   3,C   5,Ir  0,C   1)     80.9108         0.001673   
    273. D(H  29,C   5,Ir  0,C  20)     95.2765         0.001673   
    274. D(Ir  0,C   5,C   2,C   1)     62.1716         0.023912   
    275. D(Ir  0,C   5,C   2,H  28)   -122.0619         0.023912   
    276. D(C   2,C   5,Ir  0,N   6)     29.3714         0.001673   
    277. D(C   3,C   5,C   2,Ir  0)    -60.2428         0.023912   
    278. D(H  29,C   5,C   2,Ir  0)    115.6676         0.023912   
    279. D(C   3,C   5,C   2,H  28)    177.6953         0.023912   
    280. D(C   2,C   5,Ir  0,C   1)    -38.4860         0.001673   
    281. D(H  29,C   5,C   2,C   1)    177.8391         0.023912   
    282. D(H  29,C   5,C   3,H  37)      5.3876         0.026363   
    283. D(Ir  0,C   5,C   3,H  37)    121.0478         0.026363   
    284. D(C   2,C   5,C   3,Ir  0)     60.2457         0.026363   
    285. D(C   2,C   5,C   3,C   4)     -1.5841         0.026363   
    286. D(C   2,C   5,C   3,H  37)   -178.7065         0.026363   
    287. D(H  29,C   5,C   3,Ir  0)   -115.6603         0.026363   
    288. D(Ir  0,C   5,C   3,C   4)    -61.8298         0.026363   
    289. D(H  29,C   5,C   3,C   4)   -177.4901         0.026363   
    290. D(C   7,N   6,Ir  0,C   1)     82.1743         0.001764   
    291. D(C   7,N   6,Ir  0,C   2)     43.4360         0.001764   
    292. D(C   7,N   6,Ir  0,C   3)    116.8461         0.001764   
    293. D(C   7,N   6,Ir  0,C   4)    115.9290         0.001764   
    294. D(C   7,N   6,Ir  0,C   5)     24.3804         0.001764   
    295. D(C   7,N   6,Ir  0,C  20)   -160.0699         0.001764   
    296. D(C   7,N   6,Ir  0,O  31)    -60.7785         0.001764   
    297. D(C  17,N   6,Ir  0,C   1)    -97.5698         0.001764   
    298. D(C  17,N   6,Ir  0,C   2)   -136.3082         0.001764   
    299. D(C  17,N   6,Ir  0,C   3)    -62.8980         0.001764   
    300. D(C  17,N   6,Ir  0,C   4)    -63.8152         0.001764   
    301. D(C  17,N   6,Ir  0,C   5)   -155.3637         0.001764   
    302. D(C  17,N   6,Ir  0,C  20)     20.1859         0.001764   
    303. D(C  17,N   6,Ir  0,O  31)    119.4773         0.001764   
    304. D(C   8,C   7,N   6,Ir  0)    151.9927         0.014778   
    305. D(C   8,C   7,N   6,C  17)    -28.2829         0.014778   
    306. D(C  12,C   7,N   6,Ir  0)    -82.4500         0.014778   
    307. D(C  12,C   7,N   6,C  17)     97.2744         0.014778   
    308. D(H  13,C   7,N   6,Ir  0)     33.8011         0.014778   
    309. D(H  13,C   7,N   6,C  17)   -146.4745         0.014778   
    310. D(H   9,C   8,C   7,N   6)   -170.3419         0.011859   
    311. D(H   9,C   8,C   7,C  12)     65.3598         0.011859   
    312. D(H   9,C   8,C   7,H  13)    -54.3107         0.011859   
    313. D(H  10,C   8,C   7,N   6)     71.6016         0.011859   
    314. D(H  10,C   8,C   7,C  12)    -52.6966         0.011859   
    315. D(H  10,C   8,C   7,H  13)   -172.3671         0.011859   
    316. D(H  11,C   8,C   7,N   6)    -51.7295         0.011859   
    317. D(H  11,C   8,C   7,C  12)   -176.0278         0.011859   
    318. D(H  11,C   8,C   7,H  13)     64.3017         0.011859   
    319. D(H  14,C  12,C   7,N   6)    175.5613         0.011564   
    320. D(H  14,C  12,C   7,C   8)    -57.7819         0.011564   
    321. D(H  14,C  12,C   7,H  13)     61.7951         0.011564   
    322. D(H  15,C  12,C   7,N   6)    -65.2284         0.011564   
    323. D(H  15,C  12,C   7,C   8)     61.4284         0.011564   
    324. D(H  15,C  12,C   7,H  13)   -178.9946         0.011564   
    325. D(H  16,C  12,C   7,N   6)     56.3444         0.011564   
    326. D(H  16,C  12,C   7,C   8)   -176.9988         0.011564   
    327. D(H  16,C  12,C   7,H  13)    -57.4217         0.011564   
    328. D(C  18,C  17,N   6,Ir  0)     -5.9688         0.060651   
    329. D(C  18,C  17,N   6,C   7)    174.2848         0.060651   
    330. D(H  19,C  17,N   6,Ir  0)    176.6429         0.060651   
    331. D(H  19,C  17,N   6,C   7)     -3.1035         0.060651   
    332. D(C  20,C  18,C  17,N   6)    -22.4986         0.018628   
    333. D(C  20,C  18,C  17,H  19)    154.8961         0.018628   
    334. D(S  22,C  18,C  17,N   6)    151.7694         0.018628   
    335. D(S  22,C  18,C  17,H  19)    -30.8359         0.018628   
    336. D(C  18,C  20,Ir  0,C   1)     67.3956         0.001687   
    337. D(H  24,C  20,C  18,C  17)    -52.7380         0.027258   
    338. D(C  18,C  20,Ir  0,C   3)    133.0455         0.001687   
    339. D(C  18,C  20,Ir  0,C   4)     94.7407         0.001687   
    340. D(Ir  0,C  20,C  18,C  17)     36.5618         0.027258   
    341. D(C  18,C  20,Ir  0,N   6)    -28.2229         0.001687   
    342. D(C  18,C  20,Ir  0,O  31)   -110.0575         0.001687   
    343. D(H  24,C  20,Ir  0,C   4)   -152.2493         0.001687   
    344. D(C  21,C  20,Ir  0,C   2)    -41.1588         0.001687   
    345. D(C  21,C  20,Ir  0,C   3)      4.6380         0.001687   
    346. D(C  21,C  20,Ir  0,C   4)    -33.6668         0.001687   
    347. D(C  21,C  20,Ir  0,C   5)     19.9550         0.001687   
    348. D(C  21,C  20,Ir  0,N   6)   -156.6305         0.001687   
    349. D(C  21,C  20,Ir  0,O  31)    121.5350         0.001687   
    350. D(H  24,C  20,Ir  0,C   1)   -179.5944         0.001687   
    351. D(H  24,C  20,Ir  0,C   2)   -159.7412         0.001687   
    352. D(C  21,C  20,Ir  0,C   1)    -61.0119         0.001687   
    353. D(H  24,C  20,Ir  0,C   3)   -113.9444         0.001687   
    354. D(H  24,C  20,Ir  0,C   5)    -98.6274         0.001687   
    355. D(H  24,C  20,Ir  0,N   6)     84.7871         0.001687   
    356. D(C  18,C  20,Ir  0,C   5)    148.3626         0.001687   
    357. D(H  24,C  20,Ir  0,O  31)      2.9526         0.001687   
    358. D(Ir  0,C  20,C  18,S  22)   -138.5169         0.027258   
    359. D(C  21,C  20,C  18,C  17)    175.6796         0.027258   
    360. D(C  18,C  20,Ir  0,C   2)     87.2487         0.001687   
    361. D(C  21,C  20,C  18,S  22)      0.6009         0.027258   
    362. D(H  24,C  20,C  18,S  22)    132.1833         0.027258   
    363. D(C  23,C  21,C  20,Ir  0)    125.5441         0.021329   
    364. D(C  23,C  21,C  20,C  18)     -0.5954         0.021329   
    365. D(C  23,C  21,C  20,H  24)   -130.9250         0.021329   
    366. D(H  25,C  21,C  20,Ir  0)    -57.8576         0.021329   
    367. D(H  25,C  21,C  20,C  18)    176.0029         0.021329   
    368. D(H  25,C  21,C  20,H  24)     45.6733         0.021329   
    369. D(C  23,S  22,C  18,C  17)   -174.8333         0.006116   
    370. D(C  23,S  22,C  18,C  20)     -0.3631         0.006116   
    371. D(S  22,C  23,C  21,C  20)      0.3419         0.034707   
    372. D(S  22,C  23,C  21,H  25)   -176.2870         0.034707   
    373. D(H  26,C  23,C  21,C  20)    178.4130         0.034707   
    374. D(H  26,C  23,C  21,H  25)      1.7841         0.034707   
    375. D(C  21,C  23,S  22,C  18)      0.0070         0.005253   
    376. D(H  26,C  23,S  22,C  18)   -178.2465         0.005253   
    377. D(C  32,O  31,Ir  0,C   1)   -177.9211         0.001873   
    378. D(C  32,O  31,Ir  0,C   2)    171.0823         0.001873   
    379. D(C  32,O  31,Ir  0,C   3)    102.5520         0.001873   
    380. D(C  32,O  31,Ir  0,C   4)    107.9649         0.001873   
    381. D(C  32,O  31,Ir  0,C   5)    134.4840         0.001873   
    382. D(C  32,O  31,Ir  0,N   6)    -78.2832         0.001873   
    383. D(C  32,O  31,Ir  0,C  20)     -1.6286         0.001873   
    384. D(O  30,C  32,O  31,Ir  0)      3.8633         0.052642   
    385. D(C  33,C  32,O  31,Ir  0)   -174.6821         0.052642   
    386. D(H  34,C  33,C  32,O  30)     23.8660         0.012571   
    387. D(H  34,C  33,C  32,O  31)   -157.5277         0.012571   
    388. D(H  35,C  33,C  32,O  30)    -94.5898         0.012571   
    389. D(H  35,C  33,C  32,O  31)     84.0165         0.012571   
    390. D(H  36,C  33,C  32,O  30)    147.0631         0.012571   
    391. D(H  36,C  33,C  32,O  31)    -34.3306         0.012571   
    -----------------------------------------------------------------

Number of atoms                         .... 39
Number of degrees of freedom            .... 391

         *************************************************************
         *                GEOMETRY OPTIMIZATION CYCLE   1            *
         *************************************************************
---------------------------------
CARTESIAN COORDINATES (ANGSTROEM)
---------------------------------
  Ir     0.634332   -0.704595    0.396027
  C      0.109183   -2.814527    0.327851
  C      0.076421   -2.357387    1.689726
  C      2.227814   -2.089587    0.886858
  C      1.417323   -2.645829   -0.169855
  C      1.399663   -1.940348    2.023211
  N     -1.049521    0.150700   -0.533234
  C     -2.306948    0.426002    0.177814
  C     -3.098682    1.584131   -0.410023
  H     -3.915824    1.831515    0.266173
  H     -3.553999    1.341565   -1.371226
  H     -2.487582    2.479724   -0.524432
  C     -3.139366   -0.849626    0.244824
  H     -2.000607    0.695388    1.189464
  H     -4.035358   -0.672169    0.837882
  H     -3.454852   -1.168857   -0.749282
  H     -2.594140   -1.667741    0.713003
  C     -0.895414    0.409171   -1.772090
  C      0.436118    0.192187   -2.257750
  H     -1.691350    0.802207   -2.396778
  C      1.483761    0.208111   -1.329155
  C      2.709700   -0.125544   -1.990146
  S      0.922624   -0.220091   -3.825141
  C      2.555514   -0.380815   -3.315134
  H      1.505612    1.194345   -0.640635
  H      3.673709   -0.120049   -1.502379
  H      3.317607   -0.629725   -4.037948
  H     -0.728520   -3.210291   -0.228203
  H     -0.767712   -2.391205    2.361733
  H      1.702089   -1.512604    2.968540
  O      1.405840    2.447978    0.150438
  O      0.551950    0.967487    1.577868
  C      0.960023    2.143005    1.258939
  C      0.894196    3.162418    2.361852
  H      0.865750    4.170096    1.956428
  H      1.791461    3.075353    2.977517
  H      0.037707    2.996060    3.011510
  H      3.284158   -1.873669    0.838743
  H      1.756689   -2.903595   -1.162249

----------------------------
CARTESIAN COORDINATES (A.U.)
----------------------------
  NO LB      ZA    FRAG     MASS         X           Y           Z
   0 Ir   17.0000*   0   192.220    1.198714   -1.331492    0.748383
   1 C     6.0000    0    12.011    0.206326   -5.318685    0.619548
   2 C     6.0000    0    12.011    0.144414   -4.454816    3.193119
   3 C     6.0000    0    12.011    4.209958   -3.948747    1.675918
   4 C     6.0000    0    12.011    2.678353   -4.999893   -0.320979
   5 C     6.0000    0    12.011    2.644979   -3.666727    3.823315
   6 N     7.0000    0    14.007   -1.983307    0.284781   -1.007666
   7 C     6.0000    0    12.011   -4.359499    0.805027    0.336019
   8 C     6.0000    0    12.011   -5.855661    2.993574   -0.774831
   9 H     1.0000    0     1.008   -7.399835    3.461062    0.502994
  10 H     1.0000    0     1.008   -6.716085    2.535190   -2.591242
  11 H     1.0000    0     1.008   -4.700849    4.685999   -0.991033
  12 C     6.0000    0    12.011   -5.932543   -1.605560    0.462650
  13 H     1.0000    0     1.008   -3.780600    1.314093    2.247761
  14 H     1.0000    0     1.008   -7.625721   -1.270216    1.583367
  15 H     1.0000    0     1.008   -6.528724   -2.208819   -1.415938
  16 H     1.0000    0     1.008   -4.902214   -3.151574    1.347380
  17 C     6.0000    0    12.011   -1.692087    0.773222   -3.348764
  18 C     6.0000    0    12.011    0.824144    0.363181   -4.266529
  19 H     1.0000    0     1.008   -3.196188    1.515951   -4.529255
  20 C     6.0000    0    12.011    2.803903    0.393274   -2.511739
  21 C     6.0000    0    12.011    5.120591   -0.237244   -3.760832
  22 S    16.0000    0    32.060    1.743507   -0.415912   -7.228469
  23 C     6.0000    0    12.011    4.829221   -0.719636   -6.264696
  24 H     1.0000    0     1.008    2.845194    2.256984   -1.210624
  25 H     1.0000    0     1.008    6.942304   -0.226859   -2.839085
  26 H     1.0000    0     1.008    6.269369   -1.190007   -7.630616
  27 H     1.0000    0     1.008   -1.376703   -6.066571   -0.431241
  28 H     1.0000    0     1.008   -1.450766   -4.518722    4.463029
  29 H     1.0000    0     1.008    3.216483   -2.858408    5.609728
  30 O     8.0000    0    15.999    2.656652    4.626008    0.284287
  31 O     8.0000    0    15.999    1.043035    1.828286    2.981738
  32 C     6.0000    0    12.011    1.814180    4.049693    2.379050
  33 C     6.0000    0    12.011    1.689785    5.976104    4.463254
  34 H     1.0000    0     1.008    1.636031    7.880340    3.697114
  35 H     1.0000    0     1.008    3.385370    5.811576    5.626692
  36 H     1.0000    0     1.008    0.071257    5.661733    5.690929
  37 H     1.0000    0     1.008    6.206159   -3.540720    1.584995
  38 H     1.0000    0     1.008    3.319662   -5.486999   -2.196333
* core charge reduced due to ECP

--------------------------------
INTERNAL COORDINATES (ANGSTROEM)
--------------------------------
 Ir     0   0   0     0.000000000000     0.00000000     0.00000000
 C      1   0   0     2.175497437641     0.00000000     0.00000000
 C      2   1   0     1.437191408272    70.56545920     0.00000000
 C      1   2   3     2.167787312833    64.17574545    80.49533096
 C      2   1   3     1.409397146276    70.80005343   241.36622277
 C      4   1   2     1.413151795394    71.60243121   280.20328787
 N      1   2   3     2.104481340884   100.82961263   248.81934033
 C      7   1   2     1.470538297941   123.07632576    82.10277119
 C      8   7   1     1.521064830721   113.62521552   152.00073865
 H      9   8   7     1.089105034688   108.87674280   189.65813274
 H      9   8   7     1.090898150714   112.85897421    71.60177483
 H      9   8   7     1.090237181133   111.97821846   308.27043532
 C      8   7   1     1.524674665439   109.35739241   277.55798210
 H      8   7   1     1.090799738791   104.74600969    33.80926460
 H     13   8   7     1.089035284571   109.68117530   175.56127255
 H     13   8   7     1.090725135842   111.26814393   294.77160848
 H     13   8   7     1.088929016882   111.96942372    56.34449046
 C      7   1   2     1.279928909899   114.61963072   262.37427069
 C     18   7   1     1.438632441190   114.87609834   353.82910320
 H     18   7   1     1.085451932845   122.65516721   176.45515126
 C     19  18   7     1.399605300630   118.05773983   337.31014823
 C     21  19  18     1.431465605051   109.62799408   175.65636112
 S     19  18   7     1.692230916157   128.19701917   151.63783543
 C     22  21  19     1.358348764467   113.23700847   359.50203127
 H     21  19  18     1.202551259505   113.69924276   307.31403039
 H     22  21  19     1.080357371409   123.72606565   176.11392569
 H     24  22  21     1.079411499271   128.05250193   178.40310699
 H      2   1   3     1.080542085768   123.94341891   120.83594746
 H      3   2   1     1.079484516185   126.72260736   121.80821551
 H      6   4   1     1.080772751118   125.51049233   244.33947317
 O     25  21  19     1.499999997206   174.44790926    23.49031800
 O      1   2   3     2.049678478778   143.09577760   342.86599280
 C     31  25  21     1.232952994425   108.50255973    80.72074381
 C     33  31  25     1.503310681448   120.47184497   172.58496666
 H     34  33  31     1.086549010086   110.87235735    23.86445011
 H     34  33  31     1.091650248682   108.88597263   265.40856354
 H     34  33  31     1.087792883552   111.64957962   147.06146861
 H      4   1   2     1.079255219493   125.55377354   158.64135819
 H      5   2   1     1.080021397707   125.98256431   240.39019038

---------------------------
INTERNAL COORDINATES (A.U.)
---------------------------
 Ir     0   0   0     0.000000000000     0.00000000     0.00000000
 C      1   0   0     4.111094362190     0.00000000     0.00000000
 C      2   1   0     2.715898163658    70.56545920     0.00000000
 C      1   2   3     4.096524337843    64.17574545    80.49533096
 C      2   1   3     2.663374620392    70.80005343   241.36622277
 C      4   1   2     2.670469878954    71.60243121   280.20328787
 N      1   2   3     3.976893388218   100.82961263   248.81934033
 C      7   1   2     2.778914652551   123.07632576    82.10277119
 C      8   7   1     2.874395962002   113.62521552   152.00073865
 H      9   8   7     2.058110246635   108.87674280   189.65813274
 H      9   8   7     2.061498744851   112.85897421    71.60177483
 H      9   8   7     2.060249693360   111.97821846   308.27043532
 C      8   7   1     2.881217561007   109.35739241   277.55798210
 H      8   7   1     2.061312773268   104.74600969    33.80926460
 H     13   8   7     2.057978438016   109.68117530   175.56127255
 H     13   8   7     2.061171794125   111.26814393   294.77160848
 H     13   8   7     2.057777621187   111.96942372    56.34449046
 C      7   1   2     2.418715110598   114.61963072   262.37427069
 C     18   7   1     2.718621321224   114.87609834   353.82910320
 H     18   7   1     2.051206884612   122.65516721   176.45515126
 C     19  18   7     2.644870713776   118.05773983   337.31014823
 C     21  19  18     2.705077963675   109.62799408   175.65636112
 S     19  18   7     3.197852986891   128.19701917   151.63783543
 C     22  21  19     2.566907159192   113.23700847   359.50203127
 H     21  19  18     2.272492542467   113.69924276   307.31403039
 H     22  21  19     2.041579558726   123.72606565   176.11392569
 H     24  22  21     2.039792119427   128.05250193   178.40310699
 H      2   1   3     2.041928618277   123.94341891   120.83594746
 H      3   2   1     2.039930101398   126.72260736   121.80821551
 H      6   4   1     2.042364512618   125.51049233   244.33947317
 O     25  21  19     2.834589195602   174.44790926    23.49031800
 O      1   2   3     3.873330987482   143.09577760   342.86599280
 C     31  25  21     2.329943495461   108.50255973    80.72074381
 C     33  31  25     2.840845482135   120.47184497   172.58496666
 H     34  33  31     2.053280060145   110.87235735    23.86445011
 H     34  33  31     2.062920004036   108.88597263   265.40856354
 H     34  33  31     2.055630640341   111.64957962   147.06146861
 H      4   1   2     2.039496793447   125.55377354   158.64135819
 H      5   2   1     2.040944660441   125.98256431   240.39019038

---------------------
BASIS SET INFORMATION
---------------------
There are 6 groups of distinct atoms

 Group   1 Type Ir  : 7s6p5d1f contracted to 6s3p2d1f pattern {211111/411/41/1}
 Group   2 Type C   : 8s4p1d contracted to 4s2p1d pattern {5111/31/1}
 Group   3 Type N   : 8s4p1d contracted to 4s2p1d pattern {5111/31/1}
 Group   4 Type H   : 4s contracted to 2s pattern {31}
 Group   5 Type S   : 10s7p1d contracted to 4s3p1d pattern {5311/511/1}
 Group   6 Type O   : 8s4p1d contracted to 4s2p1d pattern {5111/31/1}

Atom   0Ir   basis set group =>   1
Atom   1C    basis set group =>   2
Atom   2C    basis set group =>   2
Atom   3C    basis set group =>   2
Atom   4C    basis set group =>   2
Atom   5C    basis set group =>   2
Atom   6N    basis set group =>   3
Atom   7C    basis set group =>   2
Atom   8C    basis set group =>   2
Atom   9H    basis set group =>   4
Atom  10H    basis set group =>   4
Atom  11H    basis set group =>   4
Atom  12C    basis set group =>   2
Atom  13H    basis set group =>   4
Atom  14H    basis set group =>   4
Atom  15H    basis set group =>   4
Atom  16H    basis set group =>   4
Atom  17C    basis set group =>   2
Atom  18C    basis set group =>   2
Atom  19H    basis set group =>   4
Atom  20C    basis set group =>   2
Atom  21C    basis set group =>   2
Atom  22S    basis set group =>   5
Atom  23C    basis set group =>   2
Atom  24H    basis set group =>   4
Atom  25H    basis set group =>   4
Atom  26H    basis set group =>   4
Atom  27H    basis set group =>   4
Atom  28H    basis set group =>   4
Atom  29H    basis set group =>   4
Atom  30O    basis set group =>   6
Atom  31O    basis set group =>   6
Atom  32C    basis set group =>   2
Atom  33C    basis set group =>   2
Atom  34H    basis set group =>   4
Atom  35H    basis set group =>   4
Atom  36H    basis set group =>   4
Atom  37H    basis set group =>   4
Atom  38H    basis set group =>   4
---------------------------------
AUXILIARY/J BASIS SET INFORMATION
---------------------------------
There are 6 groups of distinct atoms

 Group   1 Type Ir  : 11s5p5d3f3g contracted to 8s5p5d2f3g pattern {41111111/11111/11111/21/111}
 Group   2 Type C   : 12s5p4d2f1g contracted to 6s4p3d1f1g pattern {711111/2111/211/2/1}
 Group   3 Type N   : 12s5p4d2f1g contracted to 6s4p3d1f1g pattern {711111/2111/211/2/1}
 Group   4 Type H   : 5s2p1d contracted to 3s1p1d pattern {311/2/1}
 Group   5 Type S   : 14s5p5d2f1g contracted to 8s4p3d1f1g pattern {71111111/2111/311/2/1}
 Group   6 Type O   : 12s5p4d2f1g contracted to 6s4p3d1f1g pattern {711111/2111/211/2/1}

Atom   0Ir   basis set group =>   1
Atom   1C    basis set group =>   2
Atom   2C    basis set group =>   2
Atom   3C    basis set group =>   2
Atom   4C    basis set group =>   2
Atom   5C    basis set group =>   2
Atom   6N    basis set group =>   3
Atom   7C    basis set group =>   2
Atom   8C    basis set group =>   2
Atom   9H    basis set group =>   4
Atom  10H    basis set group =>   4
Atom  11H    basis set group =>   4
Atom  12C    basis set group =>   2
Atom  13H    basis set group =>   4
Atom  14H    basis set group =>   4
Atom  15H    basis set group =>   4
Atom  16H    basis set group =>   4
Atom  17C    basis set group =>   2
Atom  18C    basis set group =>   2
Atom  19H    basis set group =>   4
Atom  20C    basis set group =>   2
Atom  21C    basis set group =>   2
Atom  22S    basis set group =>   5
Atom  23C    basis set group =>   2
Atom  24H    basis set group =>   4
Atom  25H    basis set group =>   4
Atom  26H    basis set group =>   4
Atom  27H    basis set group =>   4
Atom  28H    basis set group =>   4
Atom  29H    basis set group =>   4
Atom  30O    basis set group =>   6
Atom  31O    basis set group =>   6
Atom  32C    basis set group =>   2
Atom  33C    basis set group =>   2
Atom  34H    basis set group =>   4
Atom  35H    basis set group =>   4
Atom  36H    basis set group =>   4
Atom  37H    basis set group =>   4
Atom  38H    basis set group =>   4
-------------------------
ECP PARAMETER INFORMATION
-------------------------

 Group 1, Type Ir ECP Def2-ECP (replacing 60 core electrons, lmax=3)

Atom   0Ir   ECP group =>   1

------------------------------------------------------------------------------
                           ORCA GTO INTEGRAL CALCULATION
                           -- RI-GTO INTEGRALS CHOSEN --
------------------------------------------------------------------------------
------------------------------------------------------------------------------
                   ___                                                        
                  /   \      - P O W E R E D   B Y -                         
                 /     \                                                     
                 |  |  |   _    _      __       _____    __    __             
                 |  |  |  | |  | |    /  \     |  _  \  |  |  /  |          
                  \  \/   | |  | |   /    \    | | | |  |  | /  /          
                 / \  \   | |__| |  /  /\  \   | |_| |  |  |/  /          
                |  |  |   |  __  | /  /__\  \  |    /   |      \           
                |  |  |   | |  | | |   __   |  |    \   |  |\   \          
                \     /   | |  | | |  |  |  |  | |\  \  |  | \   \       
                 \___/    |_|  |_| |__|  |__|  |_| \__\ |__|  \__/        
                                                                              
                      - O R C A' S   B I G   F R I E N D -                    
                                      &                                       
                       - I N T E G R A L  F E E D E R -                       
                                                                              
 v1 FN, 2020, v2 2021                                                         
------------------------------------------------------------------------------


Reading SHARK input file reaction4-IEIP_ts_guess_scan_11-1_orca.SHARKINP.tmp ... ok
----------------------
SHARK INTEGRAL PACKAGE
----------------------

Number of atoms                             ...     39
Number of basis functions                   ...    358
Number of shells                            ...    184
Maximum angular momentum                    ...      3
Integral batch strategy                     ... SHARK/LIBINT Hybrid
RI-J (if used) integral strategy            ... SPLIT-RIJ (Revised 2003 algorithm where possible)
Printlevel                                  ...      1
Contraction scheme used                     ... SEGMENTED contraction
Coulomb Range Separation                    ... NOT USED
Exchange Range Separation                   ... NOT USED
Finite Nucleus Model                        ... NOT USED
Auxiliary Coulomb fitting basis             ... AVAILABLE
   # of basis functions in Aux-J            ...   1231
   # of shells in Aux-J                     ...    405
   Maximum angular momentum in Aux-J        ...      4
Auxiliary J/K fitting basis                 ... NOT available
Auxiliary Correlation fitting basis         ... NOT available
Auxiliary 'external' fitting basis          ... NOT available
Integral threshold                          ...     2.500000e-11
Primitive cut-off                           ...     2.500000e-12
Primitive pair pre-selection threshold      ...     2.500000e-12

Calculating pre-screening integrals         ... done (  0.1 sec) Dimension = 184
Organizing shell pair data                  ... done (  0.1 sec)
Shell pair information
Total number of shell pairs                 ...     17020
Shell pairs after pre-screening             ...     13029
Total number of primitive shell pairs       ...     60705
Primitive shell pairs kept                  ...     29334
          la=0 lb=0:   4996 shell pairs
          la=1 lb=0:   4270 shell pairs
          la=1 lb=1:    859 shell pairs
          la=2 lb=0:   1754 shell pairs
          la=2 lb=1:    792 shell pairs
          la=2 lb=2:    181 shell pairs
          la=3 lb=0:    113 shell pairs
          la=3 lb=1:     42 shell pairs
          la=3 lb=2:     21 shell pairs
          la=3 lb=3:      1 shell pairs

Calculating one electron integrals          ... done (  0.1 sec)
Calculating ECP integrals                   ... done (  0.7 sec)
Calculating RI/J V-Matrix + Cholesky decomp.... done (  0.1 sec)
Calculating Nuclear repulsion               ... done (  0.0 sec) ENN=   2045.216919013430 Eh

SHARK setup successfully completed in   1.3 seconds

Maximum memory used throughout the entire GTOINT-calculation: 91.5 MB
-------------------------------------------------------------------------------
                                 ORCA SCF
-------------------------------------------------------------------------------

------------
SCF SETTINGS
------------
Hamiltonian:
 Density Functional     Method          .... DFT(GTOs)
 Exchange Functional    Exchange        .... PBE
   PBE kappa parameter   XKappa         ....  1.024500
   PBE mue parameter    XMuePBE         ....  0.123457
 Correlation Functional Correlation     .... PBE
   PBE beta parameter  CBetaPBE         ....  0.030000
 LDA part of GGA corr.  LDAOpt          .... PW91-LDA
 Gradients option       PostSCFGGA      .... off
 Hybrid DFT is turned on
   Fraction HF Exchange ScalHFX         ....  0.420000
   Scaling of DF-GGA-X  ScalDFX         ....  0.580000
   Scaling of DF-GGA-C  ScalDFC         ....  1.000000
   Scaling of DF-LDA-C  ScalLDAC        ....  1.000000
   Perturbative correction              ....  0.000000
   Density functional embedding theory  .... OFF
 RI-approximation to the Coulomb term is turned on
   Number of AuxJ basis functions       .... 1231
   RIJ-ON(X) (HFX calculated with O(N)) .... on
   Number of AuxJ basis functions       .... 1231
   RIJ-COSX (HFX calculated with COS-X)).... on


General Settings:
 Integral files         IntName         .... reaction4-IEIP_ts_guess_scan_11-1_orca
 Hartree-Fock type      HFTyp           .... RHF
 Total Charge           Charge          ....    1
 Multiplicity           Mult            ....    1
 Number of Electrons    NEL             ....  164
 Basis Dimension        Dim             ....  358
 Nuclear Repulsion      ENuc            ....   2045.2169190134 Eh

Convergence Acceleration:
 DIIS                   CNVDIIS         .... on
   Start iteration      DIISMaxIt       ....    12
   Startup error        DIISStart       ....  0.200000
   # of expansion vecs  DIISMaxEq       ....     5
   Bias factor          DIISBfac        ....   1.050
   Max. coefficient     DIISMaxC        ....  10.000
 Trust-Rad. Augm. Hess. CNVTRAH         .... auto
   Auto Start mean grad. ratio tolernc. ....  1.125000
   Auto Start start iteration           ....    20
   Auto Start num. interpolation iter.  ....    10
   Max. Number of Micro iterations      ....    16
   Max. Number of Macro iterations      .... Maxiter - #DIIS iter
   Number of Davidson start vectors     ....     2
   Converg. threshold I  (grad. norm)   ....   1.000e-05
   Converg. threshold II (energy diff.) ....   1.000e-08
   Grad. Scal. Fac. for Micro threshold ....   0.100
   Minimum threshold for Micro iter.    ....   0.010
   NR start threshold (gradient norm)   ....   0.001
   Initial trust radius                 ....   0.400
   Minimum AH scaling param. (alpha)    ....   1.000
   Maximum AH scaling param. (alpha)    .... 1000.000
   Orbital update algorithm             .... Taylor
   White noise on init. David. guess    .... on
   Maximum white noise                  ....   0.010
   Quad. conv. algorithm                .... NR
   COSX micro iterations for RIJONX calc.... off
 SOSCF                  CNVSOSCF        .... off
 Level Shifting         CNVShift        .... on
   Level shift para.    LevelShift      ....    0.2500
   Turn off err/grad.   ShiftErr        ....    0.0010
 Zerner damping         CNVZerner       .... off
 Static damping         CNVDamp         .... on
   Fraction old density DampFac         ....    0.7000
   Max. Damping (<1)    DampMax         ....    0.9800
   Min. Damping (>=0)   DampMin         ....    0.0000
   Turn off err/grad.   DampErr         ....    0.1000
 Fernandez-Rico         CNVRico         .... off

SCF Procedure:
 Maximum # iterations   MaxIter         ....   250
 SCF integral mode      SCFMode         .... Direct
   Integral package                     .... SHARK and LIBINT hybrid scheme
 Reset frequency        DirectResetFreq ....    20
 Integral Threshold     Thresh          ....  2.500e-11 Eh
 Primitive CutOff       TCut            ....  2.500e-12 Eh

Convergence Tolerance:
 Convergence Check Mode ConvCheckMode   .... Total+1el-Energy
 Convergence forced     ConvForced      .... 0
 Energy Change          TolE            ....  1.000e-08 Eh
 1-El. energy change                    ....  1.000e-05 Eh
 DIIS Error             TolErr          ....  5.000e-07


Diagonalization of the overlap matrix:
Smallest eigenvalue                        ... 1.239e-03
Time for diagonalization                   ...    0.034 sec
Threshold for overlap eigenvalues          ... 1.000e-08
Number of eigenvalues below threshold      ... 0
Time for construction of square roots      ...    0.011 sec
Total time needed                          ...    0.047 sec

--------------------
INITIAL GUESS: HCORE
--------------------
                      -----------------
                      INTIAL GUESS DONE 
                      -----------------
-------------------
DFT GRID GENERATION
-------------------

General Integration Accuracy     IntAcc      ... 4.159
Radial Grid Type                 RadialGrid  ... OptM3 with GC (2021)
Angular Grid (max. ang.)         AngularGrid ... 3 (Lebedev-194)
Angular grid pruning method      GridPruning ... 4 (adaptive)
Weight generation scheme         WeightScheme... Becke
Basis function cutoff            BFCut       ... 1.0000e-11
Integration weight cutoff        WCut        ... 1.0000e-14
Angular grids for H and He will be reduced by one unit
Partially contracted basis set               ... off
Rotationally invariant grid construction     ... off

Total number of grid points                  ...    93239
Total number of batches                      ...     1478
Average number of points per batch           ...       63
Average number of grid points per atom       ...     2391
Time for grid setup =    1.676 sec

--------------------
COSX GRID GENERATION
--------------------

GRIDX 1
-------
General Integration Accuracy     IntAcc      ... 3.816
Radial Grid Type                 RadialGrid  ... OptM3 with GC (2021)
Angular Grid (max. ang.)         AngularGrid ... 1 (Lebedev-50)
Angular grid pruning method      GridPruning ... 4 (adaptive)
Weight generation scheme         WeightScheme... Becke
Basis function cutoff            BFCut       ... 1.0000e-11
Integration weight cutoff        WCut        ... 1.0000e-14
Angular grids for H and He will be reduced by one unit
Partially contracted basis set               ... on
Rotationally invariant grid construction     ... off

Total number of grid points                  ...    23162
Total number of batches                      ...      381
Average number of points per batch           ...       60
Average number of grid points per atom       ...      594
UseSFitting                                  ... on

GRIDX 2
-------
General Integration Accuracy     IntAcc      ... 4.020
Radial Grid Type                 RadialGrid  ... OptM3 with GC (2021)
Angular Grid (max. ang.)         AngularGrid ... 2 (Lebedev-110)
Angular grid pruning method      GridPruning ... 4 (adaptive)
Weight generation scheme         WeightScheme... Becke
Basis function cutoff            BFCut       ... 1.0000e-11
Integration weight cutoff        WCut        ... 1.0000e-14
Angular grids for H and He will be reduced by one unit
Partially contracted basis set               ... on
Rotationally invariant grid construction     ... off

Total number of grid points                  ...    50288
Total number of batches                      ...      806
Average number of points per batch           ...       62
Average number of grid points per atom       ...     1289
UseSFitting                                  ... on

GRIDX 3
-------
General Integration Accuracy     IntAcc      ... 4.338
Radial Grid Type                 RadialGrid  ... OptM3 with GC (2021)
Angular Grid (max. ang.)         AngularGrid ... 3 (Lebedev-194)
Angular grid pruning method      GridPruning ... 4 (adaptive)
Weight generation scheme         WeightScheme... Becke
Basis function cutoff            BFCut       ... 1.0000e-11
Integration weight cutoff        WCut        ... 1.0000e-14
Angular grids for H and He will be reduced by one unit
Partially contracted basis set               ... on
Rotationally invariant grid construction     ... off

Total number of grid points                  ...   108690
Total number of batches                      ...     1717
Average number of points per batch           ...       63
Average number of grid points per atom       ...     2787
UseSFitting                                  ... on

Time for X-Grid setup             =    4.330 sec

--------------
SCF ITERATIONS
--------------
ITER       Energy         Delta-E        Max-DP      RMS-DP      [F,P]     Damp
               ***  Starting incremental Fock matrix formation  ***
  0   -845.5191572118   0.00000000000020.52723482  0.15178934  2.7651279 0.7000
  1  -1086.2436697090-240.72451249714710.60920103  0.13868810  1.4746559 0.7000
  2  -1156.0136688847 -69.769999175701 5.59273130  0.07141787  1.0619033 0.7000
  3  -1183.0969119005 -27.083243015790 3.88108925  0.04815745  0.7743168 0.7000
  4  -1204.1972666888 -21.100354788299 2.73817999  0.03928260  0.4644942 0.7000
  5  -1218.0521453787 -13.854878689976 2.47883539  0.03336536  0.3695175 0.7000
  6  -1228.5378701924 -10.485724813671 1.68269890  0.02943321  0.3393128 0.7000
  7  -1236.7794282171  -8.241558024696 1.87757031  0.02784123  0.3196912 0.7000
  8  -1242.3647200905  -5.585291873336 1.72005517  0.02608896  0.3717964 0.7000
  9  -1248.0187336229  -5.654013532406 1.44331892  0.02438249  0.3384970 0.7000
 10  -1251.3843872160  -3.365653593124 1.51110754  0.02730509  0.3717422 0.7000
 11  -1253.3329179318  -1.948530715768 1.43042391  0.02367896  0.3422997 0.7000
                               ***Turning on DIIS***
 12  -1256.2744325590  -2.941514627257 1.52011908  0.02465388  0.3693124 0.7000
 13  -1257.9249949359  -1.650562376939 1.36195068  0.01978484  0.3135175 0.7000
 14  -1267.6727786126  -9.747783676675 0.92686453  0.01407283  0.2129985 0.7000
 15  -1274.1372564360  -6.464477823428 0.64156947  0.00997199  0.1293800 0.7000
 16  -1278.5234057144  -4.386149278363 1.49119416  0.02345035  0.0752921 0.0000
 17  -1288.2380552327  -9.714649518258 0.04555120  0.00130971  0.0883573 0.0000
 18  -1288.3860068520  -0.147951619329 0.05874084  0.00111969  0.0431404 0.0000
 19  -1288.4295669527  -0.043560100669 0.04178822  0.00060909  0.0248075 0.0000
               *** Restarting incremental Fock matrix formation ***
                                   *** Resetting DIIS ***
 20  -1288.4436927399  -0.014125787264 0.03540636  0.00044071  0.0147387 0.0000
 21  -1288.4449784729  -0.001285733013 0.01654435  0.00018448  0.0160554 0.0000
 22  -1288.4471234773  -0.002145004311 0.00475257  0.00009467  0.0038979 0.0000
 23  -1288.4474069913  -0.000283514011 0.00494260  0.00004912  0.0019988 0.0000
 24  -1288.4475016938  -0.000094702565 0.00370565  0.00006028  0.0008664 0.0000
               *** Restarting incremental Fock matrix formation ***
                                   *** Resetting DIIS ***
 25  -1288.4483879509  -0.000886257024 0.00458986  0.00009182  0.0006230 0.0000
 26  -1288.4484080617  -0.000020110846 0.00125337  0.00001762  0.0005784 0.0000
 27  -1288.4484076742   0.000000387470 0.00086300  0.00001052  0.0006159 0.0000
 28  -1288.4484115058  -0.000003831611 0.00042698  0.00000369  0.0001923 0.0000
 29  -1288.4484117965  -0.000000290664 0.00022935  0.00000238  0.0001097 0.0000
 30  -1288.4484119289  -0.000000132366 0.00008418  0.00000120  0.0000336 0.0000
 31  -1288.4484119595  -0.000000030631 0.00005314  0.00000070  0.0000193 0.0000
 32  -1288.4484119642  -0.000000004666 0.00002755  0.00000033  0.0000133 0.0000
 33  -1288.4484119600   0.000000004165 0.00000952  0.00000010  0.0000043 0.0000
 34  -1288.4484119580   0.000000001986 0.00000758  0.00000006  0.0000027 0.0000
 35  -1288.4484119671  -0.000000009053 0.00000354  0.00000003  0.0000024 0.0000
 36  -1288.4484119603   0.000000006746 0.00000191  0.00000002  0.0000010 0.0000
                 **** Energy Check signals convergence ****

               *****************************************************
               *                     SUCCESS                       *
               *           SCF CONVERGED AFTER  37 CYCLES          *
               *****************************************************

Old exchange energy                            =    -59.659282057 Eh
New exchange energy                            =    -59.659240387 Eh
Exchange energy change after final integration =      0.000041669 Eh
Total energy after final integration           =  -1288.448370286 Eh
Final COS-X integration done in                =    57.615 sec

----------------
TOTAL SCF ENERGY
----------------

Total Energy       :        -1288.44837029 Eh          -35060.46259 eV

Components:
Nuclear Repulsion  :         2045.21691901 Eh           55653.18172 eV
Electronic Energy  :        -3333.66528930 Eh          -90713.64431 eV
One Electron Energy:        -5845.89570781 Eh         -159074.90942 eV
Two Electron Energy:         2512.23041851 Eh           68361.26511 eV
Max COSX asymmetry :            0.00001497 Eh               0.00041 eV

Virial components:
Potential Energy   :        -2501.59361891 Eh          -68071.82308 eV
Kinetic Energy     :         1213.14524862 Eh           33011.36048 eV
Virial Ratio       :            2.06207263


DFT components:
N(Alpha)           :       82.000280164051 electrons
N(Beta)            :       82.000280164051 electrons
N(Total)           :      164.000560328102 electrons
E(X)               :      -79.600688014564 Eh       
E(C)               :       -7.460367833806 Eh       
E(XC)              :      -87.061055848371 Eh       
DFET-embed. en.    :        0.000000000000 Eh       

---------------
SCF CONVERGENCE
---------------

  Last Energy change         ...    4.9274e-09  Tolerance :   1.0000e-08
  Last MAX-Density change    ...    0.0000e+00  Tolerance :   1.0000e-07
  Last RMS-Density change    ...    0.0000e+00  Tolerance :   5.0000e-09
  Last DIIS Error            ...    4.0428e-07  Tolerance :   5.0000e-07

             **** THE GBW FILE WAS UPDATED (reaction4-IEIP_ts_guess_scan_11-1_orca.gbw) ****
             **** DENSITY reaction4-IEIP_ts_guess_scan_11-1_orca.scfp WAS UPDATED ****
             **** ENERGY FILE WAS UPDATED (reaction4-IEIP_ts_guess_scan_11-1_orca.en.tmp) ****
             **** THE GBW FILE WAS UPDATED (reaction4-IEIP_ts_guess_scan_11-1_orca.gbw) ****
             **** DENSITY reaction4-IEIP_ts_guess_scan_11-1_orca.scfp WAS UPDATED ****
----------------
ORBITAL ENERGIES
----------------

  NO   OCC          E(Eh)            E(eV) 
   0   2.0000     -89.770908     -2442.7906 
   1   2.0000     -19.623813      -533.9911 
   2   2.0000     -19.597732      -533.2814 
   3   2.0000     -14.839962      -403.8159 
   4   2.0000     -10.682224      -290.6781 
   5   2.0000     -10.659512      -290.0601 
   6   2.0000     -10.636196      -289.4256 
   7   2.0000     -10.629738      -289.2499 
   8   2.0000     -10.628652      -289.2203 
   9   2.0000     -10.624337      -289.1029 
  10   2.0000     -10.620261      -288.9920 
  11   2.0000     -10.619931      -288.9830 
  12   2.0000     -10.614609      -288.8382 
  13   2.0000     -10.614123      -288.8250 
  14   2.0000     -10.593060      -288.2518 
  15   2.0000     -10.589278      -288.1489 
  16   2.0000     -10.555667      -287.2343 
  17   2.0000     -10.551601      -287.1237 
  18   2.0000     -10.535217      -286.6778 
  19   2.0000      -8.410292      -228.8557 
  20   2.0000      -6.300163      -171.4362 
  21   2.0000      -6.296551      -171.3379 
  22   2.0000      -6.295320      -171.3044 
  23   2.0000      -4.023849      -109.4945 
  24   2.0000      -2.341842       -63.7248 
  25   2.0000      -2.309681       -62.8496 
  26   2.0000      -2.307743       -62.7969 
  27   2.0000      -1.308591       -35.6086 
  28   2.0000      -1.215824       -33.0843 
  29   2.0000      -1.210185       -32.9308 
  30   2.0000      -1.164840       -31.6969 
  31   2.0000      -1.133324       -30.8393 
  32   2.0000      -1.029041       -28.0016 
  33   2.0000      -0.978187       -26.6178 
  34   2.0000      -0.974920       -26.5289 
  35   2.0000      -0.970925       -26.4202 
  36   2.0000      -0.963816       -26.2268 
  37   2.0000      -0.928511       -25.2661 
  38   2.0000      -0.902248       -24.5514 
  39   2.0000      -0.876736       -23.8572 
  40   2.0000      -0.802827       -21.8460 
  41   2.0000      -0.786592       -21.4043 
  42   2.0000      -0.781222       -21.2581 
  43   2.0000      -0.780159       -21.2292 
  44   2.0000      -0.765723       -20.8364 
  45   2.0000      -0.756694       -20.5907 
  46   2.0000      -0.744095       -20.2479 
  47   2.0000      -0.725671       -19.7465 
  48   2.0000      -0.692077       -18.8324 
  49   2.0000      -0.678220       -18.4553 
  50   2.0000      -0.666049       -18.1241 
  51   2.0000      -0.650429       -17.6991 
  52   2.0000      -0.647039       -17.6068 
  53   2.0000      -0.635548       -17.2942 
  54   2.0000      -0.633534       -17.2393 
  55   2.0000      -0.629033       -17.1168 
  56   2.0000      -0.622785       -16.9468 
  57   2.0000      -0.615410       -16.7462 
  58   2.0000      -0.603261       -16.4156 
  59   2.0000      -0.600927       -16.3521 
  60   2.0000      -0.600549       -16.3418 
  61   2.0000      -0.593109       -16.1393 
  62   2.0000      -0.583429       -15.8759 
  63   2.0000      -0.576242       -15.6803 
  64   2.0000      -0.564889       -15.3714 
  65   2.0000      -0.558269       -15.1913 
  66   2.0000      -0.552017       -15.0212 
  67   2.0000      -0.548512       -14.9258 
  68   2.0000      -0.542064       -14.7503 
  69   2.0000      -0.537177       -14.6173 
  70   2.0000      -0.529466       -14.4075 
  71   2.0000      -0.519565       -14.1381 
  72   2.0000      -0.515238       -14.0203 
  73   2.0000      -0.499537       -13.5931 
  74   2.0000      -0.488488       -13.2924 
  75   2.0000      -0.484875       -13.1941 
  76   2.0000      -0.478526       -13.0213 
  77   2.0000      -0.446740       -12.1564 
  78   2.0000      -0.443159       -12.0590 
  79   2.0000      -0.424458       -11.5501 
  80   2.0000      -0.415117       -11.2959 
  81   2.0000      -0.396139       -10.7795 
  82   0.0000      -0.209979        -5.7138 
  83   0.0000      -0.143704        -3.9104 
  84   0.0000      -0.139598        -3.7986 
  85   0.0000      -0.093844        -2.5536 
[...]

----------------------
LOEWDIN ATOMIC CHARGES
----------------------
   0 Ir:   -0.254520
   1 C :   -0.053358
   2 C :   -0.090197
   3 C :   -0.087264
   4 C :   -0.047448
   5 C :   -0.015360
   6 N :    0.003354
   7 C :   -0.070389
   8 C :   -0.362459
   9 H :    0.156722
  10 H :    0.132635
  11 H :    0.145444
  12 C :   -0.343414
  13 H :    0.156885
  14 H :    0.151849
  15 H :    0.137389
  16 H :    0.133620
  17 C :    0.029044
  18 C :   -0.171412
  19 H :    0.162150
  20 C :   -0.216009
  21 C :   -0.117476
  22 S :    0.503331
  23 C :   -0.260993
  24 H :    0.327751
  25 H :    0.164465
  26 H :    0.170039
  27 H :    0.182231
  28 H :    0.180965
  29 H :    0.190359
  30 O :   -0.266162
  31 O :   -0.199197
  32 C :    0.152428
  33 C :   -0.374290
  34 H :    0.160483
  35 H :    0.168739
  36 H :    0.153627
  37 H :    0.182539
  38 H :    0.183898

-------------------------------
LOEWDIN REDUCED ORBITAL CHARGES
-------------------------------
  0 Irs       :     2.445593  s :     2.445593
      pz      :     2.253258  p :     6.773177
      px      :     2.251762
      py      :     2.268157
      dz2     :     1.780127  d :     7.944677
      dxz     :     1.681907
      dyz     :     1.366726
      dx2y2   :     1.606425
      dxy     :     1.509492
      f0      :     0.011329  f :     0.091073
      f+1     :     0.005007
      f-1     :     0.015328
      f+2     :     0.015550
      f-2     :     0.016619
      f+3     :     0.010937
      f-3     :     0.016303
  1 C s       :     2.874635  s :     2.874635
      pz      :     1.051993  p :     3.075318
      px      :     1.079297
      py      :     0.944028
      dz2     :     0.026097  d :     0.103405
      dxz     :     0.026055
      dyz     :     0.016778
      dx2y2   :     0.018657
      dxy     :     0.015819
  2 C s       :     2.875478  s :     2.875478
      pz      :     1.040301  p :     3.115721
      px      :     1.085426
      py      :     0.989994
      dz2     :     0.024552  d :     0.098998
      dxz     :     0.027892
      dyz     :     0.016560
      dx2y2   :     0.017323
      dxy     :     0.012671
  3 C s       :     2.871469  s :     2.871469
      pz      :     1.030215  p :     3.116226
      px      :     1.082779
      py      :     1.003232
      dz2     :     0.022650  d :     0.099569
      dxz     :     0.031449
      dyz     :     0.015438
      dx2y2   :     0.016018
      dxy     :     0.014015
  4 C s       :     2.874768  s :     2.874768
      pz      :     1.084705  p :     3.069464
      px      :     1.041980
      py      :     0.942779
      dz2     :     0.022683  d :     0.103216
      dxz     :     0.029795
      dyz     :     0.013095
      dx2y2   :     0.018968
      dxy     :     0.018675
  5 C s       :     2.879553  s :     2.879553
      pz      :     1.053195  p :     3.031074
      px      :     1.038970
      py      :     0.938909
      dz2     :     0.022644  d :     0.104733
      dxz     :     0.031023
      dyz     :     0.015963
      dx2y2   :     0.015780
      dxy     :     0.019323
  6 N s       :     3.124248  s :     3.124248
      pz      :     1.252958  p :     3.773600
      px      :     1.291010
      py      :     1.229632
      dz2     :     0.030815  d :     0.098798
      dxz     :     0.027497
      dyz     :     0.018940
      dx2y2   :     0.011706
      dxy     :     0.009840
  7 C s       :     2.862618  s :     2.862618
      pz      :     1.057152  p :     3.073450
      px      :     0.940842
      py      :     1.075456
      dz2     :     0.026615  d :     0.134321
      dxz     :     0.029722
      dyz     :     0.015036
      dx2y2   :     0.029668
      dxy     :     0.033280
  8 C s       :     2.953448  s :     2.953448
      pz      :     1.136348  p :     3.341579
      px      :     1.124205
      py      :     1.081026
      dz2     :     0.013864  d :     0.067432
      dxz     :     0.017683
      dyz     :     0.006844
      dx2y2   :     0.009973
      dxy     :     0.019068
  9 H s       :     0.843278  s :     0.843278
 10 H s       :     0.867365  s :     0.867365
 11 H s       :     0.854556  s :     0.854556
 12 C s       :     2.953563  s :     2.953563
      pz      :     1.144469  p :     3.321916
      px      :     1.108184
      py      :     1.069263
      dz2     :     0.013179  d :     0.067935
      dxz     :     0.014554
      dyz     :     0.010126
      dx2y2   :     0.011666
      dxy     :     0.018410
 13 H s       :     0.843115  s :     0.843115
 14 H s       :     0.848151  s :     0.848151
 15 H s       :     0.862611  s :     0.862611
 16 H s       :     0.866380  s :     0.866380
 17 C s       :     2.876333  s :     2.876333
      pz      :     1.012956  p :     2.954890
      px      :     1.059976
      py      :     0.881957
      dz2     :     0.039806  d :     0.139733
      dxz     :     0.049083
      dyz     :     0.025775
      dx2y2   :     0.012111
      dxy     :     0.012958
 18 C s       :     2.894171  s :     2.894171
      pz      :     1.053098  p :     3.164638
      px      :     1.089205
      py      :     1.022335
      dz2     :     0.033243  d :     0.112604
      dxz     :     0.033597
      dyz     :     0.018066
      dx2y2   :     0.015918
      dxy     :     0.011779
 19 H s       :     0.837850  s :     0.837850
 20 C s       :     2.888931  s :     2.888931
      pz      :     1.129134  p :     3.227100
      px      :     1.056650
      py      :     1.041316
      dz2     :     0.013633  d :     0.099978
      dxz     :     0.038142
      dyz     :     0.013268
      dx2y2   :     0.019093
      dxy     :     0.015842
 21 C s       :     2.897011  s :     2.897011
      pz      :     1.080266  p :     3.126259
      px      :     1.085405
      py      :     0.960587
      dz2     :     0.028179  d :     0.094206
      dxz     :     0.031742
      dyz     :     0.014224
      dx2y2   :     0.013014
      dxy     :     0.007047
 22 S s       :     5.498915  s :     5.498915
      pz      :     3.264520  p :     9.842090
      px      :     3.081946
      py      :     3.495624
      dz2     :     0.047443  d :     0.155664
      dxz     :     0.035938
      dyz     :     0.018690
      dx2y2   :     0.028721
      dxy     :     0.024872
 23 C s       :     2.963844  s :     2.963844
      pz      :     1.119654  p :     3.211761
      px      :     1.023167
      py      :     1.068941
      dz2     :     0.023430  d :     0.085387
      dxz     :     0.030732
      dyz     :     0.011895
      dx2y2   :     0.011151
      dxy     :     0.008179
 24 H s       :     0.672249  s :     0.672249
 25 H s       :     0.835535  s :     0.835535
 26 H s       :     0.829961  s :     0.829961
 27 H s       :     0.817769  s :     0.817769
 28 H s       :     0.819035  s :     0.819035
 29 H s       :     0.809641  s :     0.809641
 30 O s       :     3.514245  s :     3.514245
      pz      :     1.461930  p :     4.697554
      px      :     1.540792
      py      :     1.694832
      dz2     :     0.017544  d :     0.054363
      dxz     :     0.014291
      dyz     :     0.014539
      dx2y2   :     0.004592
      dxy     :     0.003397
 31 O s       :     3.446883  s :     3.446883
      pz      :     1.691128  p :     4.692890
      px      :     1.620891
      py      :     1.380871
      dz2     :     0.009182  d :     0.059425
      dxz     :     0.003838
      dyz     :     0.015936
      dx2y2   :     0.015303
      dxy     :     0.015165
 32 C s       :     2.814302  s :     2.814302
      pz      :     0.990369  p :     2.712451
      px      :     0.764804
      py      :     0.957278
      dz2     :     0.074004  d :     0.320820
      dxz     :     0.047078
      dyz     :     0.103369
      dx2y2   :     0.046795
      dxy     :     0.049574
 33 C s       :     2.959580  s :     2.959580
      pz      :     1.099882  p :     3.352054
      px      :     1.150871
      py      :     1.101302
      dz2     :     0.004615  d :     0.062655
      dxz     :     0.017393
      dyz     :     0.020108
      dx2y2   :     0.018356
      dxy     :     0.002183
 34 H s       :     0.839517  s :     0.839517
 35 H s       :     0.831261  s :     0.831261
 36 H s       :     0.846373  s :     0.846373
 37 H s       :     0.817461  s :     0.817461
 38 H s       :     0.816102  s :     0.816102


                      *****************************
                      * MAYER POPULATION ANALYSIS *
                      *****************************

  NA   - Mulliken gross atomic population
  ZA   - Total nuclear charge
  QA   - Mulliken gross atomic charge
  VA   - Mayer's total valence
  BVA  - Mayer's bonded valence
  FA   - Mayer's free valence

  ATOM       NA         ZA         QA         VA         BVA        FA
  0 Ir    16.3924    17.0000     0.6076     3.7542     3.7542     0.0000
  1 C      6.2310     6.0000    -0.2310     3.7190     3.7190     0.0000
  2 C      6.2632     6.0000    -0.2632     3.7343     3.7343    -0.0000
  3 C      6.2645     6.0000    -0.2645     3.7421     3.7421     0.0000
  4 C      6.2311     6.0000    -0.2311     3.7153     3.7153     0.0000
  5 C      6.1553     6.0000    -0.1553     3.6980     3.6980     0.0000
  6 N      7.4260     7.0000    -0.4260     3.2163     3.2163    -0.0000
  7 C      6.1293     6.0000    -0.1293     3.7023     3.7023     0.0000
  8 C      6.6827     6.0000    -0.6827     3.6862     3.6862    -0.0000
  9 H      0.7300     1.0000     0.2700     0.8972     0.8972     0.0000
 10 H      0.7764     1.0000     0.2236     0.9110     0.9110     0.0000
 11 H      0.7420     1.0000     0.2580     0.8988     0.8988    -0.0000
 12 C      6.6340     6.0000    -0.6340     3.6711     3.6711    -0.0000
 13 H      0.7165     1.0000     0.2835     0.8735     0.8735    -0.0000
 14 H      0.7389     1.0000     0.2611     0.8980     0.8980     0.0000
 15 H      0.7685     1.0000     0.2315     0.9097     0.9097     0.0000
 16 H      0.7665     1.0000     0.2335     0.9062     0.9062    -0.0000
 17 C      5.9277     6.0000     0.0723     3.6501     3.6501     0.0000
 18 C      6.1269     6.0000    -0.1269     3.7008     3.7008     0.0000
 19 H      0.7115     1.0000     0.2885     0.8865     0.8865     0.0000
 20 C      6.5686     6.0000    -0.5686     3.5412     3.5412    -0.0000
 21 C      6.0919     6.0000    -0.0919     3.7378     3.7378     0.0000
 22 S     15.6580    16.0000     0.3420     2.6089     2.6089     0.0000
 23 C      6.4328     6.0000    -0.4328     3.7495     3.7495     0.0000
 24 H      0.5251     1.0000     0.4749     0.7561     0.7561     0.0000
 25 H      0.7299     1.0000     0.2701     0.9013     0.9013    -0.0000
 26 H      0.7001     1.0000     0.2999     0.8965     0.8965     0.0000
 27 H      0.7143     1.0000     0.2857     0.9051     0.9051    -0.0000
 28 H      0.7157     1.0000     0.2843     0.9084     0.9084    -0.0000
 29 H      0.6984     1.0000     0.3016     0.8938     0.8938    -0.0000
 30 O      8.4681     8.0000    -0.4681     2.1565     2.1565     0.0000
 31 O      8.5273     8.0000    -0.5273     2.0869     2.0869    -0.0000
 32 C      5.3815     6.0000     0.6185     3.9171     3.9171    -0.0000
 33 C      6.7434     6.0000    -0.7434     3.6662     3.6662     0.0000
 34 H      0.7304     1.0000     0.2696     0.8950     0.8950     0.0000
 35 H      0.7307     1.0000     0.2693     0.8940     0.8940     0.0000
 36 H      0.7453     1.0000     0.2547     0.9003     0.9003    -0.0000
 37 H      0.7162     1.0000     0.2838     0.9081     0.9081     0.0000
 38 H      0.7079     1.0000     0.2921     0.9039     0.9039    -0.0000

  Mayer bond orders larger than 0.100000
B(  0-Ir,  1-C ) :   0.4262 B(  0-Ir,  2-C ) :   0.4319 B(  0-Ir,  3-C ) :   0.4659 
B(  0-Ir,  4-C ) :   0.4285 B(  0-Ir,  5-C ) :   0.3814 B(  0-Ir,  6-N ) :   0.4615 
B(  0-Ir, 20-C ) :   0.4370 B(  0-Ir, 31-O ) :   0.5534 B(  1-C ,  2-C ) :   1.1281 
B(  1-C ,  4-C ) :   1.2382 B(  1-C , 27-H ) :   0.9073 B(  2-C ,  5-C ) :   1.1876 
B(  2-C , 28-H ) :   0.9099 B(  3-C ,  4-C ) :   1.1244 B(  3-C ,  5-C ) :   1.1939 
B(  3-C , 37-H ) :   0.9119 B(  4-C , 38-H ) :   0.8993 B(  5-C , 29-H ) :   0.8997 
B(  6-N ,  7-C ) :   0.8938 B(  6-N , 17-C ) :   1.6601 B(  7-C ,  8-C ) :   0.9902 
B(  7-C , 12-C ) :   0.9663 B(  7-C , 13-H ) :   0.8735 B(  8-C ,  9-H ) :   0.9044 
B(  8-C , 10-H ) :   0.9133 B(  8-C , 11-H ) :   0.9102 B( 12-C , 14-H ) :   0.9072 
B( 12-C , 15-H ) :   0.9155 B( 12-C , 16-H ) :   0.9120 B( 17-C , 18-C ) :   1.0959 
B( 17-C , 19-H ) :   0.8762 B( 18-C , 20-C ) :   1.2201 B( 18-C , 22-S ) :   1.2654 
B( 20-C , 21-C ) :   1.2458 B( 20-C , 24-H ) :   0.4301 B( 21-C , 23-C ) :   1.5596 
B( 21-C , 25-H ) :   0.9015 B( 22-S , 23-C ) :   1.2014 B( 23-C , 26-H ) :   0.8908 
B( 24-H , 30-O ) :   0.2807 B( 30-O , 32-C ) :   1.6593 B( 31-O , 32-C ) :   1.3115 
B( 32-C , 33-C ) :   0.9431 B( 33-C , 34-H ) :   0.9040 B( 33-C , 35-H ) :   0.8971 
B( 33-C , 36-H ) :   0.9092 


------------------
HIRSHFELD ANALYSIS
------------------

Total integrated alpha density =     82.000031541
Total integrated beta density  =     82.000031541

  ATOM     CHARGE      SPIN    
   0 Ir   0.184126    0.000000
   1 C   -0.000849    0.000000
   2 C   -0.012856    0.000000
   3 C   -0.016186    0.000000
   4 C   -0.000587    0.000000
   5 C    0.020648    0.000000
   6 N   -0.062703    0.000000
   7 C    0.052948    0.000000
   8 C   -0.071186    0.000000
   9 H    0.053629    0.000000
  10 H    0.037396    0.000000
  11 H    0.042491    0.000000
  12 C   -0.070656    0.000000
  13 H    0.045933    0.000000
  14 H    0.050779    0.000000
  15 H    0.036933    0.000000
  16 H    0.030764    0.000000
  17 C    0.096285    0.000000
  18 C    0.004693    0.000000
  19 H    0.078823    0.000000
  20 C   -0.082611    0.000000
  21 C   -0.019844    0.000000
  22 S    0.150479    0.000000
  23 C   -0.025610    0.000000
  24 H    0.082869    0.000000
  25 H    0.071167    0.000000
  26 H    0.079809    0.000000
  27 H    0.081109    0.000000
  28 H    0.080346    0.000000
  29 H    0.092382    0.000000
  30 O   -0.255810    0.000000
  31 O   -0.254656    0.000000
  32 C    0.241895    0.000000
  33 C   -0.065528    0.000000
  34 H    0.055058    0.000000
  35 H    0.060787    0.000000
  36 H    0.048833    0.000000
  37 H    0.081241    0.000000
  38 H    0.077597    0.000000

  TOTAL   0.999937    0.000000

-------
TIMINGS
-------

Total SCF time: 0 days 0 hours 4 min 30 sec 

Total time                  ....     270.819 sec
Sum of individual times     ....     270.342 sec  ( 99.8%)

Fock matrix formation       ....     262.614 sec  ( 97.0%)
  Split-RI-J                ....      21.247 sec  (  8.1% of F)
  Chain of spheres X        ....     227.735 sec  ( 86.7% of F)
  XC integration            ....      13.610 sec  (  5.2% of F)
    Basis function eval.    ....       6.280 sec  ( 46.1% of XC)
    Density eval.           ....       3.568 sec  ( 26.2% of XC)
    XC-Functional eval.     ....       0.986 sec  (  7.2% of XC)
    XC-Potential eval.      ....       2.176 sec  ( 16.0% of XC)
Diagonalization             ....       0.219 sec  (  0.1%)
Density matrix formation    ....       0.034 sec  (  0.0%)
Population analysis         ....       1.200 sec  (  0.4%)
Initial guess               ....       0.025 sec  (  0.0%)
Orbital Transformation      ....       0.000 sec  (  0.0%)
Orbital Orthonormalization  ....       0.019 sec  (  0.0%)
DIIS solution               ....       0.086 sec  (  0.0%)
Grid generation             ....       6.164 sec  (  2.3%)

Maximum memory used throughout the entire SCF-calculation: 173.7 MB


-------------------------------------------------------------------------------
                          DFT DISPERSION CORRECTION                            
                                                                               
                              DFTD3 V3.1  Rev 1                                
                          USING Becke-Johnson damping                          
-------------------------------------------------------------------------------
The PBEh-3c composite method is recognized
Using three-body term ABC
Active option DFTDOPT                   ...         4   

molecular C6(AA) [au] = 19545.699604 


            DFT-D V3
 parameters
 s6 scaling factor         :     1.0000 
 a1 scaling factor         :     0.4860 
 s8 scaling factor         :     0.0000 
 a2 scaling factor         :     4.5000 
 Damping factor alpha9(ATM):    16.0000 
 ad hoc parameters k1-k3   :    16.0000     1.3333    -4.0000 

 Edisp/kcal,au: -19.395698779522  -0.030909010162 
 E6   /kcal   : -19.739361071 
 E8   /kcal   :  -0.000000000 
 E6(ABC)      :   0.343662292 
 % E8         :   0.000000000 
 % E6(ABC)    :  -1.771847952 

-------------------------   ----------------
Dispersion correction           -0.030909010
-------------------------   ----------------

 ** NOTE ** -> element ir will be treated as co
NOTIFICATION: Different basis set in ORCA and otool_gcp:
ORCA: 358  gCP: 357 
If you are NOT using ECPs, check your basis set inputs!
------------------   -----------------
gCP correction             0.080920376
------------------   -----------------

-------------------------   --------------------
FINAL SINGLE POINT ENERGY     -1288.398725957791
-------------------------   --------------------

                                *** OPTIMIZATION RUN DONE ***

                            ***************************************
                            *     ORCA property calculations      *
                            ***************************************

                                    ---------------------
                                    Active property flags
                                    ---------------------
   (+) Dipole Moment


------------------------------------------------------------------------------
                       ORCA ELECTRIC PROPERTIES CALCULATION
------------------------------------------------------------------------------

Dipole Moment Calculation                       ... on
Quadrupole Moment Calculation                   ... off
Polarizability Calculation                      ... off
GBWName                                         ... reaction4-IEIP_ts_guess_scan_11-1_orca.gbw
Electron density                                ... reaction4-IEIP_ts_guess_scan_11-1_orca.scfp
The origin for moment calculation is the CENTER OF MASS  = ( 0.880339, -0.573919 -0.194117)

-------------
DIPOLE MOMENT
-------------
                                X             Y             Z
Electronic contribution:     39.79065     -70.16904      69.52579
Nuclear contribution   :    -40.43376      69.30032     -70.00079
                        -----------------------------------------
Total Dipole Moment    :     -0.64311      -0.86872      -0.47500
                        -----------------------------------------
Magnitude (a.u.)       :      1.18063
Magnitude (Debye)      :      3.00093



--------------------
Rotational spectrum 
--------------------
 
Rotational constants in cm-1:     0.010543     0.009144     0.008229 
Rotational constants in MHz :   316.086020   274.143762   246.694893 

 Dipole components along the rotational axes: 
x,y,z [a.u.] :    -0.236828     0.199870    -1.139237 
x,y,z [Debye]:    -0.601970     0.508030    -2.895710 

 

Timings for individual modules:

Sum of individual times         ...     7783.844 sec (= 129.731 min)
GTO integral calculation        ...       24.521 sec (=   0.409 min)   0.3 %
SCF iterations                  ...     6117.997 sec (= 101.967 min)  78.6 %
SCF Gradient evaluation         ...     1637.126 sec (=  27.285 min)  21.0 %
Geometry relaxation             ...        4.200 sec (=   0.070 min)   0.1 %
                             ****ORCA TERMINATED NORMALLY****
TOTAL RUN TIME: 0 days 2 hours 9 minutes 49 seconds 446 msec
