
                                 *****************
                                 * O   R   C   A *
                                 *****************

                                            #,                                       
                                            ###                                      
                                            ####                                     
                                            #####                                    
                                            ######                                   
                                           ########,                                 
                                     ,,################,,,,,                         
                               ,,#################################,,                 
                          ,,##########################################,,             
                       ,#########################################, ''#####,          
                    ,#############################################,,   '####,        
                  ,##################################################,,,,####,       
                ,###########''''           ''''###############################       
              ,#####''   ,,,,##########,,,,          '''####'''          '####       
            ,##' ,,,,###########################,,,                        '##       
           ' ,,###''''                  '''############,,,                           
         ,,##''                                '''############,,,,        ,,,,,,###''
      ,#''                                            '''#######################'''  
     '                                                          ''''####''''         
             ,#######,   #######,   ,#######,      ##                                
            ,#'     '#,  ##    ##  ,#'     '#,    #''#        ######   ,####,        
            ##       ##  ##   ,#'  ##            #'  '#       #        #'  '#        
            ##       ##  #######   ##           ,######,      #####,   #    #        
            '#,     ,#'  ##    ##  '#,     ,#' ,#      #,         ##   #,  ,#        
             '#######'   ##     ##  '#######'  #'      '#     #####' # '####'        



                  #######################################################
                  #                        -***-                        #
                  #          Department of theory and spectroscopy      #
                  #    Directorship and core code : Frank Neese         #
                  #        Max Planck Institute fuer Kohlenforschung    #
                  #                Kaiser Wilhelm Platz 1               #
                  #                 D-45470 Muelheim/Ruhr               #
                  #                      Germany                        #
                  #                                                     #
                  #                  All rights reserved                #
                  #                        -***-                        #
                  #######################################################


                         Program Version 5.0.3 -  RELEASE  -


 With contributions from (in alphabetic order):
   Daniel Aravena         : Magnetic Suceptibility
   Michael Atanasov       : Ab Initio Ligand Field Theory (pilot matlab implementation)
   Alexander A. Auer      : GIAO ZORA, VPT2 properties, NMR spectrum
   Ute Becker             : Parallelization
   Giovanni Bistoni       : ED, misc. LED, open-shell LED, HFLD
   Martin Brehm           : Molecular dynamics
   Dmytro Bykov           : SCF Hessian
   Vijay G. Chilkuri      : MRCI spin determinant printing, contributions to CSF-ICE
   Dipayan Datta          : RHF DLPNO-CCSD density
   Achintya Kumar Dutta   : EOM-CC, STEOM-CC
   Dmitry Ganyushin       : Spin-Orbit,Spin-Spin,Magnetic field MRCI
   Miquel Garcia          : C-PCM and meta-GGA Hessian, CC/C-PCM, Gaussian charge scheme
   Yang Guo               : DLPNO-NEVPT2, F12-NEVPT2, CIM, IAO-localization
   Andreas Hansen         : Spin unrestricted coupled pair/coupled cluster methods
   Benjamin Helmich-Paris : MC-RPA, TRAH-SCF, COSX integrals
   Lee Huntington         : MR-EOM, pCC
   Robert Izsak           : Overlap fitted RIJCOSX, COSX-SCS-MP3, EOM
   Marcus Kettner         : VPT2
   Christian Kollmar      : KDIIS, OOCD, Brueckner-CCSD(T), CCSD density, CASPT2, CASPT2-K
   Simone Kossmann        : Meta GGA functionals, TD-DFT gradient, OOMP2, MP2 Hessian
   Martin Krupicka        : Initial AUTO-CI
   Lucas Lang             : DCDCAS
   Marvin Lechner         : AUTO-CI (C++ implementation), FIC-MRCC
   Dagmar Lenk            : GEPOL surface, SMD
   Dimitrios Liakos       : Extrapolation schemes; Compound Job, initial MDCI parallelization
   Dimitrios Manganas     : Further ROCIS development; embedding schemes
   Dimitrios Pantazis     : SARC Basis sets
   Anastasios Papadopoulos: AUTO-CI, single reference methods and gradients
   Taras Petrenko         : DFT Hessian,TD-DFT gradient, ASA, ECA, R-Raman, ABS, FL, XAS/XES, NRVS
   Peter Pinski           : DLPNO-MP2, DLPNO-MP2 Gradient
   Christoph Reimann      : Effective Core Potentials
   Marius Retegan         : Local ZFS, SOC
   Christoph Riplinger    : Optimizer, TS searches, QM/MM, DLPNO-CCSD(T), (RO)-DLPNO pert. Triples
   Tobias Risthaus        : Range-separated hybrids, TD-DFT gradient, RPA, STAB
   Michael Roemelt        : Original ROCIS implementation
   Masaaki Saitow         : Open-shell DLPNO-CCSD energy and density
   Barbara Sandhoefer     : DKH picture change effects
   Avijit Sen             : IP-ROCIS
   Kantharuban Sivalingam : CASSCF convergence, NEVPT2, FIC-MRCI
   Bernardo de Souza      : ESD, SOC TD-DFT
   Georgi Stoychev        : AutoAux, RI-MP2 NMR, DLPNO-MP2 response
   Willem Van den Heuvel  : Paramagnetic NMR
   Boris Wezisla          : Elementary symmetry handling
   Frank Wennmohs         : Technical directorship


 We gratefully acknowledge several colleagues who have allowed us to
 interface, adapt or use parts of their codes:
   Stefan Grimme, W. Hujo, H. Kruse, P. Pracht,  : VdW corrections, initial TS optimization,
                  C. Bannwarth, S. Ehlert          DFT functionals, gCP, sTDA/sTD-DF
   Ed Valeev, F. Pavosevic, A. Kumar             : LibInt (2-el integral package), F12 methods
   Garnet Chan, S. Sharma, J. Yang, R. Olivares  : DMRG
   Ulf Ekstrom                                   : XCFun DFT Library
   Mihaly Kallay                                 : mrcc  (arbitrary order and MRCC methods)
   Jiri Pittner, Ondrej Demel                    : Mk-CCSD
   Frank Weinhold                                : gennbo (NPA and NBO analysis)
   Christopher J. Cramer and Donald G. Truhlar   : smd solvation model
   Lars Goerigk                                  : TD-DFT with DH, B97 family of functionals
   V. Asgeirsson, H. Jonsson                     : NEB implementation
   FAccTs GmbH                                   : IRC, NEB, NEB-TS, DLPNO-Multilevel, CI-OPT
                                                   MM, QMMM, 2- and 3-layer-ONIOM, Crystal-QMMM,
                                                   LR-CPCM, SF, NACMEs, symmetry and pop. for TD-DFT,
                                                   nearIR, NL-DFT gradient (VV10), updates on ESD,
                                                   ML-optimized integration grids
   S Lehtola, MJT Oliveira, MAL Marques          : LibXC Library
   Liviu Ungur et al                             : ANISO software


 Your calculation uses the libint2 library for the computation of 2-el integrals
 For citations please refer to: http://libint.valeyev.net

 Your ORCA version has been built with support for libXC version: 5.1.0
 For citations please refer to: https://tddft.org/programs/libxc/

 This ORCA versions uses:
   CBLAS   interface :  Fast vector & matrix operations
   LAPACKE interface :  Fast linear algebra routines
   SCALAPACK package :  Parallel linear algebra routines
   Shared memory     :  Shared parallel matrices
   BLAS/LAPACK       :  OpenBLAS 0.3.15  USE64BITINT DYNAMIC_ARCH NO_AFFINITY SkylakeX SINGLE_THREADED
        Core in use  :  SkylakeX
   Copyright (c) 2011-2014, The OpenBLAS Project


Your calculation utilizes the geometrical counterpoise correction gCP
Please cite in your paper:
H.Kruse, S. Grimme J.Chem.Phys., 136, (2012), 154101 
   

Your calculation utilizes the atom-pairwise dispersion correction
with the Becke-Johnson damping scheme (D3BJ)
Cite in your paper:
S.Grimme, S.Ehrlich, L.Goerigk, J Comput Chem, (2011), 32, 1456–1465 
S.Grimme, J.Antony, S.Ehrlich and H.Krieg, J.Chem.Phys., 132, (2010), 154104 
   

Your calculation employs the composite approach PBEh-3c.
Please cite in your paper:
S. Grimme, J. G. Brandenburg, C. Bannwarth, A. Hansen J.Chem.Phys., 143, (2015), 054107 
   

================================================================================

cite the ECPs for Ir [Def2-ECP] as follows:
Ce-Yb(ecp-28): M. Dolg, H. Stoll, H.Preuss, J. Chem. Phys., 1989, 90, 1730-1734.
Y-Cd(ecp-28), Hf-Hg(ecp-46): D. Andrae,U. Haeussermann, M. Dolg, H. Stoll, H. Preuss, Theor. Chim. Acta, 1990, 77, 123-141.
In-Sb(ecp-28), Tl-Bi(ecp-46): B. Metz, H. Stoll, M. Dolg, J. Chem. Phys., 2000, 113, 2563-2569.
Te-Xe(ecp-28), Po-Rn(ecp-46): K. A. Peterson, D. Figgen, E. Goll, H. Stoll, M. Dolg, J. Chem. Phys., 2003, 119, 11113-11123.
Rb(ecp-28), Cs(ecp-46): T. Leininger, A. Nicklass, W. Kuechle, H. Stoll, M. Dolg, A. Bergner, Chem. Phys. Lett., 1996, 255, 274-280.
Sr(ecp-28), Ba(ecp-46): M. Kaupp, P. V. Schleyer, H. Stoll and H. Preuss, J. Chem. Phys., 1991, 94, 1360-1366.
La(ecp-46): M. Dolg, H. Stoll, A. Savin, H. Preuss, Theor. Chim. Acta, 1989, 75, 173-194.
Lu(ecp-28): X. Cao, M. Dolg, J. Chem. Phys., 2001, 115, 7348-7355.

ECP parameters for Ir [Def2-ECP] have been obtained from:
TURBOMOLE (7.0.2)

----- Orbital basis set information -----
Your calculation utilizes the basis: def2-mSVP

----- AuxJ basis set information -----
Your calculation utilizes the auxiliary basis: def2/J
   F. Weigend, Phys. Chem. Chem. Phys. 8, 1057 (2006).

================================================================================
                                        WARNINGS
                       Please study these warnings very carefully!
================================================================================


WARNING: Geometry Optimization
  ===> : Switching off AutoStart
         For restart on a previous wavefunction, please use MOREAD

WARNING: No Hueckel Guess possible with ECP basis!
  ===> : Switching to HCORE guess!

INFO   : the flag for use of the SHARK integral package has been found!

================================================================================
                                       INPUT FILE
================================================================================
NAME = reaction4-IEIP_ts_guess_scan_12-10_orca.inp
|  1> ! Opt PBEh-3c
|  2> %geom Constraints
|  3> { B 0 20 2.085714285714286 C }
|  4> { B 24 30 1.3571428571428572 C }
|  5>     end
|  6> end
|  7> %output 
|  8> xyzfile=True 
|  9> end 
| 10> %scf 
| 11> maxiter 250 
| 12> end
| 13> %output
| 14> Print[P_Hirshfeld] = 1
| 15> end
| 16> % maxcore
| 17> 4000
| 18> *xyz 1 1
| 19> Ir   0.61069806  -0.73355353   0.42459160 
| 20> C    0.11877422  -2.84456201   0.36144951 
| 21> C   -0.07381308  -2.38278677   1.71109226 
| 22> C    2.15143049  -2.08236354   1.15136534 
| 23> C    1.47981565  -2.67137416   0.02492315 
| 24> C    1.18481162  -1.93492139   2.18203977 
| 25> N   -1.06796196   0.11652802  -0.51390051 
| 26> C   -2.34248542   0.31417162   0.19307040 
| 27> C   -3.14335646   1.50841802  -0.30616155 
| 28> H   -3.97530634   1.68283919   0.37427874 
| 29> H   -3.57775388   1.34511331  -1.29337124 
| 30> H   -2.54501464   2.41947011  -0.33148829 
| 31> C   -3.16111453  -0.97049417   0.12790961 
| 32> H   -2.06435846   0.50224320   1.23124796 
| 33> H   -4.07112534  -0.86095614   0.71645220 
| 34> H   -3.45271925  -1.19853707  -0.89808846 
| 35> H   -2.61544058  -1.82496664   0.52453138 
| 36> C   -0.91214571   0.47487210  -1.73543825 
| 37> C    0.40665443   0.30600374  -2.26562326 
| 38> H   -1.72014239   0.90695991  -2.31692029 
| 39> C    1.44319954   0.06842306  -1.36275034 
| 40> C    2.65771879  -0.16854472  -2.07714935 
| 41> S    0.89729476   0.26976150  -3.88954684 
| 42> C    2.50784093  -0.08487432  -3.42838564 
| 43> H    1.63511689   1.14717526  -0.62507888 
| 44> H    3.61492802  -0.33471311  -1.60440817 
| 45> H    3.26967323  -0.19313398  -4.18541911 
| 46> H   -0.63741289  -3.27297245  -0.28013688 
| 47> H   -0.98747847  -2.42337311   2.28407805 
| 48> H    1.36711807  -1.48646095   3.14851930 
| 49> O    1.74529860   2.29535019   0.11679081 
| 50> O    0.56535787   1.02694752   1.51324753 
| 51> C    1.13777708   2.11377706   1.19156934 
| 52> C    1.09437561   3.23135200   2.19113203 
| 53> H    0.98037971   4.18942986   1.68906534 
| 54> H    2.04337657   3.26073078   2.72923567 
| 55> H    0.29672613   3.09058567   2.91494715 
| 56> H    3.20525269  -1.86516994   1.23178940 
| 57> H    1.93338044  -2.93720414  -0.91871951 
| 58> *
| 59> 
| 60>                          ****END OF INPUT****
================================================================================

                       *****************************
                       * Geometry Optimization Run *
                       *****************************

Geometry optimization settings:
Update method            Update   .... BFGS
Choice of coordinates    CoordSys .... Z-matrix Internals
Initial Hessian          InHess   .... Almoef's Model

Convergence Tolerances:
Energy Change            TolE     ....  5.0000e-06 Eh
Max. Gradient            TolMAXG  ....  3.0000e-04 Eh/bohr
RMS Gradient             TolRMSG  ....  1.0000e-04 Eh/bohr
Max. Displacement        TolMAXD  ....  4.0000e-03 bohr
RMS Displacement         TolRMSD  ....  2.0000e-03 bohr
Strict Convergence                ....  False
------------------------------------------------------------------------------
                        ORCA OPTIMIZATION COORDINATE SETUP
------------------------------------------------------------------------------

The optimization will be done in new redundant internal coordinates
Making redundant internal coordinates   ...  (new redundants) done
Evaluating the initial hessian          ...  (Almloef) done
Evaluating the coordinates              ...  done
Calculating the B-matrix                .... done
Calculating the G-matrix                .... done
Diagonalizing the G-matrix              .... done
Imposing constraints:
 Iter   0:  RMS(Cart)=    0.0166049401 RMS(Int)=    0.0108556901
 Iter   1:  RMS(Cart)=    0.0030336101 RMS(Int)=    0.0021221468
 Iter   2:  RMS(Cart)=    0.0005924239 RMS(Int)=    0.0004186732
 Iter   3:  RMS(Cart)=    0.0001167745 RMS(Int)=    0.0000827072
 Iter   4:  RMS(Cart)=    0.0000230607 RMS(Int)=    0.0000163429
 Iter   5:  RMS(Cart)=    0.0000045563 RMS(Int)=    0.0000032296
 Iter   6:  RMS(Cart)=    0.0000009003 RMS(Int)=    0.0000006382
 Iter   7:  RMS(Cart)=    0.0000001779 RMS(Int)=    0.0000001261
 Iter   8:  RMS(Cart)=    0.0000000352 RMS(Int)=    0.0000000249
CONVERGED
Small eigenvalue found = 1.429e-02
Small eigenvalue found = 2.378e-02
The first mode is                       ....  288
The number of degrees of freedom        ....  111
Storing new coordinates                 .... done

    -----------------------------------------------------------------
                    Redundant Internal Coordinates


    -----------------------------------------------------------------
         Definition                    Initial Value    Approx d2E/dq
    -----------------------------------------------------------------
      1. B(C   1,Ir  0)                  2.1681         0.083304   
      2. B(C   2,Ir  0)                  2.2004         0.073974   
      3. B(C   2,C   1)                  1.4396         0.521111   
      4. B(C   3,Ir  0)                  2.1724         0.081974   
      5. B(C   4,C   3)                  1.4375         0.524441   
      6. B(C   4,Ir  0)                  2.1608         0.085603   
      7. B(C   4,C   1)                  1.4135         0.574840   
      8. B(C   5,Ir  0)                  2.2042         0.072877   
      9. B(C   5,C   2)                  1.4179         0.566810   
     10. B(C   5,C   3)                  1.4221         0.558165   
     11. B(N   6,Ir  0)                  2.1030         0.095011   
     12. B(C   7,N   6)                  1.4708         0.415862   
     13. B(C   8,C   7)                  1.5221         0.384546   
     14. B(H   9,C   8)                  1.0888         0.361644   
     15. B(H  10,C   8)                  1.0909         0.358978   
     16. B(H  11,C   8)                  1.0903         0.359754   
     17. B(C  12,C   7)                  1.5247         0.380894   
     18. B(H  13,C   7)                  1.0911         0.358624   
     19. B(H  14,C  12)                  1.0893         0.361072   
     20. B(H  15,C  12)                  1.0907         0.359125   
     21. B(H  16,C  12)                  1.0887         0.361870   
     22. B(C  17,N   6)                  1.2766         0.830542   
     23. B(C  18,C  17)                  1.4259         0.536686   
     24. B(H  19,C  17)                  1.0852         0.366493   
     25. B(C  20,Ir  0)                  2.0857         0.096460 C 
     26. B(C  20,C  18)                  1.3961         0.613405   
     27. B(C  21,C  20)                  1.4294         0.541721   
     28. B(S  22,C  18)                  1.6968         0.545768   
     29. B(C  23,C  21)                  1.3619         0.692243   
     30. B(C  23,S  22)                  1.7118         0.515402   
     31. B(H  24,C  20)                  1.3209         0.154200   
     32. B(H  25,C  21)                  1.0805         0.372974   
     33. B(H  26,C  23)                  1.0795         0.374333   
     34. B(H  27,C   1)                  1.0803         0.373202   
     35. B(H  28,C   2)                  1.0792         0.374628   
     36. B(H  29,C   5)                  1.0809         0.372285   
     37. B(O  30,H  24)                  1.3571         0.114699 C 
     38. B(O  31,Ir  0)                  2.0706         0.106974   
     39. B(C  32,O  30)                  1.2446         0.943239   
     40. B(C  32,O  31)                  1.2671         0.870322   
     41. B(C  33,C  32)                  1.5000         0.417109   
     42. B(H  34,C  33)                  1.0877         0.363224   
     43. B(H  35,C  33)                  1.0913         0.358333   
     44. B(H  36,C  33)                  1.0863         0.365077   
     45. B(H  37,C   3)                  1.0790         0.374987   
     46. B(H  38,C   4)                  1.0802         0.373290   
     47. A(C   3,Ir  0,C  20)          103.5553         0.250029   
     48. A(C   2,Ir  0,N   6)          108.2802         0.244670   
     49. A(C   5,Ir  0,C  20)          140.4775         0.245799   
     50. A(C   2,Ir  0,C   5)           37.5566         0.236657   
     51. A(N   6,Ir  0,O  31)           82.7349         0.257014   
     52. A(N   6,Ir  0,C  20)           77.7920         0.254308   
     53. A(C   4,Ir  0,C   5)           63.5630         0.241618   
     54. A(C   1,Ir  0,C   4)           38.1151         0.246307   
     55. A(C   5,Ir  0,O  31)           92.7960         0.248366   
     56. A(C   3,Ir  0,C   4)           38.7471         0.245736   
     57. A(C   1,Ir  0,O  31)          146.8913         0.253262   
     58. A(C   1,Ir  0,N   6)          101.4383         0.248912   
     59. A(C   4,Ir  0,N   6)          126.9341         0.249900   
     60. A(C   2,Ir  0,C   3)           63.9622         0.240641   
     61. A(C   3,Ir  0,O  31)          111.5581         0.252665   
     62. A(C   1,Ir  0,C   2)           38.4723         0.241194   
     63. A(C   4,Ir  0,C  20)           91.2853         0.251616   
     64. A(C   2,Ir  0,C  20)          153.3845         0.246330   
     65. A(C   1,Ir  0,C  20)          115.4303         0.250617   
     66. A(C   1,Ir  0,C   3)           64.3375         0.244773   
     67. A(C   1,Ir  0,C   5)           63.4199         0.240680   
     68. A(C   2,Ir  0,O  31)          108.7834         0.248905   
     69. A(C   5,Ir  0,N   6)          141.5400         0.244145   
     70. A(C   2,Ir  0,C   4)           64.0227         0.242134   
     71. A(C   4,Ir  0,O  31)          150.2880         0.254278   
     72. A(C   3,Ir  0,C   5)           37.9145         0.240129   
     73. A(C   3,Ir  0,N   6)          165.0724         0.248331   
     74. A(C  20,Ir  0,O  31)           97.6105         0.258805   
     75. A(C   2,C   1,H  27)          126.1744         0.344792   
     76. A(C   4,C   1,H  27)          125.5498         0.350537   
     77. A(Ir  0,C   1,C   2)           71.9757         0.312310   
     78. A(Ir  0,C   1,H  27)          124.2203         0.268082   
     79. A(C   2,C   1,C   4)          108.2607         0.415128   
     80. A(Ir  0,C   1,C   4)           70.6611         0.317325   
     81. A(Ir  0,C   2,C   1)           69.5520         0.306386   
     82. A(C   1,C   2,C   5)          107.0927         0.414091   
     83. A(Ir  0,C   2,H  28)          127.0169         0.263482   
     84. A(C   5,C   2,H  28)          126.0116         0.349931   
     85. A(Ir  0,C   2,C   5)           71.3688         0.310562   
     86. A(C   1,C   2,H  28)          126.7977         0.345013   
     87. A(C   4,C   3,H  37)          126.6548         0.345438   
     88. A(C   5,C   3,H  37)          126.1462         0.349081   
     89. A(C   4,C   3,C   5)          107.0345         0.413430   
     90. A(Ir  0,C   3,C   4)           70.1874         0.311819   
     91. A(Ir  0,C   3,C   5)           72.2529         0.314984   
     92. A(Ir  0,C   3,H  37)          126.3527         0.267624   
     93. A(Ir  0,C   4,C   1)           71.2237         0.318736   
     94. A(C   3,C   4,H  38)          126.0670         0.345175   
     95. A(Ir  0,C   4,C   3)           71.0655         0.314014   
     96. A(Ir  0,C   4,H  38)          123.4595         0.269199   
     97. A(C   1,C   4,H  38)          125.6271         0.350551   
     98. A(C   1,C   4,C   3)          108.3059         0.415599   
     99. A(Ir  0,C   5,H  29)          122.0498         0.262647   
    100. A(C   2,C   5,H  29)          125.3423         0.349560   
    101. A(C   3,C   5,H  29)          125.2437         0.348656   
    102. A(Ir  0,C   5,C   3)           69.8326         0.309048   
    103. A(C   2,C   5,C   3)          109.2818         0.419185   
    104. A(Ir  0,C   5,C   2)           71.0746         0.309814   
    105. A(Ir  0,N   6,C  17)          116.0448         0.340736   
    106. A(C   7,N   6,C  17)          121.7724         0.420289   
    107. A(Ir  0,N   6,C   7)          122.1734         0.304254   
    108. A(C   8,C   7,H  13)          108.1167         0.325645   
    109. A(C  12,C   7,H  13)          108.8290         0.325135   
    110. A(N   6,C   7,C   8)          113.8108         0.369611   
    111. A(N   6,C   7,C  12)          109.3593         0.369006   
    112. A(C   8,C   7,C  12)          111.3801         0.366370   
    113. A(N   6,C   7,H  13)          105.0478         0.327894   
    114. A(C   7,C   8,H   9)          108.8287         0.326095   
    115. A(C   7,C   8,H  10)          112.8857         0.325698   
    116. A(H   9,C   8,H  10)          106.5746         0.290892   
    117. A(C   7,C   8,H  11)          111.9927         0.325814   
    118. A(H   9,C   8,H  11)          107.4569         0.290991   
    119. A(H  10,C   8,H  11)          108.8211         0.290653   
    120. A(C   7,C  12,H  14)          109.9214         0.325499   
    121. A(C   7,C  12,H  15)          111.0935         0.325210   
    122. A(H  14,C  12,H  15)          107.8133         0.290839   
    123. A(C   7,C  12,H  16)          112.1247         0.325617   
    124. A(H  14,C  12,H  16)          107.5074         0.291187   
    125. A(H  15,C  12,H  16)          108.2163         0.290940   
    126. A(N   6,C  17,C  18)          114.8851         0.442889   
    127. A(N   6,C  17,H  19)          122.4267         0.369759   
    128. A(C  18,C  17,H  19)          122.6629         0.345448   
    129. A(C  17,C  18,S  22)          128.4533         0.436255   
    130. A(C  20,C  18,S  22)          113.7296         0.446917   
    131. A(C  17,C  18,C  20)          117.7251         0.422170   
    132. A(C  18,C  20,C  21)          109.4679         0.422875   
    133. A(Ir  0,C  20,H  24)           84.3540         0.240560   
    134. A(C  18,C  20,H  24)          109.2496         0.306287   
    135. A(C  21,C  20,H  24)          106.7362         0.300261   
    136. A(Ir  0,C  20,C  18)          109.0619         0.328524   
    137. A(Ir  0,C  20,C  21)          133.1672         0.321881   
    138. A(C  20,C  21,C  23)          113.2070         0.432138   
    139. A(C  20,C  21,H  25)          123.9906         0.347012   
    140. A(C  23,C  21,H  25)          122.6915         0.361735   
    141. A(C  18,S  22,C  23)           91.0490         0.457245   
    142. A(C  21,C  23,S  22)          112.5387         0.452112   
    143. A(C  21,C  23,H  26)          127.7291         0.361960   
    144. A(S  22,C  23,H  26)          119.7162         0.362255   
    145. L(C  20,H  24,O  30,Ir  0, 1) 180.2443         0.216083   
    146. L(C  20,H  24,O  30,Ir  0, 2) 184.5144         0.216083   
    147. A(H  24,O  30,C  32)          107.3558         0.308564   
    148. A(Ir  0,O  31,C  32)          125.6317         0.350337   
    149. A(O  30,C  32,O  31)          123.7488         0.492003   
    150. A(O  30,C  32,C  33)          118.8891         0.433031   
    151. A(O  31,C  32,C  33)          117.3484         0.426822   
    152. A(C  32,C  33,H  34)          110.5928         0.330736   
    153. A(C  32,C  33,H  35)          108.8725         0.329995   
    154. A(H  34,C  33,H  35)          107.1593         0.291009   
    155. A(C  32,C  33,H  36)          111.6373         0.331014   
    156. A(H  34,C  33,H  36)          110.1680         0.291864   
    157. A(H  35,C  33,H  36)          108.2686         0.291242   
    158. D(C   4,C   1,Ir  0,C   5)    -80.2825         0.001691   
    159. D(H  27,C   1,Ir  0,C   5)    159.2872         0.001691   
    160. D(C   4,C   1,Ir  0,C  20)     55.5394         0.001691   
    161. D(C   2,C   1,Ir  0,N   6)   -105.0564         0.001691   
    162. D(C   2,C   1,Ir  0,C   3)     79.7370         0.001691   
    163. D(H  27,C   1,Ir  0,C   3)   -158.3010         0.001691   
    164. D(C   4,C   1,Ir  0,N   6)    137.3360         0.001691   
    165. D(H  27,C   1,Ir  0,O  31)    111.1532         0.001691   
    166. D(C   2,C   1,Ir  0,C   4)    117.6076         0.001691   
    167. D(H  27,C   1,Ir  0,C  20)    -64.8909         0.001691   
    168. D(C   2,C   1,Ir  0,C  20)    173.1471         0.001691   
    169. D(C   4,C   1,Ir  0,C   3)    -37.8706         0.001691   
    170. D(C   4,C   1,Ir  0,C   2)   -117.6076         0.001691   
    171. D(C   2,C   1,Ir  0,C   5)     37.3251         0.001691   
    172. D(H  27,C   1,Ir  0,C   4)   -120.4304         0.001691   
    173. D(C   4,C   1,Ir  0,O  31)   -128.4164         0.001691   
    174. D(H  27,C   1,Ir  0,C   2)    121.9620         0.001691   
    175. D(C   2,C   1,Ir  0,O  31)    -10.8088         0.001691   
    176. D(H  27,C   1,Ir  0,N   6)     16.9056         0.001691   
    177. D(C   1,C   2,Ir  0,C   5)   -117.1766         0.001651   
    178. D(H  28,C   2,C   1,C   4)   -176.7313         0.021554   
    179. D(C   5,C   2,C   1,H  27)    178.4726         0.021554   
    180. D(C   1,C   2,Ir  0,N   6)     85.4117         0.001651   
    181. D(C   1,C   2,Ir  0,C   3)    -80.7971         0.001651   
    182. D(C   1,C   2,Ir  0,C   4)    -37.4766         0.001651   
    183. D(H  28,C   2,C   1,Ir  0)    121.5680         0.021554   
    184. D(C   5,C   2,Ir  0,C  20)    103.2584         0.001651   
    185. D(H  28,C   2,Ir  0,C   1)   -121.2986         0.001651   
    186. D(H  28,C   2,C   1,H  27)      1.9175         0.021554   
    187. D(H  28,C   2,Ir  0,N   6)    -35.8869         0.001651   
    188. D(C   5,C   2,Ir  0,C   3)     36.3795         0.001651   
    189. D(H  28,C   2,Ir  0,C  20)   -135.2168         0.001651   
    190. D(C   5,C   2,C   1,Ir  0)    -61.8770         0.021554   
    191. D(Ir  0,C   2,C   1,H  27)   -119.6504         0.021554   
    192. D(H  28,C   2,Ir  0,C   3)    157.9043         0.001651   
    193. D(C   5,C   2,Ir  0,N   6)   -157.4117         0.001651   
    194. D(C   5,C   2,Ir  0,C   1)    117.1766         0.001651   
    195. D(C   5,C   2,Ir  0,C   4)     79.7000         0.001651   
    196. D(H  28,C   2,Ir  0,O  31)     52.4900         0.001651   
    197. D(C   5,C   2,Ir  0,O  31)    -69.0348         0.001651   
    198. D(H  28,C   2,Ir  0,C   5)    121.5248         0.001651   
    199. D(C   1,C   2,Ir  0,C  20)    -13.9182         0.001651   
    200. D(C   1,C   2,Ir  0,O  31)    173.7886         0.001651   
    201. D(Ir  0,C   2,C   1,C   4)     61.7008         0.021554   
    202. D(C   5,C   2,C   1,C   4)     -0.1762         0.021554   
    203. D(H  28,C   2,Ir  0,C   4)   -158.7752         0.001651   
    204. D(C   4,C   3,Ir  0,C   2)     80.2060         0.001685   
    205. D(H  37,C   3,Ir  0,C   1)    158.7739         0.001685   
    206. D(H  37,C   3,Ir  0,C   5)   -122.2371         0.001685   
    207. D(C   4,C   3,Ir  0,O  31)   -178.7068         0.001685   
    208. D(H  37,C   3,Ir  0,C   2)   -158.2781         0.001685   
    209. D(C   5,C   3,Ir  0,C   1)    -78.9890         0.001685   
    210. D(C   4,C   3,Ir  0,N   6)     18.7190         0.001685   
    211. D(C   5,C   3,Ir  0,O  31)     65.0462         0.001685   
    212. D(H  37,C   3,Ir  0,C   4)    121.5159         0.001685   
    213. D(C   5,C   3,Ir  0,C   4)   -116.2470         0.001685   
    214. D(H  37,C   3,Ir  0,N   6)    140.2348         0.001685   
    215. D(C   4,C   3,Ir  0,C   1)     37.2580         0.001685   
    216. D(C   4,C   3,Ir  0,C  20)    -74.7179         0.001685   
    217. D(C   5,C   3,Ir  0,C   2)    -36.0410         0.001685   
    218. D(C   5,C   3,Ir  0,N   6)    -97.5280         0.001685   
    219. D(C   4,C   3,Ir  0,C   5)    116.2470         0.001685   
    220. D(C   5,C   3,Ir  0,C  20)    169.0351         0.001685   
    221. D(H  37,C   3,Ir  0,C  20)     46.7980         0.001685   
    222. D(H  37,C   3,Ir  0,O  31)    -57.1909         0.001685   
    223. D(C   1,C   4,Ir  0,C  20)   -131.8568         0.001702   
    224. D(C   1,C   4,Ir  0,C   2)     37.8256         0.001702   
    225. D(C   3,C   4,Ir  0,C   2)    -80.0367         0.001702   
    226. D(C   1,C   4,Ir  0,C   5)     79.8745         0.001702   
    227. D(C   1,C   4,Ir  0,N   6)    -56.2013         0.001702   
    228. D(C   3,C   4,Ir  0,C   5)    -37.9878         0.001702   
    229. D(C   3,C   4,Ir  0,C   1)   -117.8623         0.001702   
    230. D(C   1,C   4,Ir  0,O  31)    120.2895         0.001702   
    231. D(C   1,C   4,Ir  0,C   3)    117.8623         0.001702   
    232. D(H  38,C   4,C   1,Ir  0)   -118.2163         0.026459   
    233. D(C   3,C   4,Ir  0,C  20)    110.2809         0.001702   
    234. D(C   3,C   4,Ir  0,O  31)      2.4271         0.001702   
    235. D(Ir  0,C   4,C   1,C   2)    -62.5410         0.026459   
    236. D(H  38,C   4,Ir  0,C   1)    120.8500         0.001702   
    237. D(H  38,C   4,Ir  0,C   3)   -121.2877         0.001702   
    238. D(H  38,C   4,Ir  0,C   5)   -159.2755         0.001702   
    239. D(H  38,C   4,Ir  0,N   6)     64.6487         0.001702   
    240. D(H  38,C   4,Ir  0,C  20)    -11.0068         0.001702   
    241. D(H  38,C   4,Ir  0,C   2)    158.6756         0.001702   
    242. D(Ir  0,C   4,C   1,H  27)    118.7996         0.026459   
    243. D(H  38,C   4,Ir  0,O  31)   -118.8606         0.001702   
    244. D(C   3,C   4,C   1,Ir  0)     61.7404         0.026459   
    245. D(C   3,C   4,C   1,C   2)     -0.8006         0.026459   
    246. D(H  38,C   4,C   1,C   2)    179.2427         0.026459   
    247. D(C   3,C   4,Ir  0,N   6)   -174.0636         0.001702   
    248. D(C   3,C   4,C   1,H  27)   -179.4600         0.026459   
    249. D(Ir  0,C   4,C   3,H  37)   -121.1487         0.021840   
    250. D(Ir  0,C   4,C   3,C   5)     63.3048         0.021840   
    251. D(H  38,C   4,C   3,C   5)   -178.5799         0.021840   
    252. D(C   1,C   4,C   3,C   5)      1.4637         0.021840   
    253. D(C   1,C   4,C   3,H  37)    177.0102         0.021840   
    254. D(H  38,C   4,C   3,Ir  0)    118.1153         0.021840   
    255. D(H  38,C   4,C   1,H  27)      0.5833         0.026459   
    256. D(H  38,C   4,C   3,H  37)     -3.0334         0.021840   
    257. D(C   1,C   4,C   3,Ir  0)    -61.8412         0.021840   
    258. D(H  29,C   5,C   2,H  28)     -6.3144         0.025686   
    259. D(C   2,C   5,Ir  0,C   4)    -81.0330         0.001647   
    260. D(C   2,C   5,Ir  0,C   3)   -119.8557         0.001647   
    261. D(C   3,C   5,C   2,C   1)      1.1026         0.025686   
    262. D(C   2,C   5,Ir  0,C  20)   -136.7474         0.001647   
    263. D(C   2,C   5,Ir  0,O  31)    117.7337         0.001647   
    264. D(H  29,C   5,Ir  0,O  31)     -2.7183         0.001647   
    265. D(C   3,C   5,Ir  0,C   2)    119.8557         0.001647   
    266. D(C   3,C   5,Ir  0,C   4)     38.8228         0.001647   
    267. D(C   3,C   5,Ir  0,N   6)    155.7577         0.001647   
    268. D(C   3,C   5,Ir  0,C  20)    -16.8916         0.001647   
    269. D(C   3,C   5,Ir  0,O  31)   -122.4105         0.001647   
    270. D(H  29,C   5,Ir  0,C   1)   -158.6851         0.001647   
    271. D(H  29,C   5,Ir  0,C   2)   -120.4520         0.001647   
    272. D(H  29,C   5,Ir  0,C   3)    119.6923         0.001647   
    273. D(H  29,C   5,Ir  0,C   4)    158.5150         0.001647   
    274. D(H  29,C   5,Ir  0,N   6)    -84.5500         0.001647   
    275. D(C   3,C   5,Ir  0,C   1)     81.6227         0.001647   
    276. D(H  29,C   5,Ir  0,C  20)    102.8006         0.001647   
    277. D(Ir  0,C   5,C   2,C   1)     60.6998         0.025686   
    278. D(Ir  0,C   5,C   2,H  28)   -122.7104         0.025686   
    279. D(C   2,C   5,Ir  0,N   6)     35.9020         0.001647   
    280. D(C   3,C   5,C   2,Ir  0)    -59.5972         0.025686   
    281. D(H  29,C   5,C   2,Ir  0)    116.3961         0.025686   
    282. D(C   3,C   5,C   2,H  28)    177.6924         0.025686   
    283. D(C   2,C   5,Ir  0,C   1)    -38.2331         0.001647   
    284. D(H  29,C   5,C   2,C   1)    177.0959         0.025686   
    285. D(H  29,C   5,C   3,H  37)      6.8383         0.024870   
    286. D(Ir  0,C   5,C   3,H  37)    122.4762         0.024870   
    287. D(C   2,C   5,C   3,Ir  0)     60.3603         0.024870   
    288. D(C   2,C   5,C   3,C   4)     -1.5880         0.024870   
    289. D(C   2,C   5,C   3,H  37)   -177.1636         0.024870   
    290. D(H  29,C   5,C   3,Ir  0)   -115.6379         0.024870   
    291. D(Ir  0,C   5,C   3,C   4)    -61.9482         0.024870   
    292. D(H  29,C   5,C   3,C   4)   -177.5861         0.024870   
    293. D(C   7,N   6,Ir  0,C   1)     79.1117         0.001767   
    294. D(C   7,N   6,Ir  0,C   2)     39.8614         0.001767   
    295. D(C   7,N   6,Ir  0,C   3)     96.1131         0.001767   
    296. D(C   7,N   6,Ir  0,C   4)    110.6670         0.001767   
    297. D(C   7,N   6,Ir  0,C   5)     17.7484         0.001767   
    298. D(C   7,N   6,Ir  0,C  20)   -167.0301         0.001767   
    299. D(C   7,N   6,Ir  0,O  31)    -67.5804         0.001767   
    300. D(C  17,N   6,Ir  0,C   1)   -101.9822         0.001767   
    301. D(C  17,N   6,Ir  0,C   2)   -141.2325         0.001767   
    302. D(C  17,N   6,Ir  0,C   3)    -84.9808         0.001767   
    303. D(C  17,N   6,Ir  0,C   4)    -70.4270         0.001767   
    304. D(C  17,N   6,Ir  0,C   5)   -163.3455         0.001767   
    305. D(C  17,N   6,Ir  0,C  20)     11.8760         0.001767   
    306. D(C  17,N   6,Ir  0,O  31)    111.3256         0.001767   
    307. D(C   8,C   7,N   6,Ir  0)    149.7019         0.014749   
    308. D(C   8,C   7,N   6,C  17)    -29.1420         0.014749   
    309. D(C  12,C   7,N   6,Ir  0)    -85.0304         0.014749   
    310. D(C  12,C   7,N   6,C  17)     96.1257         0.014749   
    311. D(H  13,C   7,N   6,Ir  0)     31.6295         0.014749   
    312. D(H  13,C   7,N   6,C  17)   -147.2144         0.014749   
    313. D(H   9,C   8,C   7,N   6)   -170.3668         0.011772   
    314. D(H   9,C   8,C   7,C  12)     65.4482         0.011772   
    315. D(H   9,C   8,C   7,H  13)    -54.0741         0.011772   
    316. D(H  10,C   8,C   7,N   6)     71.5287         0.011772   
    317. D(H  10,C   8,C   7,C  12)    -52.6564         0.011772   
    318. D(H  10,C   8,C   7,H  13)   -172.1787         0.011772   
    319. D(H  11,C   8,C   7,N   6)    -51.7114         0.011772   
    320. D(H  11,C   8,C   7,C  12)   -175.8965         0.011772   
    321. D(H  11,C   8,C   7,H  13)     64.5812         0.011772   
    322. D(H  14,C  12,C   7,N   6)    175.4575         0.011560   
    323. D(H  14,C  12,C   7,C   8)    -57.8807         0.011560   
    324. D(H  14,C  12,C   7,H  13)     61.2178         0.011560   
    325. D(H  15,C  12,C   7,N   6)    -65.2970         0.011560   
    326. D(H  15,C  12,C   7,C   8)     61.3649         0.011560   
    327. D(H  15,C  12,C   7,H  13)   -179.5366         0.011560   
    328. D(H  16,C  12,C   7,N   6)     55.9356         0.011560   
    329. D(H  16,C  12,C   7,C   8)   -177.4025         0.011560   
    330. D(H  16,C  12,C   7,H  13)    -58.3040         0.011560   
    331. D(C  18,C  17,N   6,Ir  0)     -2.8573         0.059364   
    332. D(C  18,C  17,N   6,C   7)    176.0535         0.059364   
    333. D(H  19,C  17,N   6,Ir  0)    178.9268         0.059364   
    334. D(H  19,C  17,N   6,C   7)     -2.1624         0.059364   
    335. D(C  20,C  18,C  17,N   6)    -14.0925         0.019674   
    336. D(C  20,C  18,C  17,H  19)    164.1187         0.019674   
    337. D(S  22,C  18,C  17,N   6)    162.1749         0.019674   
    338. D(S  22,C  18,C  17,H  19)    -19.6139         0.019674   
    339. D(C  18,C  20,Ir  0,C   1)     79.3217         0.001755   
    340. D(H  24,C  20,C  18,C  17)    -67.5847         0.028254   
    341. D(C  18,C  20,Ir  0,C   3)    147.0727         0.001755   
    342. D(C  18,C  20,Ir  0,C   4)    109.9226         0.001755   
    343. D(Ir  0,C  20,C  18,C  17)     23.0118         0.028254   
    344. D(C  18,C  20,Ir  0,N   6)    -17.6742         0.001755   
    345. D(C  18,C  20,Ir  0,O  31)    -98.4995         0.001755   
    346. D(H  24,C  20,Ir  0,C   4)   -141.6351         0.001755   
    347. D(C  21,C  20,Ir  0,C   2)    -54.9991         0.001755   
    348. D(C  21,C  20,Ir  0,C   3)      3.2139         0.001755   
    349. D(C  21,C  20,Ir  0,C   4)    -33.9362         0.001755   
    350. D(C  21,C  20,Ir  0,C   5)     13.7971         0.001755   
    351. D(C  21,C  20,Ir  0,N   6)   -161.5329         0.001755   
    352. D(C  21,C  20,Ir  0,O  31)    117.6417         0.001755   
    353. D(H  24,C  20,Ir  0,C   1)   -172.2360         0.001755   
    354. D(H  24,C  20,Ir  0,C   2)   -162.6980         0.001755   
    355. D(C  21,C  20,Ir  0,C   1)    -64.5371         0.001755   
    356. D(H  24,C  20,Ir  0,C   3)   -104.4850         0.001755   
    357. D(H  24,C  20,Ir  0,C   5)    -93.9018         0.001755   
    358. D(H  24,C  20,Ir  0,N   6)     90.7682         0.001755   
    359. D(C  18,C  20,Ir  0,C   5)    157.6558         0.001755   
    360. D(H  24,C  20,Ir  0,O  31)      9.9428         0.001755   
    361. D(Ir  0,C  20,C  18,S  22)   -153.7958         0.028254   
    362. D(C  21,C  20,C  18,C  17)    175.8667         0.028254   
    363. D(C  18,C  20,Ir  0,C   2)     88.8597         0.001755   
    364. D(C  21,C  20,C  18,S  22)     -0.9409         0.028254   
    365. D(H  24,C  20,C  18,S  22)    115.6077         0.028254   
    366. D(C  23,C  21,C  20,Ir  0)    144.5957         0.021760   
    367. D(C  23,C  21,C  20,C  18)      0.8408         0.021760   
    368. D(C  23,C  21,C  20,H  24)   -117.2869         0.021760   
    369. D(H  25,C  21,C  20,Ir  0)    -39.1499         0.021760   
    370. D(H  25,C  21,C  20,C  18)    177.0952         0.021760   
    371. D(H  25,C  21,C  20,H  24)     58.9675         0.021760   
    372. D(C  23,S  22,C  18,C  17)   -175.7574         0.005955   
    373. D(C  23,S  22,C  18,C  20)      0.6335         0.005955   
    374. D(S  22,C  23,C  21,C  20)     -0.3932         0.033688   
    375. D(S  22,C  23,C  21,H  25)   -176.7032         0.033688   
    376. D(H  26,C  23,C  21,C  20)    178.1295         0.033688   
    377. D(H  26,C  23,C  21,H  25)      1.8195         0.033688   
    378. D(C  21,C  23,S  22,C  18)     -0.1284         0.005449   
    379. D(H  26,C  23,S  22,C  18)   -178.7832         0.005449   
    380. D(C  32,O  30,C  20,Ir  0)     -9.3833         0.001502   
    381. D(C  32,O  30,C  20,C  18)     98.9019         0.001502   
    382. D(C  32,O  30,C  20,C  21)   -143.1431         0.001502   
    383. D(C  32,O  31,Ir  0,C   1)    171.8171         0.001820   
    384. D(C  32,O  31,Ir  0,C   2)    164.7384         0.001820   
    385. D(C  32,O  31,Ir  0,C   3)     96.0944         0.001820   
    386. D(C  32,O  31,Ir  0,C   4)     94.4613         0.001820   
    387. D(C  32,O  31,Ir  0,C   5)    129.9972         0.001820   
    388. D(C  32,O  31,Ir  0,N   6)    -88.3658         0.001820   
    389. D(C  32,O  31,Ir  0,C  20)    -11.7867         0.001820   
    390. D(O  31,C  32,O  30,H  24)      1.8802         0.071622   
    391. D(C  33,C  32,O  30,H  24)   -179.5051         0.071622   
    392. D(O  30,C  32,O  31,Ir  0)      4.5665         0.059630   
    393. D(C  33,C  32,O  31,Ir  0)   -174.0679         0.059630   
    394. D(H  34,C  33,C  32,O  30)     38.4859         0.012870   
    395. D(H  34,C  33,C  32,O  31)   -142.8108         0.012870   
    396. D(H  35,C  33,C  32,O  30)    -78.9989         0.012870   
    397. D(H  35,C  33,C  32,O  31)     99.7044         0.012870   
    398. D(H  36,C  33,C  32,O  30)    161.5293         0.012870   
    399. D(H  36,C  33,C  32,O  31)    -19.7675         0.012870   
    -----------------------------------------------------------------

Number of atoms                         .... 39
Number of degrees of freedom            .... 399

         *************************************************************
         *                GEOMETRY OPTIMIZATION CYCLE   1            *
         *************************************************************
---------------------------------
CARTESIAN COORDINATES (ANGSTROEM)
---------------------------------
  Ir     0.613706   -0.727335    0.413272
  C      0.124588   -2.838454    0.345024
  C     -0.066885   -2.380315    1.696249
  C      2.158675   -2.074749    1.132351
  C      1.485474   -2.662085    0.006209
  C      1.193064   -1.931137    2.166475
  N     -1.070137    0.121210   -0.518016
  C     -2.343125    0.315965    0.192531
  C     -3.147235    1.509504   -0.303198
  H     -3.977682    1.681782    0.379630
  H     -3.583959    1.346657   -1.289460
  H     -2.550432    2.421552   -0.329024
  C     -3.159850   -0.969947    0.128009
  H     -2.062579    0.503266    1.230199
  H     -4.068494   -0.862570    0.719067
  H     -3.453778   -1.197256   -0.897492
  H     -2.611755   -1.824004    0.522195
  C     -0.917424    0.478986   -1.733902
  C      0.399866    0.302432   -2.250382
  H     -1.722510    0.912365   -2.318470
  C      1.428275    0.060360   -1.337791
  C      2.645839   -0.183310   -2.045755
  S      0.901011    0.260136   -3.870940
  C      2.505828   -0.102088   -3.398024
  H      1.624094    1.142021   -0.605337
  H      3.599508   -0.352530   -1.566919
  H      3.272436   -0.215601   -4.149499
  H     -0.632010   -3.266344   -0.296425
  H     -0.979718   -2.423789    2.270358
  H      1.376575   -1.484587    3.133614
  O      1.743263    2.286305    0.114558
  O      0.566417    1.029474    1.508191
  C      1.137274    2.114423    1.188001
  C      1.095585    3.235126    2.184141
  H      0.983225    4.191856    1.679131
  H      2.044567    3.264591    2.722272
  H      0.297615    3.097883    2.908288
  H      3.212344   -1.856008    1.210614
  H      1.937717   -2.924592   -0.939005

----------------------------
CARTESIAN COORDINATES (A.U.)
----------------------------
  NO LB      ZA    FRAG     MASS         X           Y           Z
   0 Ir   17.0000*   0   192.220    1.159737   -1.374464    0.780970
   1 C     6.0000    0    12.011    0.235437   -5.363901    0.652001
   2 C     6.0000    0    12.011   -0.126394   -4.498144    3.205446
   3 C     6.0000    0    12.011    4.079305   -3.920707    2.139833
   4 C     6.0000    0    12.011    2.807139   -5.030611    0.011734
   5 C     6.0000    0    12.011    2.254564   -3.649320    4.094045
   6 N     7.0000    0    14.007   -2.022267    0.229054   -0.978909
   7 C     6.0000    0    12.011   -4.427865    0.597087    0.363830
   8 C     6.0000    0    12.011   -5.947413    2.852548   -0.572961
   9 H     1.0000    0     1.008   -7.516730    3.178107    0.717397
  10 H     1.0000    0     1.008   -6.772701    2.544812   -2.436725
  11 H     1.0000    0     1.008   -4.819618    4.576070   -0.621766
  12 C     6.0000    0    12.011   -5.971251   -1.832934    0.241901
  13 H     1.0000    0     1.008   -3.897709    0.951035    2.324740
  14 H     1.0000    0     1.008   -7.688339   -1.630022    1.358840
  15 H     1.0000    0     1.008   -6.526695   -2.262486   -1.696015
  16 H     1.0000    0     1.008   -4.935502   -3.446868    0.986806
  17 C     6.0000    0    12.011   -1.733681    0.905152   -3.276600
  18 C     6.0000    0    12.011    0.755638    0.571514   -4.252606
  19 H     1.0000    0     1.008   -3.255072    1.724120   -4.381273
  20 C     6.0000    0    12.011    2.699048    0.114064   -2.528058
  21 C     6.0000    0    12.011    4.999911   -0.346405   -3.865916
  22 S    16.0000    0    32.060    1.702664    0.491585   -7.315017
  23 C     6.0000    0    12.011    4.735328   -0.192919   -6.421334
  24 H     1.0000    0     1.008    3.069092    2.158106   -1.143921
  25 H     1.0000    0     1.008    6.802085   -0.666185   -2.961047
  26 H     1.0000    0     1.008    6.184009   -0.407426   -7.841417
  27 H     1.0000    0     1.008   -1.194327   -6.172496   -0.560163
  28 H     1.0000    0     1.008   -1.851398   -4.580298    4.290355
  29 H     1.0000    0     1.008    2.601350   -2.805463    5.921672
  30 O     8.0000    0    15.999    3.294289    4.320490    0.216484
  31 O     8.0000    0    15.999    1.070373    1.945425    2.850067
  32 C     6.0000    0    12.011    2.149137    3.995681    2.244996
  33 C     6.0000    0    12.011    2.070355    6.113502    4.127428
  34 H     1.0000    0     1.008    1.858025    7.921459    3.173097
  35 H     1.0000    0     1.008    3.863672    6.169183    5.144349
  36 H     1.0000    0     1.008    0.562410    5.854150    5.495867
  37 H     1.0000    0     1.008    6.070450   -3.507347    2.287730
  38 H     1.0000    0     1.008    3.661754   -5.526678   -1.774462
* core charge reduced due to ECP

--------------------------------
INTERNAL COORDINATES (ANGSTROEM)
--------------------------------
 Ir     0   0   0     0.000000000000     0.00000000     0.00000000
 C      1   0   0     2.168486290139     0.00000000     0.00000000
 C      2   1   0     1.439396329378    71.98544222     0.00000000
 C      1   2   3     2.172865604009    64.29718258    79.66484303
 C      2   1   3     1.412684606180    70.67250722   242.43311800
 C      3   2   1     1.416513710215   107.11478444   298.09593015
 N      1   2   3     2.102690073437   101.50576034   254.84171698
 C      7   1   2     1.470809610486   122.11278862    79.04001261
 C      8   7   1     1.522120700380   113.81076072   149.69593920
 H      9   8   7     1.088835311529   108.82868678   189.63327410
 H      9   8   7     1.090849448293   112.88553025    71.52879013
 H      9   8   7     1.090261568622   111.99280165   308.28845411
 C      8   7   1     1.524718249477   109.35922758   274.96358725
 H      8   7   1     1.091117853932   105.04781326    31.62377127
 H     13   8   7     1.089266099067   109.92132474   175.45746846
 H     13   8   7     1.090737785451   111.09375075   294.70309804
 H     13   8   7     1.088665279199   112.12478344    55.93564207
 C      7   1   2     1.282514574451   116.17254340   257.93312049
 C     18   7   1     1.431379221975   115.57960859   356.95814460
 H     18   7   1     1.085209598780   122.08252347   178.84387755
 C     19  18   7     1.395008908303   117.70763443   345.90339968
 C     21  19  18     1.428837528506   109.64747267   175.82908043
 S     19  18   7     1.696811488370   128.56649967   162.21150388
 C     22  21  19     1.362095305097   113.09659397     0.93086131
 H     21  19  18     1.320870077311   109.28845732   292.73363430
 H     22  21  19     1.080437720139   124.04184818   177.19348042
 H     24  22  21     1.079448137711   127.72739312   178.11869115
 H      2   1   3     1.080271977913   124.20486277   121.98455223
 H      3   2   1     1.079233251628   126.79976314   121.55117988
 H      6   3   2     1.080941760626   125.33067261   177.10335029
 O     25  21  19     1.371428567604   175.96920589    20.15369608
 O      1   2   3     2.070408513749   146.94215362   349.19927255
 C     31  25  21     1.247878234184   107.75677539    78.98731498
 C     33  31  25     1.499994335107   118.66046859   180.48620539
 H     34  33  31     1.087648478253   110.59273603    38.43589603
 H     34  33  31     1.091339297458   108.87260984   280.95099094
 H     34  33  31     1.086263402931   111.63717208   161.47897853
 H      4   1   2     1.078972807128   126.33646671   158.78938168
 H      5   2   1     1.080207418400   125.62435534   241.79448269

---------------------------
INTERNAL COORDINATES (A.U.)
---------------------------
 Ir     0   0   0     0.000000000000     0.00000000     0.00000000
 C      1   0   0     4.097845213526     0.00000000     0.00000000
 C      2   1   0     2.720064860695    71.98544222     0.00000000
 C      1   2   3     4.106120917394    64.29718258    79.66484303
 C      2   1   3     2.669587019287    70.67250722   242.43311800
 C      3   2   1     2.676822977252   107.11478444   298.09593015
 N      1   2   3     3.973508383310   101.50576034   254.84171698
 C      7   1   2     2.779427358958   122.11278862    79.04001261
 C      8   7   1     2.876391266490   113.81076072   149.69593920
 H      9   8   7     2.057600543732   108.82868678   189.63327410
 H      9   8   7     2.061406710613   112.88553025    71.52879013
 H      9   8   7     2.060295779034   111.99280165   308.28845411
 C      8   7   1     2.881299922904   109.35922758   274.96358725
 H      8   7   1     2.061913923764   105.04781326    31.62377127
 H     13   8   7     2.058414614202   109.92132474   175.45746846
 H     13   8   7     2.061195698422   111.09375075   294.70309804
 H     13   8   7     2.057279229196   112.12478344    55.93564207
 C      7   1   2     2.423601308475   116.17254340   257.93312049
 C     18   7   1     2.704914723318   115.57960859   356.95814460
 H     18   7   1     2.050748939597   122.08252347   178.84387755
 C     19  18   7     2.636184791072   117.70763443   345.90339968
 C     21  19  18     2.700111618746   109.64747267   175.82908043
 S     19  18   7     3.206509013910   128.56649967   162.21150388
 C     22  21  19     2.573987094933   113.09659397     0.93086131
 H     21  19  18     2.496082704608   109.28845732   292.73363430
 H     22  21  19     2.041731395822   124.04184818   177.19348042
 H     24  22  21     2.039861356044   127.72739312   178.11869115
 H      2   1   3     2.041418188405   124.20486277   121.98455223
 H      3   2   1     2.039455280199   126.79976314   121.55117988
 H      6   3   2     2.042683894302   125.33067261   177.10335029
 O     25  21  19     2.591624405007   175.96920589    20.15369608
 O      1   2   3     3.912505076325   146.94215362   349.19927255
 C     31  25  21     2.358148111089   107.75677539    78.98731498
 C     33  31  25     2.834578495786   118.66046859   180.48620539
 H     34  33  31     2.055357753875   110.59273603    38.43589603
 H     34  33  31     2.062332391382   108.87260984   280.95099094
 H     34  33  31     2.052740340840   111.63717208   161.47897853
 H      4   1   2     2.038963111419   126.33646671   158.78938168
 H      5   2   1     2.041296188606   125.62435534   241.79448269

---------------------
BASIS SET INFORMATION
---------------------
There are 6 groups of distinct atoms

 Group   1 Type Ir  : 7s6p5d1f contracted to 6s3p2d1f pattern {211111/411/41/1}
 Group   2 Type C   : 8s4p1d contracted to 4s2p1d pattern {5111/31/1}
 Group   3 Type N   : 8s4p1d contracted to 4s2p1d pattern {5111/31/1}
 Group   4 Type H   : 4s contracted to 2s pattern {31}
 Group   5 Type S   : 10s7p1d contracted to 4s3p1d pattern {5311/511/1}
 Group   6 Type O   : 8s4p1d contracted to 4s2p1d pattern {5111/31/1}

Atom   0Ir   basis set group =>   1
Atom   1C    basis set group =>   2
Atom   2C    basis set group =>   2
Atom   3C    basis set group =>   2
Atom   4C    basis set group =>   2
Atom   5C    basis set group =>   2
Atom   6N    basis set group =>   3
Atom   7C    basis set group =>   2
Atom   8C    basis set group =>   2
Atom   9H    basis set group =>   4
Atom  10H    basis set group =>   4
Atom  11H    basis set group =>   4
Atom  12C    basis set group =>   2
Atom  13H    basis set group =>   4
Atom  14H    basis set group =>   4
Atom  15H    basis set group =>   4
Atom  16H    basis set group =>   4
Atom  17C    basis set group =>   2
Atom  18C    basis set group =>   2
Atom  19H    basis set group =>   4
Atom  20C    basis set group =>   2
Atom  21C    basis set group =>   2
Atom  22S    basis set group =>   5
Atom  23C    basis set group =>   2
Atom  24H    basis set group =>   4
Atom  25H    basis set group =>   4
Atom  26H    basis set group =>   4
Atom  27H    basis set group =>   4
Atom  28H    basis set group =>   4
Atom  29H    basis set group =>   4
Atom  30O    basis set group =>   6
Atom  31O    basis set group =>   6
Atom  32C    basis set group =>   2
Atom  33C    basis set group =>   2
Atom  34H    basis set group =>   4
Atom  35H    basis set group =>   4
Atom  36H    basis set group =>   4
Atom  37H    basis set group =>   4
Atom  38H    basis set group =>   4
---------------------------------
AUXILIARY/J BASIS SET INFORMATION
---------------------------------
There are 6 groups of distinct atoms

 Group   1 Type Ir  : 11s5p5d3f3g contracted to 8s5p5d2f3g pattern {41111111/11111/11111/21/111}
 Group   2 Type C   : 12s5p4d2f1g contracted to 6s4p3d1f1g pattern {711111/2111/211/2/1}
 Group   3 Type N   : 12s5p4d2f1g contracted to 6s4p3d1f1g pattern {711111/2111/211/2/1}
 Group   4 Type H   : 5s2p1d contracted to 3s1p1d pattern {311/2/1}
 Group   5 Type S   : 14s5p5d2f1g contracted to 8s4p3d1f1g pattern {71111111/2111/311/2/1}
 Group   6 Type O   : 12s5p4d2f1g contracted to 6s4p3d1f1g pattern {711111/2111/211/2/1}

Atom   0Ir   basis set group =>   1
Atom   1C    basis set group =>   2
Atom   2C    basis set group =>   2
Atom   3C    basis set group =>   2
Atom   4C    basis set group =>   2
Atom   5C    basis set group =>   2
Atom   6N    basis set group =>   3
Atom   7C    basis set group =>   2
Atom   8C    basis set group =>   2
Atom   9H    basis set group =>   4
Atom  10H    basis set group =>   4
Atom  11H    basis set group =>   4
Atom  12C    basis set group =>   2
Atom  13H    basis set group =>   4
Atom  14H    basis set group =>   4
Atom  15H    basis set group =>   4
Atom  16H    basis set group =>   4
Atom  17C    basis set group =>   2
Atom  18C    basis set group =>   2
Atom  19H    basis set group =>   4
Atom  20C    basis set group =>   2
Atom  21C    basis set group =>   2
Atom  22S    basis set group =>   5
Atom  23C    basis set group =>   2
Atom  24H    basis set group =>   4
Atom  25H    basis set group =>   4
Atom  26H    basis set group =>   4
Atom  27H    basis set group =>   4
Atom  28H    basis set group =>   4
Atom  29H    basis set group =>   4
Atom  30O    basis set group =>   6
Atom  31O    basis set group =>   6
Atom  32C    basis set group =>   2
Atom  33C    basis set group =>   2
Atom  34H    basis set group =>   4
Atom  35H    basis set group =>   4
Atom  36H    basis set group =>   4
Atom  37H    basis set group =>   4
Atom  38H    basis set group =>   4
-------------------------
ECP PARAMETER INFORMATION
-------------------------

 Group 1, Type Ir ECP Def2-ECP (replacing 60 core electrons, lmax=3)

Atom   0Ir   ECP group =>   1

------------------------------------------------------------------------------
                           ORCA GTO INTEGRAL CALCULATION
                           -- RI-GTO INTEGRALS CHOSEN --
------------------------------------------------------------------------------
------------------------------------------------------------------------------
                   ___                                                        
                  /   \      - P O W E R E D   B Y -                         
                 /     \                                                     
                 |  |  |   _    _      __       _____    __    __             
                 |  |  |  | |  | |    /  \     |  _  \  |  |  /  |          
                  \  \/   | |  | |   /    \    | | | |  |  | /  /          
                 / \  \   | |__| |  /  /\  \   | |_| |  |  |/  /          
                |  |  |   |  __  | /  /__\  \  |    /   |      \           
                |  |  |   | |  | | |   __   |  |    \   |  |\   \          
                \     /   | |  | | |  |  |  |  | |\  \  |  | \   \       
                 \___/    |_|  |_| |__|  |__|  |_| \__\ |__|  \__/        
                                                                              
                      - O R C A' S   B I G   F R I E N D -                    
                                      &                                       
                       - I N T E G R A L  F E E D E R -                       
                                                                              
 v1 FN, 2020, v2 2021                                                         
------------------------------------------------------------------------------


Reading SHARK input file reaction4-IEIP_ts_guess_scan_12-10_orca.SHARKINP.tmp ... ok
----------------------
SHARK INTEGRAL PACKAGE
----------------------

Number of atoms                             ...     39
Number of basis functions                   ...    358
Number of shells                            ...    184
Maximum angular momentum                    ...      3
Integral batch strategy                     ... SHARK/LIBINT Hybrid
RI-J (if used) integral strategy            ... SPLIT-RIJ (Revised 2003 algorithm where possible)
Printlevel                                  ...      1
Contraction scheme used                     ... SEGMENTED contraction
Coulomb Range Separation                    ... NOT USED
Exchange Range Separation                   ... NOT USED
Finite Nucleus Model                        ... NOT USED
Auxiliary Coulomb fitting basis             ... AVAILABLE
   # of basis functions in Aux-J            ...   1231
   # of shells in Aux-J                     ...    405
   Maximum angular momentum in Aux-J        ...      4
Auxiliary J/K fitting basis                 ... NOT available
Auxiliary Correlation fitting basis         ... NOT available
Auxiliary 'external' fitting basis          ... NOT available
Integral threshold                          ...     2.500000e-11
Primitive cut-off                           ...     2.500000e-12
Primitive pair pre-selection threshold      ...     2.500000e-12

Calculating pre-screening integrals         ... done (  0.1 sec) Dimension = 184
Organizing shell pair data                  ... done (  0.1 sec)
Shell pair information
Total number of shell pairs                 ...     17020
Shell pairs after pre-screening             ...     12989
Total number of primitive shell pairs       ...     60705
Primitive shell pairs kept                  ...     29219
          la=0 lb=0:   4969 shell pairs
          la=1 lb=0:   4268 shell pairs
          la=1 lb=1:    860 shell pairs
          la=2 lb=0:   1757 shell pairs
          la=2 lb=1:    786 shell pairs
          la=2 lb=2:    175 shell pairs
          la=3 lb=0:    111 shell pairs
          la=3 lb=1:     41 shell pairs
          la=3 lb=2:     21 shell pairs
          la=3 lb=3:      1 shell pairs

Calculating one electron integrals          ... done (  0.1 sec)
Calculating ECP integrals                   ... done (  0.9 sec)
Calculating RI/J V-Matrix + Cholesky decomp.... done (  0.1 sec)
Calculating Nuclear repulsion               ... done (  0.0 sec) ENN=   2037.874583142147 Eh

SHARK setup successfully completed in   1.5 seconds

Maximum memory used throughout the entire GTOINT-calculation: 90.8 MB
-------------------------------------------------------------------------------
                                 ORCA SCF
-------------------------------------------------------------------------------

------------
SCF SETTINGS
------------
Hamiltonian:
 Density Functional     Method          .... DFT(GTOs)
 Exchange Functional    Exchange        .... PBE
   PBE kappa parameter   XKappa         ....  1.024500
   PBE mue parameter    XMuePBE         ....  0.123457
 Correlation Functional Correlation     .... PBE
   PBE beta parameter  CBetaPBE         ....  0.030000
 LDA part of GGA corr.  LDAOpt          .... PW91-LDA
 Gradients option       PostSCFGGA      .... off
 Hybrid DFT is turned on
   Fraction HF Exchange ScalHFX         ....  0.420000
   Scaling of DF-GGA-X  ScalDFX         ....  0.580000
   Scaling of DF-GGA-C  ScalDFC         ....  1.000000
   Scaling of DF-LDA-C  ScalLDAC        ....  1.000000
   Perturbative correction              ....  0.000000
   Density functional embedding theory  .... OFF
 RI-approximation to the Coulomb term is turned on
   Number of AuxJ basis functions       .... 1231
   RIJ-ON(X) (HFX calculated with O(N)) .... on
   Number of AuxJ basis functions       .... 1231
   RIJ-COSX (HFX calculated with COS-X)).... on


General Settings:
 Integral files         IntName         .... reaction4-IEIP_ts_guess_scan_12-10_orca
 Hartree-Fock type      HFTyp           .... RHF
 Total Charge           Charge          ....    1
 Multiplicity           Mult            ....    1
 Number of Electrons    NEL             ....  164
 Basis Dimension        Dim             ....  358
 Nuclear Repulsion      ENuc            ....   2037.8745831421 Eh

Convergence Acceleration:
 DIIS                   CNVDIIS         .... on
   Start iteration      DIISMaxIt       ....    12
   Startup error        DIISStart       ....  0.200000
   # of expansion vecs  DIISMaxEq       ....     5
   Bias factor          DIISBfac        ....   1.050
   Max. coefficient     DIISMaxC        ....  10.000
 Trust-Rad. Augm. Hess. CNVTRAH         .... auto
   Auto Start mean grad. ratio tolernc. ....  1.125000
   Auto Start start iteration           ....    20
   Auto Start num. interpolation iter.  ....    10
   Max. Number of Micro iterations      ....    16
   Max. Number of Macro iterations      .... Maxiter - #DIIS iter
   Number of Davidson start vectors     ....     2
   Converg. threshold I  (grad. norm)   ....   1.000e-05
   Converg. threshold II (energy diff.) ....   1.000e-08
   Grad. Scal. Fac. for Micro threshold ....   0.100
   Minimum threshold for Micro iter.    ....   0.010
   NR start threshold (gradient norm)   ....   0.001
   Initial trust radius                 ....   0.400
   Minimum AH scaling param. (alpha)    ....   1.000
   Maximum AH scaling param. (alpha)    .... 1000.000
   Orbital update algorithm             .... Taylor
   White noise on init. David. guess    .... on
   Maximum white noise                  ....   0.010
   Quad. conv. algorithm                .... NR
   COSX micro iterations for RIJONX calc.... off
 SOSCF                  CNVSOSCF        .... off
 Level Shifting         CNVShift        .... on
   Level shift para.    LevelShift      ....    0.2500
   Turn off err/grad.   ShiftErr        ....    0.0010
 Zerner damping         CNVZerner       .... off
 Static damping         CNVDamp         .... on
   Fraction old density DampFac         ....    0.7000
   Max. Damping (<1)    DampMax         ....    0.9800
   Min. Damping (>=0)   DampMin         ....    0.0000
   Turn off err/grad.   DampErr         ....    0.1000
 Fernandez-Rico         CNVRico         .... off

SCF Procedure:
 Maximum # iterations   MaxIter         ....   250
 SCF integral mode      SCFMode         .... Direct
   Integral package                     .... SHARK and LIBINT hybrid scheme
 Reset frequency        DirectResetFreq ....    20
 Integral Threshold     Thresh          ....  2.500e-11 Eh
 Primitive CutOff       TCut            ....  2.500e-12 Eh

Convergence Tolerance:
 Convergence Check Mode ConvCheckMode   .... Total+1el-Energy
 Convergence forced     ConvForced      .... 0
 Energy Change          TolE            ....  1.000e-08 Eh
 1-El. energy change                    ....  1.000e-05 Eh
 DIIS Error             TolErr          ....  5.000e-07


Diagonalization of the overlap matrix:
Smallest eigenvalue                        ... 1.137e-03
Time for diagonalization                   ...    0.035 sec
Threshold for overlap eigenvalues          ... 1.000e-08
Number of eigenvalues below threshold      ... 0
Time for construction of square roots      ...    0.013 sec
Total time needed                          ...    0.049 sec

--------------------
INITIAL GUESS: HCORE
--------------------
                      -----------------
                      INTIAL GUESS DONE 
                      -----------------
-------------------
DFT GRID GENERATION
-------------------

General Integration Accuracy     IntAcc      ... 4.159
Radial Grid Type                 RadialGrid  ... OptM3 with GC (2021)
Angular Grid (max. ang.)         AngularGrid ... 3 (Lebedev-194)
Angular grid pruning method      GridPruning ... 4 (adaptive)
Weight generation scheme         WeightScheme... Becke
Basis function cutoff            BFCut       ... 1.0000e-11
Integration weight cutoff        WCut        ... 1.0000e-14
Angular grids for H and He will be reduced by one unit
Partially contracted basis set               ... off
Rotationally invariant grid construction     ... off

Total number of grid points                  ...    93267
Total number of batches                      ...     1476
Average number of points per batch           ...       63
Average number of grid points per atom       ...     2391
Time for grid setup =    1.882 sec

--------------------
COSX GRID GENERATION
--------------------

GRIDX 1
-------
General Integration Accuracy     IntAcc      ... 3.816
Radial Grid Type                 RadialGrid  ... OptM3 with GC (2021)
Angular Grid (max. ang.)         AngularGrid ... 1 (Lebedev-50)
Angular grid pruning method      GridPruning ... 4 (adaptive)
Weight generation scheme         WeightScheme... Becke
Basis function cutoff            BFCut       ... 1.0000e-11
Integration weight cutoff        WCut        ... 1.0000e-14
Angular grids for H and He will be reduced by one unit
Partially contracted basis set               ... on
Rotationally invariant grid construction     ... off

Total number of grid points                  ...    23205
Total number of batches                      ...      381
Average number of points per batch           ...       60
Average number of grid points per atom       ...      595
UseSFitting                                  ... on

GRIDX 2
-------
General Integration Accuracy     IntAcc      ... 4.020
Radial Grid Type                 RadialGrid  ... OptM3 with GC (2021)
Angular Grid (max. ang.)         AngularGrid ... 2 (Lebedev-110)
Angular grid pruning method      GridPruning ... 4 (adaptive)
Weight generation scheme         WeightScheme... Becke
Basis function cutoff            BFCut       ... 1.0000e-11
Integration weight cutoff        WCut        ... 1.0000e-14
Angular grids for H and He will be reduced by one unit
Partially contracted basis set               ... on
Rotationally invariant grid construction     ... off

Total number of grid points                  ...    50333
Total number of batches                      ...      807
Average number of points per batch           ...       62
Average number of grid points per atom       ...     1291
UseSFitting                                  ... on

GRIDX 3
-------
General Integration Accuracy     IntAcc      ... 4.338
Radial Grid Type                 RadialGrid  ... OptM3 with GC (2021)
Angular Grid (max. ang.)         AngularGrid ... 3 (Lebedev-194)
Angular grid pruning method      GridPruning ... 4 (adaptive)
Weight generation scheme         WeightScheme... Becke
Basis function cutoff            BFCut       ... 1.0000e-11
Integration weight cutoff        WCut        ... 1.0000e-14
Angular grids for H and He will be reduced by one unit
Partially contracted basis set               ... on
Rotationally invariant grid construction     ... off

Total number of grid points                  ...   108757
Total number of batches                      ...     1717
Average number of points per batch           ...       63
Average number of grid points per atom       ...     2789
UseSFitting                                  ... on

Time for X-Grid setup             =    4.711 sec

--------------
SCF ITERATIONS
--------------
ITER       Energy         Delta-E        Max-DP      RMS-DP      [F,P]     Damp
               ***  Starting incremental Fock matrix formation  ***
  0   -841.8317152816   0.00000000000021.46574140  0.15018030  3.2419806 0.7000
  1  -1086.6099189710-244.77820368936210.61480703  0.13709777  1.4876340 0.7000
  2  -1157.7203491343 -71.110430163357 5.39261984  0.07335271  1.0594958 0.7000
  3  -1184.8433873851 -27.123038250769 3.74343287  0.04833368  0.7682762 0.7000
  4  -1206.3169574785 -21.473570093405 2.64412725  0.03899986  0.4753606 0.7000
  5  -1220.8229069121 -14.505949433575 2.51424919  0.03400550  0.3609903 0.7000
  6  -1230.6481205840  -9.825213671899 2.01041633  0.03008617  0.3216761 0.7000
  7  -1239.8270795171  -9.178958933099 1.60129149  0.02609391  0.2974232 0.7000
  8  -1246.5965002981  -6.769420781066 1.70663936  0.02649843  0.3231383 0.7000
  9  -1250.5756466534  -3.979146355292 1.48379311  0.02425788  0.2952341 0.7000
 10  -1255.6708621683  -5.095215514890 1.60959401  0.02402923  0.2930796 0.7000
 11  -1256.9485913468  -1.277729178464 1.44515066  0.02266741  0.2824825 0.7000
                               ***Turning on DIIS***
 12  -1259.7577008818  -2.809109534982 1.42781596  0.02283576  0.3140890 0.7000
 13  -1260.0017755506  -0.244074668832 1.26650001  0.01915459  0.3100741 0.7000
 14  -1268.3634415275  -8.361665976946 0.88550505  0.01362210  0.2407833 0.7000
 15  -1274.5945672272  -6.231125699617 0.62163633  0.00964517  0.1947560 0.7000
 16  -1278.9659729274  -4.371405700258 0.43729741  0.00682045  0.1389339 0.7000
 17  -1281.9383076199  -2.972334692510 1.02496955  0.01603898  0.0927077 0.0000
 18  -1288.4289002414  -6.490592621438 0.04024682  0.00056127  0.0282987 0.0000
 19  -1288.4457191861  -0.016818944738 0.03417831  0.00045502  0.0187411 0.0000
               *** Restarting incremental Fock matrix formation ***
                                   *** Resetting DIIS ***
 20  -1288.4481958922  -0.002476706082 0.04287705  0.00053013  0.0180957 0.0000
 21  -1288.4484407888  -0.000244896605 0.02064156  0.00022431  0.0235681 0.0000
 22  -1288.4511968035  -0.002756014747 0.00418555  0.00007287  0.0044088 0.0000
 23  -1288.4514002390  -0.000203435447 0.00360062  0.00003559  0.0021987 0.0000
 24  -1288.4514406448  -0.000040405818 0.00257092  0.00003243  0.0005493 0.0000
               *** Restarting incremental Fock matrix formation ***
                                   *** Resetting DIIS ***
 25  -1288.4520584010  -0.000617756149 0.00477657  0.00009817  0.0006669 0.0000
 26  -1288.4520753581  -0.000016957140 0.00172930  0.00001694  0.0006900 0.0000
 27  -1288.4520758839  -0.000000525851 0.00103309  0.00000974  0.0007595 0.0000
 28  -1288.4520791693  -0.000003285308 0.00032882  0.00000343  0.0001562 0.0000
 29  -1288.4520793370  -0.000000167723 0.00019657  0.00000180  0.0001045 0.0000
 30  -1288.4520794370  -0.000000100013 0.00008708  0.00000074  0.0000291 0.0000
 31  -1288.4520794573  -0.000000020354 0.00004261  0.00000046  0.0000139 0.0000
 32  -1288.4520794608  -0.000000003481 0.00002351  0.00000023  0.0000051 0.0000
 33  -1288.4520794644  -0.000000003525 0.00001315  0.00000010  0.0000029 0.0000
 34  -1288.4520794748  -0.000000010433 0.00000536  0.00000005  0.0000019 0.0000
 35  -1288.4520794663   0.000000008463 0.00000285  0.00000003  0.0000016 0.0000
 36  -1288.4520794750  -0.000000008719 0.00000201  0.00000002  0.0000013 0.0000
                 **** Energy Check signals convergence ****

               *****************************************************
               *                     SUCCESS                       *
               *           SCF CONVERGED AFTER  37 CYCLES          *
               *****************************************************

Old exchange energy                            =    -59.650770579 Eh
New exchange energy                            =    -59.650873673 Eh
Exchange energy change after final integration =     -0.000103094 Eh
Total energy after final integration           =  -1288.452182574 Eh
Final COS-X integration done in                =    61.060 sec

----------------
TOTAL SCF ENERGY
----------------

Total Energy       :        -1288.45218257 Eh          -35060.56633 eV

Components:
Nuclear Repulsion  :         2037.87458314 Eh           55453.38660 eV
Electronic Energy  :        -3326.32676572 Eh          -90513.95294 eV
One Electron Energy:        -5831.35701227 Eh         -158679.29140 eV
Two Electron Energy:         2505.03024655 Eh           68165.33847 eV
Max COSX asymmetry :            0.00002566 Eh               0.00070 eV

Virial components:
Potential Energy   :        -2501.53223501 Eh          -68070.15273 eV
Kinetic Energy     :         1213.08005244 Eh           33009.58640 eV
Virial Ratio       :            2.06213286


DFT components:
N(Alpha)           :       82.000294052799 electrons
N(Beta)            :       82.000294052799 electrons
N(Total)           :      164.000588105598 electrons
E(X)               :      -79.592612482400 Eh       
E(C)               :       -7.461086606124 Eh       
E(XC)              :      -87.053699088525 Eh       
DFET-embed. en.    :        0.000000000000 Eh       

---------------
SCF CONVERGENCE
---------------

  Last Energy change         ...   -4.4183e-09  Tolerance :   1.0000e-08
  Last MAX-Density change    ...    0.0000e+00  Tolerance :   1.0000e-07
  Last RMS-Density change    ...    0.0000e+00  Tolerance :   5.0000e-09
  Last DIIS Error            ...    3.0400e-07  Tolerance :   5.0000e-07

             **** THE GBW FILE WAS UPDATED (reaction4-IEIP_ts_guess_scan_12-10_orca.gbw) ****
             **** DENSITY reaction4-IEIP_ts_guess_scan_12-10_orca.scfp WAS UPDATED ****
             **** ENERGY FILE WAS UPDATED (reaction4-IEIP_ts_guess_scan_12-10_orca.en.tmp) ****
             **** THE GBW FILE WAS UPDATED (reaction4-IEIP_ts_guess_scan_12-10_orca.gbw) ****
             **** DENSITY reaction4-IEIP_ts_guess_scan_12-10_orca.scfp WAS UPDATED ****
----------------
ORBITAL ENERGIES
----------------

  NO   OCC          E(Eh)            E(eV) 
   0   2.0000     -89.762724     -2442.5679 
   1   2.0000     -19.636463      -534.3353 
   2   2.0000     -19.625462      -534.0360 
   3   2.0000     -14.832684      -403.6179 
   4   2.0000     -10.698646      -291.1249 
   5   2.0000     -10.652780      -289.8769 
   6   2.0000     -10.625360      -289.1308 
   7   2.0000     -10.623409      -289.0777 
   8   2.0000     -10.623177      -289.0713 
   9   2.0000     -10.622625      -289.0563 
  10   2.0000     -10.613606      -288.8109 
  11   2.0000     -10.612595      -288.7834 
  12   2.0000     -10.612370      -288.7773 
  13   2.0000     -10.609457      -288.6980 
  14   2.0000     -10.588585      -288.1301 
  15   2.0000     -10.588033      -288.1150 
  16   2.0000     -10.552954      -287.1605 
  17   2.0000     -10.550498      -287.0936 
  18   2.0000     -10.546298      -286.9793 
  19   2.0000      -8.402121      -228.6333 
  20   2.0000      -6.291999      -171.2140 
  21   2.0000      -6.288461      -171.1177 
  22   2.0000      -6.287094      -171.0805 
  23   2.0000      -4.020649      -109.4074 
  24   2.0000      -2.337795       -63.6146 
  25   2.0000      -2.307194       -62.7819 
  26   2.0000      -2.303826       -62.6903 
  27   2.0000      -1.330511       -36.2051 
  28   2.0000      -1.230057       -33.4716 
  29   2.0000      -1.208812       -32.8934 
  30   2.0000      -1.159593       -31.5541 
  31   2.0000      -1.126806       -30.6620 
  32   2.0000      -1.024705       -27.8836 
  33   2.0000      -0.972434       -26.4613 
  34   2.0000      -0.969176       -26.3726 
  35   2.0000      -0.966096       -26.2888 
  36   2.0000      -0.958509       -26.0824 
  37   2.0000      -0.941631       -25.6231 
  38   2.0000      -0.900036       -24.4912 
  39   2.0000      -0.871586       -23.7171 
  40   2.0000      -0.798416       -21.7260 
  41   2.0000      -0.782038       -21.2803 
  42   2.0000      -0.776383       -21.1265 
  43   2.0000      -0.775800       -21.1106 
  44   2.0000      -0.764109       -20.7925 
  45   2.0000      -0.760555       -20.6958 
  46   2.0000      -0.743102       -20.2208 
  47   2.0000      -0.722575       -19.6623 
  48   2.0000      -0.695522       -18.9261 
  49   2.0000      -0.685275       -18.6473 
  50   2.0000      -0.664076       -18.0704 
  51   2.0000      -0.662749       -18.0343 
  52   2.0000      -0.649695       -17.6791 
  53   2.0000      -0.639174       -17.3928 
  54   2.0000      -0.630823       -17.1656 
  55   2.0000      -0.627708       -17.0808 
  56   2.0000      -0.621290       -16.9062 
  57   2.0000      -0.610583       -16.6148 
  58   2.0000      -0.599358       -16.3094 
  59   2.0000      -0.596635       -16.2353 
  60   2.0000      -0.595774       -16.2118 
  61   2.0000      -0.590910       -16.0795 
  62   2.0000      -0.579339       -15.7646 
  63   2.0000      -0.569822       -15.5056 
  64   2.0000      -0.566808       -15.4236 
  65   2.0000      -0.561934       -15.2910 
  66   2.0000      -0.556366       -15.1395 
  67   2.0000      -0.546546       -14.8723 
  68   2.0000      -0.542763       -14.7693 
  69   2.0000      -0.535365       -14.5680 
  70   2.0000      -0.530429       -14.4337 
[...]

----------------------
LOEWDIN ATOMIC CHARGES
----------------------
   0 Ir:   -0.262187
   1 C :   -0.062506
   2 C :   -0.098345
   3 C :   -0.100876
   4 C :   -0.039247
   5 C :   -0.019002
   6 N :   -0.004189
   7 C :   -0.069343
   8 C :   -0.361912
   9 H :    0.155935
  10 H :    0.132732
  11 H :    0.142901
  12 C :   -0.343904
  13 H :    0.153750
  14 H :    0.150335
  15 H :    0.138064
  16 H :    0.133384
  17 C :    0.028416
  18 C :   -0.192973
  19 H :    0.159919
  20 C :   -0.218730
  21 C :   -0.129342
  22 S :    0.497261
  23 C :   -0.256874
  24 H :    0.367121
  25 H :    0.162128
  26 H :    0.169341
  27 H :    0.181528
  28 H :    0.178394
  29 H :    0.186751
  30 O :   -0.257981
  31 O :   -0.175874
  32 C :    0.166972
  33 C :   -0.371201
  34 H :    0.165138
  35 H :    0.172904
  36 H :    0.156762
  37 H :    0.180823
  38 H :    0.183929

-------------------------------
LOEWDIN REDUCED ORBITAL CHARGES
-------------------------------
  0 Irs       :     2.450398  s :     2.450398
      pz      :     2.256490  p :     6.779462
      px      :     2.256417
      py      :     2.266555
      dz2     :     1.715943  d :     7.943218
      dxz     :     1.643681
      dyz     :     1.449844
      dx2y2   :     1.599092
      dxy     :     1.534659
      f0      :     0.010580  f :     0.089109
      f+1     :     0.005773
      f-1     :     0.016242
      f+2     :     0.013622
      f-2     :     0.016008
      f+3     :     0.010686
      f-3     :     0.016197
  1 C s       :     2.873294  s :     2.873294
      pz      :     1.053632  p :     3.086415
      px      :     1.073238
      py      :     0.959545
      dz2     :     0.025723  d :     0.102797
      dxz     :     0.025297
      dyz     :     0.016198
      dx2y2   :     0.019001
      dxy     :     0.016579
  2 C s       :     2.876014  s :     2.876014
      pz      :     1.036338  p :     3.124201
      px      :     1.090580
      py      :     0.997283
      dz2     :     0.024156  d :     0.098130
      dxz     :     0.028168
      dyz     :     0.015968
      dx2y2   :     0.017207
      dxy     :     0.012632
  3 C s       :     2.870703  s :     2.870703
      pz      :     1.028725  p :     3.131516
      px      :     1.083164
      py      :     1.019627
      dz2     :     0.022018  d :     0.098658
      dxz     :     0.031065
      dyz     :     0.015440
      dx2y2   :     0.016399
      dxy     :     0.013735
  4 C s       :     2.874348  s :     2.874348
      pz      :     1.078663  p :     3.060153
      px      :     1.044579
      py      :     0.936912
      dz2     :     0.023005  d :     0.104745
      dxz     :     0.028749
      dyz     :     0.013559
      dx2y2   :     0.020060
      dxy     :     0.019372
  5 C s       :     2.881716  s :     2.881716
      pz      :     1.047560  p :     3.033735
      px      :     1.044266
      py      :     0.941909
      dz2     :     0.021245  d :     0.103552
      dxz     :     0.031255
      dyz     :     0.015714
      dx2y2   :     0.015831
      dxy     :     0.019507
  6 N s       :     3.122624  s :     3.122624
      pz      :     1.248329  p :     3.783224
      px      :     1.287108
      py      :     1.247788
      dz2     :     0.030046  d :     0.098340
      dxz     :     0.027123
      dyz     :     0.018285
      dx2y2   :     0.012726
      dxy     :     0.010160
  7 C s       :     2.862257  s :     2.862257
      pz      :     1.055889  p :     3.072397
      px      :     0.939109
      py      :     1.077398
      dz2     :     0.028682  d :     0.134689
      dxz     :     0.028915
      dyz     :     0.013037
      dx2y2   :     0.030894
      dxy     :     0.033161
  8 C s       :     2.953485  s :     2.953485
      pz      :     1.138777  p :     3.340911
      px      :     1.123508
      py      :     1.078626
      dz2     :     0.015148  d :     0.067516
      dxz     :     0.017224
      dyz     :     0.005270
      dx2y2   :     0.010895
      dxy     :     0.018979
  9 H s       :     0.844065  s :     0.844065
 10 H s       :     0.867268  s :     0.867268
 11 H s       :     0.857099  s :     0.857099
 12 C s       :     2.953512  s :     2.953512
      pz      :     1.145141  p :     3.322445
      px      :     1.108776
      py      :     1.068528
      dz2     :     0.015129  d :     0.067947
      dxz     :     0.014059
      dyz     :     0.008012
      dx2y2   :     0.012589
      dxy     :     0.018158
 13 H s       :     0.846250  s :     0.846250
 14 H s       :     0.849665  s :     0.849665
 15 H s       :     0.861936  s :     0.861936
 16 H s       :     0.866616  s :     0.866616
 17 C s       :     2.875660  s :     2.875660
      pz      :     1.004740  p :     2.955633
      px      :     1.062435
      py      :     0.888458
      dz2     :     0.038293  d :     0.140291
      dxz     :     0.047091
      dyz     :     0.026834
      dx2y2   :     0.012921
      dxy     :     0.015151
 18 C s       :     2.890134  s :     2.890134
      pz      :     1.049335  p :     3.190123
      px      :     1.085391
      py      :     1.055397
      dz2     :     0.033478  d :     0.112715
      dxz     :     0.034099
      dyz     :     0.017490
      dx2y2   :     0.015713
      dxy     :     0.011934
 19 H s       :     0.840081  s :     0.840081
 20 C s       :     2.897622  s :     2.897622
      pz      :     1.146320  p :     3.218216
      px      :     1.059877
      py      :     1.012019
      dz2     :     0.015190  d :     0.102893
      dxz     :     0.039070
      dyz     :     0.013915
      dx2y2   :     0.018107
      dxy     :     0.016611
 21 C s       :     2.896226  s :     2.896226
      pz      :     1.076165  p :     3.138479
      px      :     1.084175
      py      :     0.978138
      dz2     :     0.028585  d :     0.094637
      dxz     :     0.031691
      dyz     :     0.014825
      dx2y2   :     0.012100
      dxy     :     0.007435
 22 S s       :     5.498518  s :     5.498518
      pz      :     3.258943  p :     9.848290
      px      :     3.080466
      py      :     3.508881
      dz2     :     0.048812  d :     0.155931
      dxz     :     0.036134
      dyz     :     0.017419
      dx2y2   :     0.026172
      dxy     :     0.027393
 23 C s       :     2.964036  s :     2.964036
      pz      :     1.120001  p :     3.207031
      px      :     1.030222
      py      :     1.056808
      dz2     :     0.023736  d :     0.085807
      dxz     :     0.030798
      dyz     :     0.011509
      dx2y2   :     0.011090
      dxy     :     0.008675
 24 H s       :     0.632879  s :     0.632879
 25 H s       :     0.837872  s :     0.837872
 26 H s       :     0.830659  s :     0.830659
 27 H s       :     0.818472  s :     0.818472
 28 H s       :     0.821606  s :     0.821606
 29 H s       :     0.813249  s :     0.813249
 30 O s       :     3.515524  s :     3.515524
      pz      :     1.447125  p :     4.688008
      px      :     1.583509
      py      :     1.657374
      dz2     :     0.015459  d :     0.054449
      dxz     :     0.015236
      dyz     :     0.013891
      dx2y2   :     0.006147
      dxy     :     0.003717
 31 O s       :     3.441670  s :     3.441670
      pz      :     1.688303  p :     4.673779
      px      :     1.587388
      py      :     1.398089
      dz2     :     0.008966  d :     0.060425
      dxz     :     0.004773
      dyz     :     0.015147
      dx2y2   :     0.014475
      dxy     :     0.017065
 32 C s       :     2.813140  s :     2.813140
      pz      :     0.959527  p :     2.702047
      px      :     0.777509
      py      :     0.965011
      dz2     :     0.070472  d :     0.317841
      dxz     :     0.052368
      dyz     :     0.092837
      dx2y2   :     0.051710
      dxy     :     0.050455
 33 C s       :     2.958126  s :     2.958126
      pz      :     1.104434  p :     3.350512
      px      :     1.154922
      py      :     1.091156
      dz2     :     0.004179  d :     0.062563
      dxz     :     0.016400
      dyz     :     0.021367
      dx2y2   :     0.018375
      dxy     :     0.002243
 34 H s       :     0.834862  s :     0.834862
 35 H s       :     0.827096  s :     0.827096
 36 H s       :     0.843238  s :     0.843238
 37 H s       :     0.819177  s :     0.819177
 38 H s       :     0.816071  s :     0.816071


                      *****************************
                      * MAYER POPULATION ANALYSIS *
                      *****************************

  NA   - Mulliken gross atomic population
  ZA   - Total nuclear charge
  QA   - Mulliken gross atomic charge
  VA   - Mayer's total valence
  BVA  - Mayer's bonded valence
  FA   - Mayer's free valence

  ATOM       NA         ZA         QA         VA         BVA        FA
  0 Ir    16.3901    17.0000     0.6099     3.7600     3.7600    -0.0000
  1 C      6.2532     6.0000    -0.2532     3.7310     3.7310     0.0000
  2 C      6.2540     6.0000    -0.2540     3.7296     3.7296    -0.0000
  3 C      6.2771     6.0000    -0.2771     3.7454     3.7454     0.0000
  4 C      6.2191     6.0000    -0.2191     3.7139     3.7139    -0.0000
  5 C      6.1517     6.0000    -0.1517     3.6996     3.6996     0.0000
  6 N      7.4347     7.0000    -0.4347     3.2133     3.2133     0.0000
  7 C      6.1264     6.0000    -0.1264     3.7104     3.7104     0.0000
  8 C      6.6800     6.0000    -0.6800     3.6891     3.6891     0.0000
  9 H      0.7312     1.0000     0.2688     0.8976     0.8976     0.0000
 10 H      0.7756     1.0000     0.2244     0.9109     0.9109     0.0000
 11 H      0.7472     1.0000     0.2528     0.9009     0.9009     0.0000
 12 C      6.6330     6.0000    -0.6330     3.6715     3.6715    -0.0000
 13 H      0.7225     1.0000     0.2775     0.8735     0.8735    -0.0000
 14 H      0.7421     1.0000     0.2579     0.8990     0.8990    -0.0000
 15 H      0.7672     1.0000     0.2328     0.9095     0.9095    -0.0000
 16 H      0.7660     1.0000     0.2340     0.9059     0.9059     0.0000
 17 C      5.9309     6.0000     0.0691     3.6661     3.6661     0.0000
 18 C      6.1201     6.0000    -0.1201     3.6866     3.6866    -0.0000
 19 H      0.7156     1.0000     0.2844     0.8871     0.8871    -0.0000
 20 C      6.5705     6.0000    -0.5705     3.5715     3.5715     0.0000
 21 C      6.0995     6.0000    -0.0995     3.7474     3.7474    -0.0000
 22 S     15.6568    16.0000     0.3432     2.5971     2.5971     0.0000
 23 C      6.4254     6.0000    -0.4254     3.7527     3.7527     0.0000
 24 H      0.5257     1.0000     0.4743     0.7434     0.7434     0.0000
 25 H      0.7329     1.0000     0.2671     0.9013     0.9013     0.0000
 26 H      0.7022     1.0000     0.2978     0.8973     0.8973     0.0000
 27 H      0.7159     1.0000     0.2841     0.9068     0.9068     0.0000
 28 H      0.7198     1.0000     0.2802     0.9095     0.9095     0.0000
 29 H      0.7043     1.0000     0.2957     0.8965     0.8965     0.0000
 30 O      8.4825     8.0000    -0.4825     2.1383     2.1383    -0.0000
 31 O      8.5024     8.0000    -0.5024     2.1223     2.1223    -0.0000
 32 C      5.3662     6.0000     0.6338     3.8884     3.8884    -0.0000
 33 C      6.7438     6.0000    -0.7438     3.6567     3.6567    -0.0000
 34 H      0.7262     1.0000     0.2738     0.8928     0.8928    -0.0000
 35 H      0.7233     1.0000     0.2767     0.8907     0.8907    -0.0000
 36 H      0.7369     1.0000     0.2631     0.8968     0.8968    -0.0000
 37 H      0.7198     1.0000     0.2802     0.9102     0.9102    -0.0000
 38 H      0.7080     1.0000     0.2920     0.9033     0.9033     0.0000

  Mayer bond orders larger than 0.100000
B(  0-Ir,  1-C ) :   0.4553 B(  0-Ir,  2-C ) :   0.3861 B(  0-Ir,  3-C ) :   0.4717 
B(  0-Ir,  4-C ) :   0.4217 B(  0-Ir,  5-C ) :   0.3591 B(  0-Ir,  6-N ) :   0.4648 
B(  0-Ir, 20-C ) :   0.5235 B(  0-Ir, 31-O ) :   0.5097 B(  1-C ,  2-C ) :   1.1255 
B(  1-C ,  4-C ) :   1.2181 B(  1-C , 27-H ) :   0.9092 B(  2-C ,  5-C ) :   1.2345 
B(  2-C , 28-H ) :   0.9102 B(  3-C ,  4-C ) :   1.1463 B(  3-C ,  5-C ) :   1.1632 
B(  3-C , 37-H ) :   0.9143 B(  4-C , 38-H ) :   0.8996 B(  5-C , 29-H ) :   0.9021 
B(  6-N ,  7-C ) :   0.8964 B(  6-N , 17-C ) :   1.6443 B(  7-C ,  8-C ) :   0.9902 
B(  7-C , 12-C ) :   0.9669 B(  7-C , 13-H ) :   0.8779 B(  8-C ,  9-H ) :   0.9049 
B(  8-C , 10-H ) :   0.9131 B(  8-C , 11-H ) :   0.9126 B( 12-C , 14-H ) :   0.9080 
B( 12-C , 15-H ) :   0.9152 B( 12-C , 16-H ) :   0.9119 B( 17-C , 18-C ) :   1.1179 
B( 17-C , 19-H ) :   0.8767 B( 18-C , 20-C ) :   1.2219 B( 18-C , 22-S ) :   1.2372 
B( 20-C , 21-C ) :   1.2647 B( 20-C , 24-H ) :   0.3170 B( 21-C , 23-C ) :   1.5390 
B( 21-C , 25-H ) :   0.9021 B( 22-S , 23-C ) :   1.2206 B( 23-C , 26-H ) :   0.8916 
B( 24-H , 30-O ) :   0.3660 B( 30-O , 32-C ) :   1.5410 B( 31-O , 32-C ) :   1.3987 
B( 32-C , 33-C ) :   0.9448 B( 33-C , 34-H ) :   0.8994 B( 33-C , 35-H ) :   0.8924 
B( 33-C , 36-H ) :   0.9076 


------------------
HIRSHFELD ANALYSIS
------------------

Total integrated alpha density =     82.000215477
Total integrated beta density  =     82.000215477

  ATOM     CHARGE      SPIN    
   0 Ir   0.169238    0.000000
   1 C   -0.005956    0.000000
   2 C   -0.017594    0.000000
   3 C   -0.023633    0.000000
   4 C    0.003333    0.000000
   5 C    0.018047    0.000000
   6 N   -0.069563    0.000000
   7 C    0.052233    0.000000
   8 C   -0.071571    0.000000
   9 H    0.052983    0.000000
  10 H    0.037476    0.000000
  11 H    0.040515    0.000000
  12 C   -0.071186    0.000000
  13 H    0.044377    0.000000
  14 H    0.049472    0.000000
  15 H    0.037491    0.000000
  16 H    0.030839    0.000000
  17 C    0.092515    0.000000
  18 C   -0.010605    0.000000
  19 H    0.076500    0.000000
  20 C   -0.091347    0.000000
  21 C   -0.027469    0.000000
  22 S    0.143366    0.000000
  23 C   -0.024422    0.000000
  24 H    0.110033    0.000000
  25 H    0.067955    0.000000
  26 H    0.079415    0.000000
  27 H    0.079938    0.000000
  28 H    0.077759    0.000000
  29 H    0.089617    0.000000
  30 O   -0.225350    0.000000
  31 O   -0.241312    0.000000
  32 C    0.253186    0.000000
  33 C   -0.061246    0.000000
  34 H    0.059056    0.000000
  35 H    0.064754    0.000000
  36 H    0.052184    0.000000
  37 H    0.078919    0.000000
  38 H    0.079624    0.000000

  TOTAL   0.999569    0.000000

-------
TIMINGS
-------

Total SCF time: 0 days 0 hours 4 min 40 sec 

Total time                  ....     280.136 sec
Sum of individual times     ....     279.517 sec  ( 99.8%)

Fock matrix formation       ....     271.237 sec  ( 96.8%)
  Split-RI-J                ....      19.938 sec  (  7.4% of F)
  Chain of spheres X        ....     236.742 sec  ( 87.3% of F)
  XC integration            ....      14.442 sec  (  5.3% of F)
    Basis function eval.    ....       6.748 sec  ( 46.7% of XC)
    Density eval.           ....       3.809 sec  ( 26.4% of XC)
    XC-Functional eval.     ....       1.075 sec  (  7.4% of XC)
    XC-Potential eval.      ....       2.263 sec  ( 15.7% of XC)
Diagonalization             ....       0.225 sec  (  0.1%)
Density matrix formation    ....       0.035 sec  (  0.0%)
Population analysis         ....       1.453 sec  (  0.5%)
Initial guess               ....       0.031 sec  (  0.0%)
Orbital Transformation      ....       0.000 sec  (  0.0%)
Orbital Orthonormalization  ....       0.023 sec  (  0.0%)
DIIS solution               ....       0.085 sec  (  0.0%)
Grid generation             ....       6.451 sec  (  2.3%)

Maximum memory used throughout the entire SCF-calculation: 173.3 MB


-------------------------------------------------------------------------------
                          DFT DISPERSION CORRECTION                            
                                                                               
                              DFTD3 V3.1  Rev 1                                
                          USING Becke-Johnson damping                          
-------------------------------------------------------------------------------
The PBEh-3c composite method is recognized
Using three-body term ABC
Active option DFTDOPT                   ...         4   

molecular C6(AA) [au] = 19538.863528 


            DFT-D V3
 parameters
 s6 scaling factor         :     1.0000 
 a1 scaling factor         :     0.4860 
 s8 scaling factor         :     0.0000 
 a2 scaling factor         :     4.5000 
 Damping factor alpha9(ATM):    16.0000 
 ad hoc parameters k1-k3   :    16.0000     1.3333    -4.0000 

 Edisp/kcal,au: -19.257814366047  -0.030689277386 
 E6   /kcal   : -19.593030906 
 E8   /kcal   :  -0.000000000 
 E6(ABC)      :   0.335216540 
 % E8         :   0.000000000 
 % E6(ABC)    :  -1.740678010 

-------------------------   ----------------
Dispersion correction           -0.030689277
-------------------------   ----------------

 ** NOTE ** -> element ir will be treated as co
NOTIFICATION: Different basis set in ORCA and otool_gcp:
ORCA: 358  gCP: 357 
If you are NOT using ECPs, check your basis set inputs!
------------------   -----------------
gCP correction             0.079670979
------------------   -----------------

-------------------------   --------------------
FINAL SINGLE POINT ENERGY     -1288.402992503155
-------------------------   --------------------

                                *** OPTIMIZATION RUN DONE ***

                            ***************************************
                            *     ORCA property calculations      *
                            ***************************************

                                    ---------------------
                                    Active property flags
                                    ---------------------
   (+) Dipole Moment


------------------------------------------------------------------------------
                       ORCA ELECTRIC PROPERTIES CALCULATION
------------------------------------------------------------------------------

Dipole Moment Calculation                       ... on
Quadrupole Moment Calculation                   ... off
Polarizability Calculation                      ... off
GBWName                                         ... reaction4-IEIP_ts_guess_scan_12-10_orca.gbw
Electron density                                ... reaction4-IEIP_ts_guess_scan_12-10_orca.scfp
The origin for moment calculation is the CENTER OF MASS  = ( 0.867413, -0.547521 -0.188569)

-------------
DIPOLE MOMENT
-------------
                                X             Y             Z
Electronic contribution:     37.52720     -74.60969      70.27475
Nuclear contribution   :    -38.10737      74.25784     -70.50047
                        -----------------------------------------
Total Dipole Moment    :     -0.58017      -0.35186      -0.22572
                        -----------------------------------------
Magnitude (a.u.)       :      0.71508
Magnitude (Debye)      :      1.81760



--------------------
Rotational spectrum 
--------------------
 
Rotational constants in cm-1:     0.010556     0.008858     0.008225 
Rotational constants in MHz :   316.473771   265.545100   246.573262 

 Dipole components along the rotational axes: 
x,y,z [a.u.] :     0.028520     0.183023     0.690676 
x,y,z [Debye]:     0.072491     0.465207     1.755560 

 

Timings for individual modules:

Sum of individual times         ...     7358.461 sec (= 122.641 min)
GTO integral calculation        ...       26.439 sec (=   0.441 min)   0.4 %
SCF iterations                  ...     5737.773 sec (=  95.630 min)  78.0 %
SCF Gradient evaluation         ...     1590.197 sec (=  26.503 min)  21.6 %
Geometry relaxation             ...        4.052 sec (=   0.068 min)   0.1 %
                             ****ORCA TERMINATED NORMALLY****
TOTAL RUN TIME: 0 days 2 hours 2 minutes 45 seconds 187 msec
