
                                 *****************
                                 * O   R   C   A *
                                 *****************

                                            #,                                       
                                            ###                                      
                                            ####                                     
                                            #####                                    
                                            ######                                   
                                           ########,                                 
                                     ,,################,,,,,                         
                               ,,#################################,,                 
                          ,,##########################################,,             
                       ,#########################################, ''#####,          
                    ,#############################################,,   '####,        
                  ,##################################################,,,,####,       
                ,###########''''           ''''###############################       
              ,#####''   ,,,,##########,,,,          '''####'''          '####       
            ,##' ,,,,###########################,,,                        '##       
           ' ,,###''''                  '''############,,,                           
         ,,##''                                '''############,,,,        ,,,,,,###''
      ,#''                                            '''#######################'''  
     '                                                          ''''####''''         
             ,#######,   #######,   ,#######,      ##                                
            ,#'     '#,  ##    ##  ,#'     '#,    #''#        ######   ,####,        
            ##       ##  ##   ,#'  ##            #'  '#       #        #'  '#        
            ##       ##  #######   ##           ,######,      #####,   #    #        
            '#,     ,#'  ##    ##  '#,     ,#' ,#      #,         ##   #,  ,#        
             '#######'   ##     ##  '#######'  #'      '#     #####' # '####'        



                  #######################################################
                  #                        -***-                        #
                  #          Department of theory and spectroscopy      #
                  #    Directorship and core code : Frank Neese         #
                  #        Max Planck Institute fuer Kohlenforschung    #
                  #                Kaiser Wilhelm Platz 1               #
                  #                 D-45470 Muelheim/Ruhr               #
                  #                      Germany                        #
                  #                                                     #
                  #                  All rights reserved                #
                  #                        -***-                        #
                  #######################################################


                         Program Version 5.0.3 -  RELEASE  -


 With contributions from (in alphabetic order):
   Daniel Aravena         : Magnetic Suceptibility
   Michael Atanasov       : Ab Initio Ligand Field Theory (pilot matlab implementation)
   Alexander A. Auer      : GIAO ZORA, VPT2 properties, NMR spectrum
   Ute Becker             : Parallelization
   Giovanni Bistoni       : ED, misc. LED, open-shell LED, HFLD
   Martin Brehm           : Molecular dynamics
   Dmytro Bykov           : SCF Hessian
   Vijay G. Chilkuri      : MRCI spin determinant printing, contributions to CSF-ICE
   Dipayan Datta          : RHF DLPNO-CCSD density
   Achintya Kumar Dutta   : EOM-CC, STEOM-CC
   Dmitry Ganyushin       : Spin-Orbit,Spin-Spin,Magnetic field MRCI
   Miquel Garcia          : C-PCM and meta-GGA Hessian, CC/C-PCM, Gaussian charge scheme
   Yang Guo               : DLPNO-NEVPT2, F12-NEVPT2, CIM, IAO-localization
   Andreas Hansen         : Spin unrestricted coupled pair/coupled cluster methods
   Benjamin Helmich-Paris : MC-RPA, TRAH-SCF, COSX integrals
   Lee Huntington         : MR-EOM, pCC
   Robert Izsak           : Overlap fitted RIJCOSX, COSX-SCS-MP3, EOM
   Marcus Kettner         : VPT2
   Christian Kollmar      : KDIIS, OOCD, Brueckner-CCSD(T), CCSD density, CASPT2, CASPT2-K
   Simone Kossmann        : Meta GGA functionals, TD-DFT gradient, OOMP2, MP2 Hessian
   Martin Krupicka        : Initial AUTO-CI
   Lucas Lang             : DCDCAS
   Marvin Lechner         : AUTO-CI (C++ implementation), FIC-MRCC
   Dagmar Lenk            : GEPOL surface, SMD
   Dimitrios Liakos       : Extrapolation schemes; Compound Job, initial MDCI parallelization
   Dimitrios Manganas     : Further ROCIS development; embedding schemes
   Dimitrios Pantazis     : SARC Basis sets
   Anastasios Papadopoulos: AUTO-CI, single reference methods and gradients
   Taras Petrenko         : DFT Hessian,TD-DFT gradient, ASA, ECA, R-Raman, ABS, FL, XAS/XES, NRVS
   Peter Pinski           : DLPNO-MP2, DLPNO-MP2 Gradient
   Christoph Reimann      : Effective Core Potentials
   Marius Retegan         : Local ZFS, SOC
   Christoph Riplinger    : Optimizer, TS searches, QM/MM, DLPNO-CCSD(T), (RO)-DLPNO pert. Triples
   Tobias Risthaus        : Range-separated hybrids, TD-DFT gradient, RPA, STAB
   Michael Roemelt        : Original ROCIS implementation
   Masaaki Saitow         : Open-shell DLPNO-CCSD energy and density
   Barbara Sandhoefer     : DKH picture change effects
   Avijit Sen             : IP-ROCIS
   Kantharuban Sivalingam : CASSCF convergence, NEVPT2, FIC-MRCI
   Bernardo de Souza      : ESD, SOC TD-DFT
   Georgi Stoychev        : AutoAux, RI-MP2 NMR, DLPNO-MP2 response
   Willem Van den Heuvel  : Paramagnetic NMR
   Boris Wezisla          : Elementary symmetry handling
   Frank Wennmohs         : Technical directorship


 We gratefully acknowledge several colleagues who have allowed us to
 interface, adapt or use parts of their codes:
   Stefan Grimme, W. Hujo, H. Kruse, P. Pracht,  : VdW corrections, initial TS optimization,
                  C. Bannwarth, S. Ehlert          DFT functionals, gCP, sTDA/sTD-DF
   Ed Valeev, F. Pavosevic, A. Kumar             : LibInt (2-el integral package), F12 methods
   Garnet Chan, S. Sharma, J. Yang, R. Olivares  : DMRG
   Ulf Ekstrom                                   : XCFun DFT Library
   Mihaly Kallay                                 : mrcc  (arbitrary order and MRCC methods)
   Jiri Pittner, Ondrej Demel                    : Mk-CCSD
   Frank Weinhold                                : gennbo (NPA and NBO analysis)
   Christopher J. Cramer and Donald G. Truhlar   : smd solvation model
   Lars Goerigk                                  : TD-DFT with DH, B97 family of functionals
   V. Asgeirsson, H. Jonsson                     : NEB implementation
   FAccTs GmbH                                   : IRC, NEB, NEB-TS, DLPNO-Multilevel, CI-OPT
                                                   MM, QMMM, 2- and 3-layer-ONIOM, Crystal-QMMM,
                                                   LR-CPCM, SF, NACMEs, symmetry and pop. for TD-DFT,
                                                   nearIR, NL-DFT gradient (VV10), updates on ESD,
                                                   ML-optimized integration grids
   S Lehtola, MJT Oliveira, MAL Marques          : LibXC Library
   Liviu Ungur et al                             : ANISO software


 Your calculation uses the libint2 library for the computation of 2-el integrals
 For citations please refer to: http://libint.valeyev.net

 Your ORCA version has been built with support for libXC version: 5.1.0
 For citations please refer to: https://tddft.org/programs/libxc/

 This ORCA versions uses:
   CBLAS   interface :  Fast vector & matrix operations
   LAPACKE interface :  Fast linear algebra routines
   SCALAPACK package :  Parallel linear algebra routines
   Shared memory     :  Shared parallel matrices
   BLAS/LAPACK       :  OpenBLAS 0.3.15  USE64BITINT DYNAMIC_ARCH NO_AFFINITY SkylakeX SINGLE_THREADED
        Core in use  :  SkylakeX
   Copyright (c) 2011-2014, The OpenBLAS Project


Your calculation utilizes the geometrical counterpoise correction gCP
Please cite in your paper:
H.Kruse, S. Grimme J.Chem.Phys., 136, (2012), 154101 
   

Your calculation utilizes the atom-pairwise dispersion correction
with the Becke-Johnson damping scheme (D3BJ)
Cite in your paper:
S.Grimme, S.Ehrlich, L.Goerigk, J Comput Chem, (2011), 32, 1456–1465 
S.Grimme, J.Antony, S.Ehrlich and H.Krieg, J.Chem.Phys., 132, (2010), 154104 
   

Your calculation employs the composite approach PBEh-3c.
Please cite in your paper:
S. Grimme, J. G. Brandenburg, C. Bannwarth, A. Hansen J.Chem.Phys., 143, (2015), 054107 
   

================================================================================

cite the ECPs for Ir [Def2-ECP] as follows:
Ce-Yb(ecp-28): M. Dolg, H. Stoll, H.Preuss, J. Chem. Phys., 1989, 90, 1730-1734.
Y-Cd(ecp-28), Hf-Hg(ecp-46): D. Andrae,U. Haeussermann, M. Dolg, H. Stoll, H. Preuss, Theor. Chim. Acta, 1990, 77, 123-141.
In-Sb(ecp-28), Tl-Bi(ecp-46): B. Metz, H. Stoll, M. Dolg, J. Chem. Phys., 2000, 113, 2563-2569.
Te-Xe(ecp-28), Po-Rn(ecp-46): K. A. Peterson, D. Figgen, E. Goll, H. Stoll, M. Dolg, J. Chem. Phys., 2003, 119, 11113-11123.
Rb(ecp-28), Cs(ecp-46): T. Leininger, A. Nicklass, W. Kuechle, H. Stoll, M. Dolg, A. Bergner, Chem. Phys. Lett., 1996, 255, 274-280.
Sr(ecp-28), Ba(ecp-46): M. Kaupp, P. V. Schleyer, H. Stoll and H. Preuss, J. Chem. Phys., 1991, 94, 1360-1366.
La(ecp-46): M. Dolg, H. Stoll, A. Savin, H. Preuss, Theor. Chim. Acta, 1989, 75, 173-194.
Lu(ecp-28): X. Cao, M. Dolg, J. Chem. Phys., 2001, 115, 7348-7355.

ECP parameters for Ir [Def2-ECP] have been obtained from:
TURBOMOLE (7.0.2)

----- Orbital basis set information -----
Your calculation utilizes the basis: def2-mSVP

----- AuxJ basis set information -----
Your calculation utilizes the auxiliary basis: def2/J
   F. Weigend, Phys. Chem. Chem. Phys. 8, 1057 (2006).

================================================================================
                                        WARNINGS
                       Please study these warnings very carefully!
================================================================================


WARNING: Geometry Optimization
  ===> : Switching off AutoStart
         For restart on a previous wavefunction, please use MOREAD

WARNING: No Hueckel Guess possible with ECP basis!
  ===> : Switching to HCORE guess!

INFO   : the flag for use of the SHARK integral package has been found!

================================================================================
                                       INPUT FILE
================================================================================
NAME = reaction4-IEIP_ts_guess_scan_12-6_orca.inp
|  1> ! Opt PBEh-3c
|  2> %geom Constraints
|  3> { B 0 20 2.085714285714286 C }
|  4> { B 24 30 1.4142857142857144 C }
|  5>     end
|  6> end
|  7> %output 
|  8> xyzfile=True 
|  9> end 
| 10> %scf 
| 11> maxiter 250 
| 12> end
| 13> %output
| 14> Print[P_Hirshfeld] = 1
| 15> end
| 16> % maxcore
| 17> 4000
| 18> *xyz 1 1
| 19> Ir   0.61974823  -0.72222893   0.41801134 
| 20> C    0.13978877  -2.83863153   0.33243850 
| 21> C   -0.04778799  -2.38176530   1.68485689 
| 22> C    2.17283545  -2.06997591   1.11689775 
| 23> C    1.49638519  -2.65516704  -0.01013540 
| 24> C    1.21321800  -1.93338522   2.15392575 
| 25> N   -1.06421748   0.12801053  -0.51294664 
| 26> C   -2.33334676   0.34163949   0.19868860 
| 27> C   -3.13062579   1.53278635  -0.31323239 
| 28> H   -3.95832205   1.72112524   0.36877181 
| 29> H   -3.57105905   1.35754703  -1.29573188 
| 30> H   -2.52792226   2.44032984  -0.35440765 
| 31> C   -3.15743456  -0.94062821   0.15438531 
| 32> H   -2.04745384   0.54147204   1.23235537 
| 33> H   -4.06111054  -0.82090238   0.75058116 
| 34> H   -3.46023526  -1.17835582  -0.86616728 
| 35> H   -2.61112134  -1.79296529   0.55487087 
| 36> C   -0.91298315   0.46344491  -1.74088501 
| 37> C    0.40666708   0.28004796  -2.26819450 
| 38> H   -1.72035019   0.88688803  -2.32960782 
| 39> C    1.45299432   0.09891931  -1.36025548 
| 40> C    2.66392326  -0.17068872  -2.07269461 
| 41> S    0.88225590   0.14381539  -3.88884592 
| 42> C    2.50179092  -0.17200093  -3.42366187 
| 43> H    1.61605423   1.12562204  -0.63548573 
| 44> H    3.62651026  -0.29606755  -1.59834253 
| 45> H    3.25645100  -0.31948455  -4.18118800 
| 46> H   -0.61880130  -3.26568812  -0.30721312 
| 47> H   -0.95832684  -2.42906681   2.26247130 
| 48> H    1.39883759  -1.49075626   3.12243316 
| 49> O    1.70884405   2.32132622   0.14072164 
| 50> O    0.55719569   1.01589219   1.52735018 
| 51> C    1.11131655   2.12104120   1.20999525 
| 52> C    1.04138926   3.22056962   2.23000570 
| 53> H    0.94478082   4.18785453   1.74251834 
| 54> H    1.97409610   3.23567928   2.79646035 
| 55> H    0.22370515   3.07030023   2.92955664 
| 56> H    3.22588133  -1.84673012   1.19109405 
| 57> H    1.94579931  -2.91063275  -0.95865405 
| 58> *
| 59> 
| 60>                          ****END OF INPUT****
================================================================================

                       *****************************
                       * Geometry Optimization Run *
                       *****************************

Geometry optimization settings:
Update method            Update   .... BFGS
Choice of coordinates    CoordSys .... Z-matrix Internals
Initial Hessian          InHess   .... Almoef's Model

Convergence Tolerances:
Energy Change            TolE     ....  5.0000e-06 Eh
Max. Gradient            TolMAXG  ....  3.0000e-04 Eh/bohr
RMS Gradient             TolRMSG  ....  1.0000e-04 Eh/bohr
Max. Displacement        TolMAXD  ....  4.0000e-03 bohr
RMS Displacement         TolRMSD  ....  2.0000e-03 bohr
Strict Convergence                ....  False
------------------------------------------------------------------------------
                        ORCA OPTIMIZATION COORDINATE SETUP
------------------------------------------------------------------------------

The optimization will be done in new redundant internal coordinates
Making redundant internal coordinates   ...  (new redundants) done
Evaluating the initial hessian          ...  (Almloef) done
Evaluating the coordinates              ...  done
Calculating the B-matrix                .... done
Calculating the G-matrix                .... done
Diagonalizing the G-matrix              .... done
Imposing constraints:
 Iter   0:  RMS(Cart)=    0.0184084110 RMS(Int)=    0.0067973004
 Iter   1:  RMS(Cart)=    0.0020919093 RMS(Int)=    0.0008052706
 Iter   2:  RMS(Cart)=    0.0002472877 RMS(Int)=    0.0000950097
 Iter   3:  RMS(Cart)=    0.0000291260 RMS(Int)=    0.0000111580
 Iter   4:  RMS(Cart)=    0.0000034179 RMS(Int)=    0.0000013076
 Iter   5:  RMS(Cart)=    0.0000004004 RMS(Int)=    0.0000001531
 Iter   6:  RMS(Cart)=    0.0000000469 RMS(Int)=    0.0000000179
CONVERGED
Small eigenvalue found = 1.415e-02
Small eigenvalue found = 2.178e-02
The first mode is                       ....  280
The number of degrees of freedom        ....  111
Storing new coordinates                 .... done

    -----------------------------------------------------------------
                    Redundant Internal Coordinates


    -----------------------------------------------------------------
         Definition                    Initial Value    Approx d2E/dq
    -----------------------------------------------------------------
      1. B(C   1,Ir  0)                  2.1717         0.082287   
      2. B(C   2,C   1)                  1.4397         0.520389   
      3. B(C   2,Ir  0)                  2.1917         0.076429   
      4. B(C   3,Ir  0)                  2.1716         0.082280   
      5. B(C   4,C   3)                  1.4386         0.522192   
      6. B(C   4,Ir  0)                  2.1650         0.084318   
      7. B(C   4,C   1)                  1.4115         0.578070   
      8. B(C   5,Ir  0)                  2.1978         0.074663   
      9. B(C   5,C   2)                  1.4192         0.563372   
     10. B(C   5,C   3)                  1.4206         0.560648   
     11. B(N   6,Ir  0)                  2.1042         0.094678   
     12. B(C   7,N   6)                  1.4706         0.416137   
     13. B(C   8,C   7)                  1.5220         0.384687   
     14. B(H   9,C   8)                  1.0889         0.361571   
     15. B(H  10,C   8)                  1.0909         0.358952   
     16. B(H  11,C   8)                  1.0902         0.359808   
     17. B(C  12,C   7)                  1.5249         0.380652   
     18. B(H  13,C   7)                  1.0909         0.358868   
     19. B(H  14,C  12)                  1.0892         0.361125   
     20. B(H  15,C  12)                  1.0908         0.359112   
     21. B(H  16,C  12)                  1.0887         0.361789   
     22. B(C  17,N   6)                  1.2769         0.832475   
     23. B(C  18,C  17)                  1.4281         0.533721   
     24. B(H  19,C  17)                  1.0852         0.366456   
     25. B(C  20,Ir  0)                  2.0857         0.096460 C 
     26. B(C  20,C  18)                  1.3980         0.608652   
     27. B(C  21,C  20)                  1.4313         0.538232   
     28. B(S  22,C  18)                  1.6944         0.550467   
     29. B(C  23,C  21)                  1.3605         0.695898   
     30. B(C  23,S  22)                  1.7136         0.511695   
     31. B(H  24,C  20)                  1.2678         0.187752   
     32. B(H  25,C  21)                  1.0805         0.373001   
     33. B(H  26,C  23)                  1.0794         0.374396   
     34. B(H  27,C   1)                  1.0803         0.373200   
     35. B(H  28,C   2)                  1.0793         0.374493   
     36. B(H  29,C   5)                  1.0809         0.372318   
     37. B(O  30,H  24)                  1.4143         0.092980 C 
     38. B(O  31,Ir  0)                  2.0625         0.109960   
     39. B(C  32,O  30)                  1.2413         0.966778   
     40. B(C  32,O  31)                  1.2761         0.849505   
     41. B(C  33,C  32)                  1.5014         0.414924   
     42. B(H  34,C  33)                  1.0875         0.363446   
     43. B(H  35,C  33)                  1.0914         0.358321   
     44. B(H  36,C  33)                  1.0865         0.364712   
     45. B(H  37,C   3)                  1.0790         0.374944   
     46. B(H  38,C   4)                  1.0802         0.373242   
     47. A(C   1,Ir  0,N   6)          101.4688         0.248341   
     48. A(C   1,Ir  0,C   3)           64.3005         0.244471   
     49. A(C   2,Ir  0,N   6)          108.4574         0.245700   
     50. A(C   2,Ir  0,C   5)           37.7259         0.238569   
     51. A(N   6,Ir  0,O  31)           82.6987         0.257930   
     52. A(C  20,Ir  0,O  31)           97.8370         0.259867   
     53. A(C   2,Ir  0,C  20)          153.3599         0.247497   
     54. A(C   2,Ir  0,O  31)          108.5483         0.251098   
     55. A(C   1,Ir  0,C   5)           63.5277         0.241090   
     56. A(C   3,Ir  0,C   4)           38.7471         0.245332   
     57. A(C   2,Ir  0,C   3)           64.0760         0.241894   
     58. A(C   3,Ir  0,C  20)          103.0708         0.250165   
     59. A(C   4,Ir  0,N   6)          126.6845         0.249223   
     60. A(C   1,Ir  0,O  31)          146.6868         0.253830   
     61. A(C   5,Ir  0,O  31)           92.7375         0.250243   
     62. A(C   5,Ir  0,C  20)          139.9527         0.246660   
     63. A(C   4,Ir  0,C  20)           91.1079         0.251060   
     64. A(C   2,Ir  0,C   4)           64.0273         0.242743   
     65. A(C   1,Ir  0,C  20)          115.4095         0.250168   
     66. A(C   3,Ir  0,N   6)          164.9305         0.248338   
     67. A(C   1,Ir  0,C   4)           37.9891         0.245335   
     68. A(C   4,Ir  0,O  31)          150.5650         0.254743   
     69. A(C   1,Ir  0,C   2)           38.5271         0.241897   
     70. A(C   3,Ir  0,O  31)          111.8248         0.253827   
     71. A(C   5,Ir  0,N   6)          141.9611         0.244873   
     72. A(C   3,Ir  0,C   5)           37.9386         0.241087   
     73. A(N   6,Ir  0,C  20)           77.9005         0.254177   
     74. A(C   4,Ir  0,C   5)           63.5976         0.241932   
     75. A(C   2,C   1,H  27)          126.1528         0.344712   
     76. A(Ir  0,C   1,C   2)           71.4883         0.311620   
     77. A(C   2,C   1,C   4)          108.2051         0.415440   
     78. A(C   4,C   1,H  27)          125.6333         0.350869   
     79. A(Ir  0,C   1,H  27)          124.3252         0.267585   
     80. A(Ir  0,C   1,C   4)           70.7512         0.316980   
     81. A(Ir  0,C   2,C   1)           69.9846         0.307930   
     82. A(Ir  0,C   2,C   5)           71.3713         0.311898   
     83. A(C   1,C   2,C   5)          107.1470         0.413542   
     84. A(Ir  0,C   2,H  28)          126.8360         0.264762   
     85. A(C   5,C   2,H  28)          125.9661         0.349550   
     86. A(C   1,C   2,H  28)          126.7734         0.344912   
     87. A(C   4,C   3,C   5)          107.0509         0.413440   
     88. A(Ir  0,C   3,C   4)           70.3794         0.311790   
     89. A(Ir  0,C   3,C   5)           72.0298         0.315402   
     90. A(Ir  0,C   3,H  37)          126.2830         0.267770   
     91. A(C   5,C   3,H  37)          126.1529         0.349336   
     92. A(C   4,C   3,H  37)          126.6415         0.345182   
     93. A(Ir  0,C   4,C   1)           71.2597         0.318242   
     94. A(Ir  0,C   4,H  38)          123.5962         0.268578   
     95. A(Ir  0,C   4,C   3)           70.8735         0.313028   
     96. A(C   3,C   4,H  38)          126.0200         0.344918   
     97. A(C   1,C   4,C   3)          108.3701         0.415695   
     98. A(C   1,C   4,H  38)          125.6098         0.350875   
     99. A(Ir  0,C   5,H  29)          121.8924         0.263604   
    100. A(Ir  0,C   5,C   2)           70.9028         0.310722   
    101. A(C   3,C   5,H  29)          125.3085         0.348922   
    102. A(Ir  0,C   5,C   3)           70.0317         0.310479   
    103. A(C   2,C   5,C   3)          109.1993         0.419062   
    104. A(C   2,C   5,H  29)          125.3525         0.349207   
    105. A(Ir  0,N   6,C  17)          115.6811         0.340668   
    106. A(C   7,N   6,C  17)          121.8870         0.420513   
    107. A(Ir  0,N   6,C   7)          122.4280         0.304115   
    108. A(C   8,C   7,H  13)          108.2166         0.325702   
    109. A(C  12,C   7,H  13)          108.8554         0.325137   
    110. A(N   6,C   7,C   8)          113.7649         0.369677   
    111. A(N   6,C   7,C  12)          109.2790         0.369007   
    112. A(C   8,C   7,C  12)          111.4216         0.366353   
    113. A(N   6,C   7,H  13)          105.0078         0.327967   
    114. A(C   7,C   8,H   9)          108.8371         0.326104   
    115. A(C   7,C   8,H  10)          112.8740         0.325714   
    116. A(H   9,C   8,H  10)          106.5586         0.290880   
    117. A(C   7,C   8,H  11)          111.9990         0.325842   
    118. A(H   9,C   8,H  11)          107.4512         0.290989   
    119. A(H  10,C   8,H  11)          108.8388         0.290657   
    120. A(C   7,C  12,H  14)          109.8788         0.325473   
    121. A(C   7,C  12,H  15)          111.1295         0.325174   
    122. A(H  14,C  12,H  15)          107.8046         0.290844   
    123. A(C   7,C  12,H  16)          112.1137         0.325571   
    124. A(H  14,C  12,H  16)          107.5188         0.291183   
    125. A(H  15,C  12,H  16)          108.2311         0.290928   
    126. A(N   6,C  17,C  18)          114.6717         0.442632   
    127. A(N   6,C  17,H  19)          122.5938         0.369900   
    128. A(C  18,C  17,H  19)          122.7057         0.345121   
    129. A(C  17,C  18,S  22)          128.3088         0.436493   
    130. A(C  20,C  18,S  22)          113.8091         0.446981   
    131. A(C  17,C  18,C  20)          117.7359         0.421167   
    132. A(C  18,C  20,C  21)          109.2893         0.421801   
    133. A(Ir  0,C  20,H  24)           83.3867         0.247466   
    134. A(C  18,C  20,H  24)          111.3223         0.315789   
    135. A(C  21,C  20,H  24)          109.2568         0.309564   
    136. A(Ir  0,C  20,C  18)          108.1635         0.328103   
    137. A(Ir  0,C  20,C  21)          131.9504         0.321541   
    138. A(C  20,C  21,C  23)          113.3408         0.432045   
    139. A(C  20,C  21,H  25)          123.8015         0.346639   
    140. A(C  23,C  21,H  25)          122.7373         0.362065   
    141. A(C  18,S  22,C  23)           91.1179         0.457358   
    142. A(C  21,C  23,S  22)          112.4407         0.451951   
    143. A(C  21,C  23,H  26)          127.8539         0.362296   
    144. A(S  22,C  23,H  26)          119.6855         0.361819   
    145. A(Ir  0,O  31,C  32)          125.4287         0.350534   
    146. A(O  30,C  32,O  31)          124.1830         0.492043   
    147. A(O  30,C  32,C  33)          119.3471         0.434544   
    148. A(O  31,C  32,C  33)          116.4578         0.424577   
    149. A(C  32,C  33,H  34)          110.5470         0.330482   
    150. A(C  32,C  33,H  35)          108.8418         0.329707   
    151. A(H  34,C  33,H  35)          107.2342         0.291036   
    152. A(C  32,C  33,H  36)          111.7876         0.330672   
    153. A(H  34,C  33,H  36)          110.1682         0.291846   
    154. A(H  35,C  33,H  36)          108.1137         0.291195   
    155. D(C   2,C   1,Ir  0,N   6)   -105.2969         0.001687   
    156. D(C   4,C   1,Ir  0,C   2)   -117.7681         0.001687   
    157. D(H  27,C   1,Ir  0,C   3)   -158.3998         0.001687   
    158. D(C   4,C   1,Ir  0,C  20)     55.0065         0.001687   
    159. D(C   2,C   1,Ir  0,C   3)     79.9518         0.001687   
    160. D(C   4,C   1,Ir  0,N   6)    136.9350         0.001687   
    161. D(H  27,C   1,Ir  0,C   2)    121.6484         0.001687   
    162. D(C   2,C   1,Ir  0,O  31)    -11.1339         0.001687   
    163. D(H  27,C   1,Ir  0,N   6)     16.3515         0.001687   
    164. D(C   2,C   1,Ir  0,C  20)    172.7745         0.001687   
    165. D(C   4,C   1,Ir  0,C   3)    -37.8162         0.001687   
    166. D(H  27,C   1,Ir  0,C  20)    -65.5771         0.001687   
    167. D(H  27,C   1,Ir  0,C   4)   -120.5836         0.001687   
    168. D(H  27,C   1,Ir  0,O  31)    110.5145         0.001687   
    169. D(C   2,C   1,Ir  0,C   5)     37.5228         0.001687   
    170. D(H  27,C   1,Ir  0,C   5)    159.1711         0.001687   
    171. D(C   4,C   1,Ir  0,C   5)    -80.2453         0.001687   
    172. D(C   4,C   1,Ir  0,O  31)   -128.9019         0.001687   
    173. D(C   2,C   1,Ir  0,C   4)    117.7681         0.001687   
    174. D(H  28,C   2,Ir  0,C   5)    121.4577         0.001661   
    175. D(H  28,C   2,C   1,C   4)   -176.8077         0.021493   
    176. D(C   5,C   2,C   1,H  27)    178.4545         0.021493   
    177. D(C   1,C   2,Ir  0,N   6)     85.2579         0.001661   
    178. D(C   1,C   2,Ir  0,C   3)    -80.5852         0.001661   
    179. D(Ir  0,C   2,C   1,C   4)     61.5693         0.021493   
    180. D(H  28,C   2,Ir  0,C   1)   -121.5469         0.001661   
    181. D(H  28,C   2,Ir  0,C  20)   -136.2239         0.001661   
    182. D(C   1,C   2,Ir  0,C   5)   -116.9954         0.001661   
    183. D(C   5,C   2,Ir  0,C   3)     36.4103         0.001661   
    184. D(H  28,C   2,Ir  0,C   4)   -158.8344         0.001661   
    185. D(H  28,C   2,Ir  0,C   3)    157.8680         0.001661   
    186. D(Ir  0,C   2,C   1,H  27)   -119.4614         0.021493   
    187. D(C   1,C   2,Ir  0,C   4)    -37.2875         0.001661   
    188. D(C   5,C   2,Ir  0,C   1)    116.9954         0.001661   
    189. D(C   1,C   2,Ir  0,C  20)    -14.6770         0.001661   
    190. D(C   5,C   2,Ir  0,O  31)    -69.4274         0.001661   
    191. D(C   5,C   2,Ir  0,N   6)   -157.7467         0.001661   
    192. D(H  28,C   2,C   1,Ir  0)    121.6231         0.021493   
    193. D(C   5,C   2,C   1,Ir  0)    -62.0841         0.021493   
    194. D(C   1,C   2,Ir  0,O  31)    173.5771         0.001661   
    195. D(C   5,C   2,Ir  0,C  20)    102.3184         0.001661   
    196. D(H  28,C   2,Ir  0,N   6)    -36.2890         0.001661   
    197. D(C   5,C   2,Ir  0,C   4)     79.7079         0.001661   
    198. D(C   5,C   2,C   1,C   4)     -0.5149         0.021493   
    199. D(H  28,C   2,Ir  0,O  31)     52.0303         0.001661   
    200. D(H  28,C   2,C   1,H  27)      2.1617         0.021493   
    201. D(C   4,C   3,Ir  0,N   6)     16.9114         0.001687   
    202. D(C   5,C   3,Ir  0,C   1)    -79.2054         0.001687   
    203. D(H  37,C   3,Ir  0,C   5)   -122.0912         0.001687   
    204. D(H  37,C   3,Ir  0,C   2)   -158.3002         0.001687   
    205. D(C   4,C   3,Ir  0,O  31)   -179.1817         0.001687   
    206. D(H  37,C   3,Ir  0,N   6)    138.5319         0.001687   
    207. D(C   5,C   3,Ir  0,C  20)    168.6391         0.001687   
    208. D(H  37,C   3,Ir  0,C   1)    158.7034         0.001687   
    209. D(H  37,C   3,Ir  0,C   4)    121.6206         0.001687   
    210. D(C   4,C   3,Ir  0,C   5)    116.2882         0.001687   
    211. D(C   5,C   3,Ir  0,C   4)   -116.2882         0.001687   
    212. D(C   5,C   3,Ir  0,O  31)     64.5301         0.001687   
    213. D(C   4,C   3,Ir  0,C  20)    -75.0726         0.001687   
    214. D(C   4,C   3,Ir  0,C   1)     37.0828         0.001687   
    215. D(C   4,C   3,Ir  0,C   2)     80.0792         0.001687   
    216. D(C   5,C   3,Ir  0,N   6)    -99.3769         0.001687   
    217. D(C   5,C   3,Ir  0,C   2)    -36.2090         0.001687   
    218. D(H  37,C   3,Ir  0,C  20)     46.5479         0.001687   
    219. D(H  37,C   3,Ir  0,O  31)    -57.5611         0.001687   
    220. D(C   1,C   4,Ir  0,C  20)   -132.2594         0.001696   
    221. D(C   1,C   4,Ir  0,C   2)     37.8120         0.001696   
    222. D(C   3,C   4,Ir  0,C   2)    -80.2157         0.001696   
    223. D(C   1,C   4,Ir  0,C   5)     80.0451         0.001696   
    224. D(C   1,C   4,Ir  0,N   6)    -56.5608         0.001696   
    225. D(C   3,C   4,Ir  0,C   5)    -37.9827         0.001696   
    226. D(C   3,C   4,Ir  0,C   1)   -118.0277         0.001696   
    227. D(C   1,C   4,Ir  0,O  31)    119.5736         0.001696   
    228. D(C   1,C   4,Ir  0,C   3)    118.0277         0.001696   
    229. D(H  38,C   4,C   1,Ir  0)   -118.4072         0.026774   
    230. D(C   3,C   4,Ir  0,C  20)    109.7129         0.001696   
    231. D(C   3,C   4,Ir  0,O  31)      1.5459         0.001696   
    232. D(Ir  0,C   4,C   1,C   2)    -62.0395         0.026774   
    233. D(H  38,C   4,Ir  0,C   1)    120.8498         0.001696   
    234. D(H  38,C   4,Ir  0,C   3)   -121.1225         0.001696   
    235. D(H  38,C   4,Ir  0,C   5)   -159.1051         0.001696   
    236. D(H  38,C   4,Ir  0,N   6)     64.2890         0.001696   
    237. D(H  38,C   4,Ir  0,C  20)    -11.4096         0.001696   
    238. D(H  38,C   4,Ir  0,C   2)    158.6618         0.001696   
    239. D(Ir  0,C   4,C   1,H  27)    118.9845         0.026774   
    240. D(H  38,C   4,Ir  0,O  31)   -119.5766         0.001696   
    241. D(C   3,C   4,C   1,Ir  0)     61.4948         0.026774   
    242. D(C   3,C   4,C   1,C   2)     -0.5447         0.026774   
    243. D(H  38,C   4,C   1,C   2)    179.5534         0.026774   
    244. D(C   3,C   4,Ir  0,N   6)   -174.5885         0.001696   
    245. D(C   3,C   4,C   1,H  27)   -179.5208         0.026774   
    246. D(Ir  0,C   4,C   3,H  37)   -121.1867         0.021647   
    247. D(Ir  0,C   4,C   3,C   5)     63.1320         0.021647   
    248. D(H  38,C   4,C   3,C   5)   -178.7065         0.021647   
    249. D(C   1,C   4,C   3,C   5)      1.3920         0.021647   
    250. D(C   1,C   4,C   3,H  37)    177.0734         0.021647   
    251. D(H  38,C   4,C   3,Ir  0)    118.1614         0.021647   
    252. D(H  38,C   4,C   1,H  27)      0.5773         0.026774   
    253. D(H  38,C   4,C   3,H  37)     -3.0252         0.021647   
    254. D(C   1,C   4,C   3,Ir  0)    -61.7400         0.021647   
    255. D(H  29,C   5,C   2,H  28)     -6.3892         0.025359   
    256. D(C   2,C   5,Ir  0,C   4)    -80.9475         0.001654   
    257. D(C   2,C   5,Ir  0,C   3)   -119.7401         0.001654   
    258. D(C   3,C   5,C   2,C   1)      1.3980         0.025359   
    259. D(C   2,C   5,Ir  0,C  20)   -137.0911         0.001654   
    260. D(C   2,C   5,Ir  0,O  31)    117.3009         0.001654   
    261. D(H  29,C   5,Ir  0,O  31)     -3.0788         0.001654   
    262. D(C   3,C   5,Ir  0,C   2)    119.7401         0.001654   
    263. D(C   3,C   5,Ir  0,C   4)     38.7925         0.001654   
    264. D(C   3,C   5,Ir  0,N   6)    155.3994         0.001654   
    265. D(C   3,C   5,Ir  0,C  20)    -17.3511         0.001654   
    266. D(C   3,C   5,Ir  0,O  31)   -122.9591         0.001654   
    267. D(H  29,C   5,Ir  0,C   1)   -158.6977         0.001654   
    268. D(H  29,C   5,Ir  0,C   2)   -120.3796         0.001654   
    269. D(H  29,C   5,Ir  0,C   3)    119.8803         0.001654   
    270. D(H  29,C   5,Ir  0,C   4)    158.6728         0.001654   
    271. D(H  29,C   5,Ir  0,N   6)    -84.7203         0.001654   
    272. D(C   3,C   5,Ir  0,C   1)     81.4220         0.001654   
    273. D(H  29,C   5,Ir  0,C  20)    102.5292         0.001654   
    274. D(Ir  0,C   5,C   2,C   1)     61.1836         0.025359   
    275. D(Ir  0,C   5,C   2,H  28)   -122.4852         0.025359   
    276. D(C   2,C   5,Ir  0,N   6)     35.6594         0.001654   
    277. D(C   3,C   5,C   2,Ir  0)    -59.7856         0.025359   
    278. D(H  29,C   5,C   2,Ir  0)    116.0960         0.025359   
    279. D(C   3,C   5,C   2,H  28)    177.7292         0.025359   
    280. D(C   2,C   5,Ir  0,C   1)    -38.3181         0.001654   
    281. D(H  29,C   5,C   2,C   1)    177.2797         0.025359   
    282. D(H  29,C   5,C   3,H  37)      6.6809         0.025103   
    283. D(Ir  0,C   5,C   3,H  37)    122.2427         0.025103   
    284. D(C   2,C   5,C   3,Ir  0)     60.3221         0.025103   
    285. D(C   2,C   5,C   3,C   4)     -1.7267         0.025103   
    286. D(C   2,C   5,C   3,H  37)   -177.4352         0.025103   
    287. D(H  29,C   5,C   3,Ir  0)   -115.5618         0.025103   
    288. D(Ir  0,C   5,C   3,C   4)    -62.0488         0.025103   
    289. D(H  29,C   5,C   3,C   4)   -177.6106         0.025103   
    290. D(C   7,N   6,Ir  0,C   1)     80.5288         0.001765   
    291. D(C   7,N   6,Ir  0,C   2)     41.2274         0.001765   
    292. D(C   7,N   6,Ir  0,C   3)     99.0135         0.001765   
    293. D(C   7,N   6,Ir  0,C   4)    112.1358         0.001765   
    294. D(C   7,N   6,Ir  0,C   5)     19.1381         0.001765   
    295. D(C   7,N   6,Ir  0,C  20)   -165.6251         0.001765   
    296. D(C   7,N   6,Ir  0,O  31)    -65.9501         0.001765   
    297. D(C  17,N   6,Ir  0,C   1)   -100.1823         0.001765   
    298. D(C  17,N   6,Ir  0,C   2)   -139.4836         0.001765   
    299. D(C  17,N   6,Ir  0,C   3)    -81.6976         0.001765   
    300. D(C  17,N   6,Ir  0,C   4)    -68.5752         0.001765   
    301. D(C  17,N   6,Ir  0,C   5)   -161.5730         0.001765   
    302. D(C  17,N   6,Ir  0,C  20)     13.6638         0.001765   
    303. D(C  17,N   6,Ir  0,O  31)    113.3389         0.001765   
    304. D(C   8,C   7,N   6,Ir  0)    149.8876         0.014768   
    305. D(C   8,C   7,N   6,C  17)    -29.3577         0.014768   
    306. D(C  12,C   7,N   6,Ir  0)    -84.8874         0.014768   
    307. D(C  12,C   7,N   6,C  17)     95.8673         0.014768   
    308. D(H  13,C   7,N   6,Ir  0)     31.7439         0.014768   
    309. D(H  13,C   7,N   6,C  17)   -147.5014         0.014768   
    310. D(H   9,C   8,C   7,N   6)   -170.4039         0.011780   
    311. D(H   9,C   8,C   7,C  12)     65.5210         0.011780   
    312. D(H   9,C   8,C   7,H  13)    -54.1223         0.011780   
    313. D(H  10,C   8,C   7,N   6)     71.5131         0.011780   
    314. D(H  10,C   8,C   7,C  12)    -52.5621         0.011780   
    315. D(H  10,C   8,C   7,H  13)   -172.2053         0.011780   
    316. D(H  11,C   8,C   7,N   6)    -51.7463         0.011780   
    317. D(H  11,C   8,C   7,C  12)   -175.8214         0.011780   
    318. D(H  11,C   8,C   7,H  13)     64.5354         0.011780   
    319. D(H  14,C  12,C   7,N   6)    175.1802         0.011546   
    320. D(H  14,C  12,C   7,C   8)    -58.2474         0.011546   
    321. D(H  14,C  12,C   7,H  13)     61.0165         0.011546   
    322. D(H  15,C  12,C   7,N   6)    -65.5898         0.011546   
    323. D(H  15,C  12,C   7,C   8)     60.9826         0.011546   
    324. D(H  15,C  12,C   7,H  13)   -179.7535         0.011546   
    325. D(H  16,C  12,C   7,N   6)     55.6798         0.011546   
    326. D(H  16,C  12,C   7,C   8)   -177.7478         0.011546   
    327. D(H  16,C  12,C   7,H  13)    -58.4839         0.011546   
    328. D(C  18,C  17,N   6,Ir  0)     -3.4154         0.059677   
    329. D(C  18,C  17,N   6,C   7)    175.8778         0.059677   
    330. D(H  19,C  17,N   6,Ir  0)    178.4881         0.059677   
    331. D(H  19,C  17,N   6,C   7)     -2.2187         0.059677   
    332. D(C  20,C  18,C  17,N   6)    -15.9595         0.019451   
    333. D(C  20,C  18,C  17,H  19)    162.1346         0.019451   
    334. D(S  22,C  18,C  17,N   6)    159.3424         0.019451   
    335. D(S  22,C  18,C  17,H  19)    -22.5634         0.019451   
    336. D(C  18,C  20,Ir  0,C   1)     76.9947         0.001755   
    337. D(H  24,C  20,C  18,C  17)    -63.7534         0.027790   
    338. D(C  18,C  20,Ir  0,C   3)    144.5016         0.001755   
    339. D(C  18,C  20,Ir  0,C   4)    107.2817         0.001755   
    340. D(Ir  0,C  20,C  18,C  17)     26.1289         0.027790   
    341. D(C  18,C  20,Ir  0,N   6)    -20.0876         0.001755   
    342. D(C  18,C  20,Ir  0,O  31)   -100.8397         0.001755   
    343. D(H  24,C  20,Ir  0,C   4)   -142.4017         0.001755   
    344. D(C  21,C  20,Ir  0,C   2)    -52.6147         0.001755   
    345. D(C  21,C  20,Ir  0,C   3)      4.8297         0.001755   
    346. D(C  21,C  20,Ir  0,C   4)    -32.3902         0.001755   
    347. D(C  21,C  20,Ir  0,C   5)     15.6793         0.001755   
    348. D(C  21,C  20,Ir  0,N   6)   -159.7595         0.001755   
    349. D(C  21,C  20,Ir  0,O  31)    119.4885         0.001755   
    350. D(H  24,C  20,Ir  0,C   1)   -172.6886         0.001755   
    351. D(H  24,C  20,Ir  0,C   2)   -162.6262         0.001755   
    352. D(C  21,C  20,Ir  0,C   1)    -62.6772         0.001755   
    353. D(H  24,C  20,Ir  0,C   3)   -105.1818         0.001755   
    354. D(H  24,C  20,Ir  0,C   5)    -94.3322         0.001755   
    355. D(H  24,C  20,Ir  0,N   6)     90.2290         0.001755   
    356. D(C  18,C  20,Ir  0,C   5)    155.3511         0.001755   
    357. D(H  24,C  20,Ir  0,O  31)      9.4770         0.001755   
    358. D(Ir  0,C  20,C  18,S  22)   -149.8430         0.027790   
    359. D(C  21,C  20,C  18,C  17)    175.4691         0.027790   
    360. D(C  18,C  20,Ir  0,C   2)     87.0572         0.001755   
    361. D(C  21,C  20,C  18,S  22)     -0.5027         0.027790   
    362. D(H  24,C  20,C  18,S  22)    120.2748         0.027790   
    363. D(C  23,C  21,C  20,Ir  0)    139.8117         0.021470   
    364. D(C  23,C  21,C  20,C  18)      0.4658         0.021470   
    365. D(C  23,C  21,C  20,H  24)   -121.5626         0.021470   
    366. D(H  25,C  21,C  20,Ir  0)    -44.0871         0.021470   
    367. D(H  25,C  21,C  20,C  18)    176.5669         0.021470   
    368. D(H  25,C  21,C  20,H  24)     54.5385         0.021470   
    369. D(C  23,S  22,C  18,C  17)   -175.1282         0.006036   
    370. D(C  23,S  22,C  18,C  20)      0.3271         0.006036   
    371. D(S  22,C  23,C  21,C  20)     -0.2365         0.034074   
    372. D(S  22,C  23,C  21,H  25)   -176.3850         0.034074   
    373. D(H  26,C  23,C  21,C  20)    178.1166         0.034074   
    374. D(H  26,C  23,C  21,H  25)      1.9681         0.034074   
    375. D(C  21,C  23,S  22,C  18)     -0.0471         0.005390   
    376. D(H  26,C  23,S  22,C  18)   -178.5503         0.005390   
    377. D(C  32,O  31,Ir  0,C   1)    172.8888         0.001838   
    378. D(C  32,O  31,Ir  0,C   2)    165.6001         0.001838   
    379. D(C  32,O  31,Ir  0,C   3)     96.8454         0.001838   
    380. D(C  32,O  31,Ir  0,C   4)     95.8033         0.001838   
    381. D(C  32,O  31,Ir  0,C   5)    130.6042         0.001838   
    382. D(C  32,O  31,Ir  0,N   6)    -87.3212         0.001838   
    383. D(C  32,O  31,Ir  0,C  20)    -10.6743         0.001838   
    384. D(O  30,C  32,O  31,Ir  0)      4.2020         0.056454   
    385. D(C  33,C  32,O  31,Ir  0)   -174.5234         0.056454   
    386. D(H  34,C  33,C  32,O  30)     36.2157         0.012740   
    387. D(H  34,C  33,C  32,O  31)   -144.9939         0.012740   
    388. D(H  35,C  33,C  32,O  30)    -81.3151         0.012740   
    389. D(H  35,C  33,C  32,O  31)     97.4753         0.012740   
    390. D(H  36,C  33,C  32,O  30)    159.3326         0.012740   
    391. D(H  36,C  33,C  32,O  31)    -21.8771         0.012740   
    -----------------------------------------------------------------

Number of atoms                         .... 39
Number of degrees of freedom            .... 391

         *************************************************************
         *                GEOMETRY OPTIMIZATION CYCLE   1            *
         *************************************************************
---------------------------------
CARTESIAN COORDINATES (ANGSTROEM)
---------------------------------
  Ir     0.622094   -0.717283    0.407507
  C      0.145157   -2.834023    0.317500
  C     -0.041130   -2.380658    1.671149
  C      2.179273   -2.063712    1.099077
  C      1.501122   -2.647467   -0.027382
  C      1.220900   -1.930971    2.139204
  N     -1.066817    0.131791   -0.516680
  C     -2.334587    0.342537    0.198245
  C     -3.134736    1.533352   -0.309979
  H     -3.961106    1.719475    0.374246
  H     -3.577214    1.359009   -1.291722
  H     -2.533405    2.441807   -0.351160
  C     -3.156975   -0.940821    0.153885
  H     -2.046564    0.541177    1.231553
  H     -4.059428   -0.823286    0.752374
  H     -3.461821   -1.177400   -0.866328
  H     -2.608528   -1.793008    0.551782
  C     -0.918150    0.467729   -1.739624
  C      0.400758    0.278739   -2.253631
  H     -1.722560    0.893204   -2.330942
  C      1.436858    0.091357   -1.333891
  C      2.651399   -0.183887   -2.039454
  S      0.888124    0.140622   -3.870514
  C      2.501033   -0.184296   -3.391623
  H      1.598970    1.117165   -0.606823
  H      3.609947   -0.313814   -1.558108
  H      3.261527   -0.335403   -4.142632
  H     -0.613885   -3.260777   -0.321819
  H     -0.950743   -2.430857    2.249984
  H      1.407712   -1.490190    3.108327
  O      1.706088    2.320312    0.128818
  O      0.558840    1.017922    1.520507
  C      1.112002    2.122496    1.200642
  C      1.045727    3.223490    2.219323
  H      0.947920    4.190122    1.730777
  H      1.980244    3.239058    2.782785
  H      0.230217    3.074508    2.921691
  H      3.232138   -1.838905    1.171129
  H      1.948969   -2.899926   -0.977454

----------------------------
CARTESIAN COORDINATES (A.U.)
----------------------------
  NO LB      ZA    FRAG     MASS         X           Y           Z
   0 Ir   17.0000*   0   192.220    1.175588   -1.355468    0.770076
   1 C     6.0000    0    12.011    0.274306   -5.355527    0.599988
   2 C     6.0000    0    12.011   -0.077724   -4.498791    3.158014
   3 C     6.0000    0    12.011    4.118228   -3.899851    2.076954
   4 C     6.0000    0    12.011    2.836710   -5.002988   -0.051745
   5 C     6.0000    0    12.011    2.307167   -3.649007    4.042510
   6 N     7.0000    0    14.007   -2.015992    0.249050   -0.976384
   7 C     6.0000    0    12.011   -4.411730    0.647302    0.374628
   8 C     6.0000    0    12.011   -5.923792    2.897616   -0.585776
   9 H     1.0000    0     1.008   -7.485406    3.249337    0.707223
  10 H     1.0000    0     1.008   -6.759955    2.568155   -2.441000
  11 H     1.0000    0     1.008   -4.787441    4.614347   -0.663596
  12 C     6.0000    0    12.011   -5.965817   -1.777895    0.290801
  13 H     1.0000    0     1.008   -3.867446    1.022677    2.327298
  14 H     1.0000    0     1.008   -7.671208   -1.555786    1.421780
  15 H     1.0000    0     1.008   -6.541894   -2.224964   -1.637122
  16 H     1.0000    0     1.008   -4.929404   -3.388294    1.042716
  17 C     6.0000    0    12.011   -1.735053    0.883880   -3.287412
  18 C     6.0000    0    12.011    0.757323    0.526741   -4.258746
  19 H     1.0000    0     1.008   -3.255166    1.687911   -4.404841
  20 C     6.0000    0    12.011    2.715269    0.172639   -2.520689
  21 C     6.0000    0    12.011    5.010417   -0.347496   -3.854010
  22 S    16.0000    0    32.060    1.678312    0.265737   -7.314211
  23 C     6.0000    0    12.011    4.726267   -0.348268   -6.409238
  24 H     1.0000    0     1.008    3.021616    2.111136   -1.146729
  25 H     1.0000    0     1.008    6.821810   -0.593023   -2.944398
  26 H     1.0000    0     1.008    6.163392   -0.633819   -7.828439
  27 H     1.0000    0     1.008   -1.160075   -6.161975   -0.608149
  28 H     1.0000    0     1.008   -1.796645   -4.593654    4.251854
  29 H     1.0000    0     1.008    2.660190   -2.816051    5.873887
  30 O     8.0000    0    15.999    3.224039    4.384754    0.243431
  31 O     8.0000    0    15.999    1.056055    1.923593    2.873343
  32 C     6.0000    0    12.011    2.101380    4.010936    2.268885
  33 C     6.0000    0    12.011    1.976138    6.091514    4.193912
  34 H     1.0000    0     1.008    1.791309    7.918183    3.270695
  35 H     1.0000    0     1.008    3.742119    6.120933    5.258701
  36 H     1.0000    0     1.008    0.435047    5.809978    5.521196
  37 H     1.0000    0     1.008    6.107857   -3.475027    2.213113
  38 H     1.0000    0     1.008    3.683018   -5.480066   -1.847120
* core charge reduced due to ECP

--------------------------------
INTERNAL COORDINATES (ANGSTROEM)
--------------------------------
 Ir     0   0   0     0.000000000000     0.00000000     0.00000000
 C      1   0   0     2.171829588038     0.00000000     0.00000000
 C      2   1   0     1.439773348349    71.49187408     0.00000000
 C      1   2   3     2.171852676659    64.27806903    79.89023403
 C      2   1   3     1.411159077783    70.75700827   242.26601895
 C      3   2   1     1.418170087958   107.16775234   297.89840242
 N      1   2   3     2.103646931479   101.50875683   254.61735745
 C      7   1   2     1.470629517150   122.36982246    80.47816978
 C      8   7   1     1.522020957073   113.76490772   149.89626333
 H      9   8   7     1.088890428428   108.83712352   189.59614707
 H      9   8   7     1.090869159725   112.87385623    71.51325219
 H      9   8   7     1.090221139656   111.99901998   308.25365594
 C      8   7   1     1.524891451244   109.27892631   275.12131934
 H      8   7   1     1.090932995719   105.00777063    31.75277273
 H     13   8   7     1.089226350561   109.87873325   175.18018860
 H     13   8   7     1.090747573654   111.12976865   294.41024114
 H     13   8   7     1.088726465214   112.11369986    55.67983827
 C      7   1   2     1.281881697496   115.80069451   259.78286011
 C     18   7   1     1.432887458614   115.32052189   356.44535098
 H     18   7   1     1.085237375033   122.27510453   178.35792862
 C     19  18   7     1.397126173635   117.85076628   343.90128053
 C     21  19  18     1.430596694224   109.55543501   175.47930210
 S     19  18   7     1.694477814545   128.37098088   159.26267536
 C     22  21  19     1.360662028265   113.18955953     0.52930376
 H     21  19  18     1.267279850922   111.28406089   296.31618955
 H     22  21  19     1.080418196525   123.87347347   176.64882862
 H     24  22  21     1.079402192024   127.85206434   178.11455667
 H      2   1   3     1.080273308165   124.31553074   121.66830425
 H      3   2   1     1.079331662117   126.77621475   121.60944049
 H      6   3   2     1.080917032731   125.34664190   177.28070001
 O     25  21  19     1.428571425588   175.71306994     9.26519138
 O      1   2   3     2.062913112563   146.67220988   348.86458708
 C     31  25  21     1.241168504086   107.56340933    89.28274402
 C     33  31  25     1.501423954246   119.30918880   180.24668417
 H     34  33  31     1.087482052244   110.54728436    36.21561844
 H     34  33  31     1.091348350306   108.84154086   278.68465057
 H     34  33  31     1.086535646434   111.78755851   159.33240731
 H      4   1   2     1.079003892056   126.27276716   158.71446934
 H      5   2   1     1.080242292099   125.61654280   241.60057627

---------------------------
INTERNAL COORDINATES (A.U.)
---------------------------
 Ir     0   0   0     0.000000000000     0.00000000     0.00000000
 C      1   0   0     4.104163130938     0.00000000     0.00000000
 C      2   1   0     2.720777323299    71.49187408     0.00000000
 C      1   2   3     4.104206762109    64.27806903    79.89023403
 C      2   1   3     2.666704188406    70.75700827   242.26601895
 C      3   2   1     2.679953077559   107.16775234   297.89840242
 N      1   2   3     3.975316582960   101.50875683   254.61735745
 C      7   1   2     2.779087031875   122.36982246    80.47816978
 C      8   7   1     2.876202778956   113.76490772   149.89626333
 H      9   8   7     2.057704699577   108.83712352   189.59614707
 H      9   8   7     2.061443959821   112.87385623    71.51325219
 H      9   8   7     2.060219379361   111.99901998   308.25365594
 C      8   7   1     2.881627226809   109.27892631   275.12131934
 H      8   7   1     2.061564592367   105.00777063    31.75277273
 H     13   8   7     2.058339500410   109.87873325   175.18018860
 H     13   8   7     2.061214195446   111.12976865   294.41024114
 H     13   8   7     2.057394854007   112.11369986    55.67983827
 C      7   1   2     2.422405344353   115.80069451   259.78286011
 C     18   7   1     2.707764877510   115.32052189   356.44535098
 H     18   7   1     2.050801429108   122.27510453   178.35792862
 C     19  18   7     2.640185842703   117.85076628   343.90128053
 C     21  19  18     2.703435960177   109.55543501   175.47930210
 S     19  18   7     3.202099009496   128.37098088   159.26267536
 C     22  21  19     2.571278594246   113.18955953     0.52930376
 H     21  19  18     2.394811853280   111.28406089   296.31618955
 H     22  21  19     2.041694501537   123.87347347   176.64882862
 H     24  22  21     2.039774531280   127.85206434   178.11455667
 H      2   1   3     2.041420702217   124.31553074   121.66830425
 H      3   2   1     2.039641249070   126.77621475   121.60944049
 H      6   3   2     2.042637165352   125.34664190   177.28070001
 O     25  21  19     2.699608757107   175.71306994     9.26519138
 O      1   2   3     3.898340820819   146.67220988   348.86458708
 C     31  25  21     2.345468558771   107.56340933    89.28274402
 C     33  31  25     2.837280084434   119.30918880   180.24668417
 H     34  33  31     2.055043254296   110.54728436    36.21561844
 H     34  33  31     2.062349498784   108.84154086   278.68465057
 H     34  33  31     2.053254806504   111.78755851   159.33240731
 H      4   1   2     2.039021853420   126.27276716   158.71446934
 H      5   2   1     2.041362090346   125.61654280   241.60057627

---------------------
BASIS SET INFORMATION
---------------------
There are 6 groups of distinct atoms

 Group   1 Type Ir  : 7s6p5d1f contracted to 6s3p2d1f pattern {211111/411/41/1}
 Group   2 Type C   : 8s4p1d contracted to 4s2p1d pattern {5111/31/1}
 Group   3 Type N   : 8s4p1d contracted to 4s2p1d pattern {5111/31/1}
 Group   4 Type H   : 4s contracted to 2s pattern {31}
 Group   5 Type S   : 10s7p1d contracted to 4s3p1d pattern {5311/511/1}
 Group   6 Type O   : 8s4p1d contracted to 4s2p1d pattern {5111/31/1}

Atom   0Ir   basis set group =>   1
Atom   1C    basis set group =>   2
Atom   2C    basis set group =>   2
Atom   3C    basis set group =>   2
Atom   4C    basis set group =>   2
Atom   5C    basis set group =>   2
Atom   6N    basis set group =>   3
Atom   7C    basis set group =>   2
Atom   8C    basis set group =>   2
Atom   9H    basis set group =>   4
Atom  10H    basis set group =>   4
Atom  11H    basis set group =>   4
Atom  12C    basis set group =>   2
Atom  13H    basis set group =>   4
Atom  14H    basis set group =>   4
Atom  15H    basis set group =>   4
Atom  16H    basis set group =>   4
Atom  17C    basis set group =>   2
Atom  18C    basis set group =>   2
Atom  19H    basis set group =>   4
Atom  20C    basis set group =>   2
Atom  21C    basis set group =>   2
Atom  22S    basis set group =>   5
Atom  23C    basis set group =>   2
Atom  24H    basis set group =>   4
Atom  25H    basis set group =>   4
Atom  26H    basis set group =>   4
Atom  27H    basis set group =>   4
Atom  28H    basis set group =>   4
Atom  29H    basis set group =>   4
Atom  30O    basis set group =>   6
Atom  31O    basis set group =>   6
Atom  32C    basis set group =>   2
Atom  33C    basis set group =>   2
Atom  34H    basis set group =>   4
Atom  35H    basis set group =>   4
Atom  36H    basis set group =>   4
Atom  37H    basis set group =>   4
Atom  38H    basis set group =>   4
---------------------------------
AUXILIARY/J BASIS SET INFORMATION
---------------------------------
There are 6 groups of distinct atoms

 Group   1 Type Ir  : 11s5p5d3f3g contracted to 8s5p5d2f3g pattern {41111111/11111/11111/21/111}
 Group   2 Type C   : 12s5p4d2f1g contracted to 6s4p3d1f1g pattern {711111/2111/211/2/1}
 Group   3 Type N   : 12s5p4d2f1g contracted to 6s4p3d1f1g pattern {711111/2111/211/2/1}
 Group   4 Type H   : 5s2p1d contracted to 3s1p1d pattern {311/2/1}
 Group   5 Type S   : 14s5p5d2f1g contracted to 8s4p3d1f1g pattern {71111111/2111/311/2/1}
 Group   6 Type O   : 12s5p4d2f1g contracted to 6s4p3d1f1g pattern {711111/2111/211/2/1}

Atom   0Ir   basis set group =>   1
Atom   1C    basis set group =>   2
Atom   2C    basis set group =>   2
Atom   3C    basis set group =>   2
Atom   4C    basis set group =>   2
Atom   5C    basis set group =>   2
Atom   6N    basis set group =>   3
Atom   7C    basis set group =>   2
Atom   8C    basis set group =>   2
Atom   9H    basis set group =>   4
Atom  10H    basis set group =>   4
Atom  11H    basis set group =>   4
Atom  12C    basis set group =>   2
Atom  13H    basis set group =>   4
Atom  14H    basis set group =>   4
Atom  15H    basis set group =>   4
Atom  16H    basis set group =>   4
Atom  17C    basis set group =>   2
Atom  18C    basis set group =>   2
Atom  19H    basis set group =>   4
Atom  20C    basis set group =>   2
Atom  21C    basis set group =>   2
Atom  22S    basis set group =>   5
Atom  23C    basis set group =>   2
Atom  24H    basis set group =>   4
Atom  25H    basis set group =>   4
Atom  26H    basis set group =>   4
Atom  27H    basis set group =>   4
Atom  28H    basis set group =>   4
Atom  29H    basis set group =>   4
Atom  30O    basis set group =>   6
Atom  31O    basis set group =>   6
Atom  32C    basis set group =>   2
Atom  33C    basis set group =>   2
Atom  34H    basis set group =>   4
Atom  35H    basis set group =>   4
Atom  36H    basis set group =>   4
Atom  37H    basis set group =>   4
Atom  38H    basis set group =>   4
-------------------------
ECP PARAMETER INFORMATION
-------------------------

 Group 1, Type Ir ECP Def2-ECP (replacing 60 core electrons, lmax=3)

Atom   0Ir   ECP group =>   1

------------------------------------------------------------------------------
                           ORCA GTO INTEGRAL CALCULATION
                           -- RI-GTO INTEGRALS CHOSEN --
------------------------------------------------------------------------------
------------------------------------------------------------------------------
                   ___                                                        
                  /   \      - P O W E R E D   B Y -                         
                 /     \                                                     
                 |  |  |   _    _      __       _____    __    __             
                 |  |  |  | |  | |    /  \     |  _  \  |  |  /  |          
                  \  \/   | |  | |   /    \    | | | |  |  | /  /          
                 / \  \   | |__| |  /  /\  \   | |_| |  |  |/  /          
                |  |  |   |  __  | /  /__\  \  |    /   |      \           
                |  |  |   | |  | | |   __   |  |    \   |  |\   \          
                \     /   | |  | | |  |  |  |  | |\  \  |  | \   \       
                 \___/    |_|  |_| |__|  |__|  |_| \__\ |__|  \__/        
                                                                              
                      - O R C A' S   B I G   F R I E N D -                    
                                      &                                       
                       - I N T E G R A L  F E E D E R -                       
                                                                              
 v1 FN, 2020, v2 2021                                                         
------------------------------------------------------------------------------


Reading SHARK input file reaction4-IEIP_ts_guess_scan_12-6_orca.SHARKINP.tmp ... ok
----------------------
SHARK INTEGRAL PACKAGE
----------------------

Number of atoms                             ...     39
Number of basis functions                   ...    358
Number of shells                            ...    184
Maximum angular momentum                    ...      3
Integral batch strategy                     ... SHARK/LIBINT Hybrid
RI-J (if used) integral strategy            ... SPLIT-RIJ (Revised 2003 algorithm where possible)
Printlevel                                  ...      1
Contraction scheme used                     ... SEGMENTED contraction
Coulomb Range Separation                    ... NOT USED
Exchange Range Separation                   ... NOT USED
Finite Nucleus Model                        ... NOT USED
Auxiliary Coulomb fitting basis             ... AVAILABLE
   # of basis functions in Aux-J            ...   1231
   # of shells in Aux-J                     ...    405
   Maximum angular momentum in Aux-J        ...      4
Auxiliary J/K fitting basis                 ... NOT available
Auxiliary Correlation fitting basis         ... NOT available
Auxiliary 'external' fitting basis          ... NOT available
Integral threshold                          ...     2.500000e-11
Primitive cut-off                           ...     2.500000e-12
Primitive pair pre-selection threshold      ...     2.500000e-12

Calculating pre-screening integrals         ... done (  0.1 sec) Dimension = 184
Organizing shell pair data                  ... done (  0.1 sec)
Shell pair information
Total number of shell pairs                 ...     17020
Shell pairs after pre-screening             ...     13000
Total number of primitive shell pairs       ...     60705
Primitive shell pairs kept                  ...     29237
          la=0 lb=0:   4980 shell pairs
          la=1 lb=0:   4267 shell pairs
          la=1 lb=1:    859 shell pairs
          la=2 lb=0:   1754 shell pairs
          la=2 lb=1:    790 shell pairs
          la=2 lb=2:    175 shell pairs
          la=3 lb=0:    112 shell pairs
          la=3 lb=1:     41 shell pairs
          la=3 lb=2:     21 shell pairs
          la=3 lb=3:      1 shell pairs

Calculating one electron integrals          ... done (  0.1 sec)
Calculating ECP integrals                   ... done (  0.8 sec)
Calculating RI/J V-Matrix + Cholesky decomp.... done (  0.1 sec)
Calculating Nuclear repulsion               ... done (  0.0 sec) ENN=   2039.674159623086 Eh

SHARK setup successfully completed in   1.4 seconds

Maximum memory used throughout the entire GTOINT-calculation: 90.9 MB
-------------------------------------------------------------------------------
                                 ORCA SCF
-------------------------------------------------------------------------------

------------
SCF SETTINGS
------------
Hamiltonian:
 Density Functional     Method          .... DFT(GTOs)
 Exchange Functional    Exchange        .... PBE
   PBE kappa parameter   XKappa         ....  1.024500
   PBE mue parameter    XMuePBE         ....  0.123457
 Correlation Functional Correlation     .... PBE
   PBE beta parameter  CBetaPBE         ....  0.030000
 LDA part of GGA corr.  LDAOpt          .... PW91-LDA
 Gradients option       PostSCFGGA      .... off
 Hybrid DFT is turned on
   Fraction HF Exchange ScalHFX         ....  0.420000
   Scaling of DF-GGA-X  ScalDFX         ....  0.580000
   Scaling of DF-GGA-C  ScalDFC         ....  1.000000
   Scaling of DF-LDA-C  ScalLDAC        ....  1.000000
   Perturbative correction              ....  0.000000
   Density functional embedding theory  .... OFF
 RI-approximation to the Coulomb term is turned on
   Number of AuxJ basis functions       .... 1231
   RIJ-ON(X) (HFX calculated with O(N)) .... on
   Number of AuxJ basis functions       .... 1231
   RIJ-COSX (HFX calculated with COS-X)).... on


General Settings:
 Integral files         IntName         .... reaction4-IEIP_ts_guess_scan_12-6_orca
 Hartree-Fock type      HFTyp           .... RHF
 Total Charge           Charge          ....    1
 Multiplicity           Mult            ....    1
 Number of Electrons    NEL             ....  164
 Basis Dimension        Dim             ....  358
 Nuclear Repulsion      ENuc            ....   2039.6741596231 Eh

Convergence Acceleration:
 DIIS                   CNVDIIS         .... on
   Start iteration      DIISMaxIt       ....    12
   Startup error        DIISStart       ....  0.200000
   # of expansion vecs  DIISMaxEq       ....     5
   Bias factor          DIISBfac        ....   1.050
   Max. coefficient     DIISMaxC        ....  10.000
 Trust-Rad. Augm. Hess. CNVTRAH         .... auto
   Auto Start mean grad. ratio tolernc. ....  1.125000
   Auto Start start iteration           ....    20
   Auto Start num. interpolation iter.  ....    10
   Max. Number of Micro iterations      ....    16
   Max. Number of Macro iterations      .... Maxiter - #DIIS iter
   Number of Davidson start vectors     ....     2
   Converg. threshold I  (grad. norm)   ....   1.000e-05
   Converg. threshold II (energy diff.) ....   1.000e-08
   Grad. Scal. Fac. for Micro threshold ....   0.100
   Minimum threshold for Micro iter.    ....   0.010
   NR start threshold (gradient norm)   ....   0.001
   Initial trust radius                 ....   0.400
   Minimum AH scaling param. (alpha)    ....   1.000
   Maximum AH scaling param. (alpha)    .... 1000.000
   Orbital update algorithm             .... Taylor
   White noise on init. David. guess    .... on
   Maximum white noise                  ....   0.010
   Quad. conv. algorithm                .... NR
   COSX micro iterations for RIJONX calc.... off
 SOSCF                  CNVSOSCF        .... off
 Level Shifting         CNVShift        .... on
   Level shift para.    LevelShift      ....    0.2500
   Turn off err/grad.   ShiftErr        ....    0.0010
 Zerner damping         CNVZerner       .... off
 Static damping         CNVDamp         .... on
   Fraction old density DampFac         ....    0.7000
   Max. Damping (<1)    DampMax         ....    0.9800
   Min. Damping (>=0)   DampMin         ....    0.0000
   Turn off err/grad.   DampErr         ....    0.1000
 Fernandez-Rico         CNVRico         .... off

SCF Procedure:
 Maximum # iterations   MaxIter         ....   250
 SCF integral mode      SCFMode         .... Direct
   Integral package                     .... SHARK and LIBINT hybrid scheme
 Reset frequency        DirectResetFreq ....    20
 Integral Threshold     Thresh          ....  2.500e-11 Eh
 Primitive CutOff       TCut            ....  2.500e-12 Eh

Convergence Tolerance:
 Convergence Check Mode ConvCheckMode   .... Total+1el-Energy
 Convergence forced     ConvForced      .... 0
 Energy Change          TolE            ....  1.000e-08 Eh
 1-El. energy change                    ....  1.000e-05 Eh
 DIIS Error             TolErr          ....  5.000e-07


Diagonalization of the overlap matrix:
Smallest eigenvalue                        ... 1.169e-03
Time for diagonalization                   ...    0.017 sec
Threshold for overlap eigenvalues          ... 1.000e-08
Number of eigenvalues below threshold      ... 0
Time for construction of square roots      ...    0.006 sec
Total time needed                          ...    0.024 sec

--------------------
INITIAL GUESS: HCORE
--------------------
                      -----------------
                      INTIAL GUESS DONE 
                      -----------------
-------------------
DFT GRID GENERATION
-------------------

General Integration Accuracy     IntAcc      ... 4.159
Radial Grid Type                 RadialGrid  ... OptM3 with GC (2021)
Angular Grid (max. ang.)         AngularGrid ... 3 (Lebedev-194)
Angular grid pruning method      GridPruning ... 4 (adaptive)
Weight generation scheme         WeightScheme... Becke
Basis function cutoff            BFCut       ... 1.0000e-11
Integration weight cutoff        WCut        ... 1.0000e-14
Angular grids for H and He will be reduced by one unit
Partially contracted basis set               ... off
Rotationally invariant grid construction     ... off

Total number of grid points                  ...    93266
Total number of batches                      ...     1476
Average number of points per batch           ...       63
Average number of grid points per atom       ...     2391
Time for grid setup =    2.083 sec

--------------------
COSX GRID GENERATION
--------------------

GRIDX 1
-------
General Integration Accuracy     IntAcc      ... 3.816
Radial Grid Type                 RadialGrid  ... OptM3 with GC (2021)
Angular Grid (max. ang.)         AngularGrid ... 1 (Lebedev-50)
Angular grid pruning method      GridPruning ... 4 (adaptive)
Weight generation scheme         WeightScheme... Becke
Basis function cutoff            BFCut       ... 1.0000e-11
Integration weight cutoff        WCut        ... 1.0000e-14
Angular grids for H and He will be reduced by one unit
Partially contracted basis set               ... on
Rotationally invariant grid construction     ... off

Total number of grid points                  ...    23203
Total number of batches                      ...      383
Average number of points per batch           ...       60
Average number of grid points per atom       ...      595
UseSFitting                                  ... on

GRIDX 2
-------
General Integration Accuracy     IntAcc      ... 4.020
Radial Grid Type                 RadialGrid  ... OptM3 with GC (2021)
Angular Grid (max. ang.)         AngularGrid ... 2 (Lebedev-110)
Angular grid pruning method      GridPruning ... 4 (adaptive)
Weight generation scheme         WeightScheme... Becke
Basis function cutoff            BFCut       ... 1.0000e-11
Integration weight cutoff        WCut        ... 1.0000e-14
Angular grids for H and He will be reduced by one unit
Partially contracted basis set               ... on
Rotationally invariant grid construction     ... off

Total number of grid points                  ...    50332
Total number of batches                      ...      807
Average number of points per batch           ...       62
Average number of grid points per atom       ...     1291
UseSFitting                                  ... on

GRIDX 3
-------
General Integration Accuracy     IntAcc      ... 4.338
Radial Grid Type                 RadialGrid  ... OptM3 with GC (2021)
Angular Grid (max. ang.)         AngularGrid ... 3 (Lebedev-194)
Angular grid pruning method      GridPruning ... 4 (adaptive)
Weight generation scheme         WeightScheme... Becke
Basis function cutoff            BFCut       ... 1.0000e-11
Integration weight cutoff        WCut        ... 1.0000e-14
Angular grids for H and He will be reduced by one unit
Partially contracted basis set               ... on
Rotationally invariant grid construction     ... off

Total number of grid points                  ...   108739
Total number of batches                      ...     1722
Average number of points per batch           ...       63
Average number of grid points per atom       ...     2788
UseSFitting                                  ... on

Time for X-Grid setup             =    5.036 sec

--------------
SCF ITERATIONS
--------------
ITER       Energy         Delta-E        Max-DP      RMS-DP      [F,P]     Damp
               ***  Starting incremental Fock matrix formation  ***
  0   -842.9292490398   0.00000000000021.32867213  0.15364831  3.2472656 0.7000
  1  -1085.5101070239-242.58085798407510.17574506  0.13502695  1.4829694 0.7000
  2  -1157.8319907559 -72.321883732014 5.48211693  0.07126428  1.0609257 0.7000
  3  -1184.7666199165 -26.934629160593 3.79744518  0.04815675  0.7701110 0.7000
  4  -1205.9257936426 -21.159173726127 2.68724394  0.03867018  0.4736668 0.7000
  5  -1220.8386517083 -14.912858065639 2.48882863  0.03300243  0.3635891 0.7000
  6  -1231.3008660304 -10.462214322104 1.90084543  0.02933116  0.3155613 0.7000
  7  -1240.2182755428  -8.917409512407 1.61097045  0.02570871  0.2955271 0.7000
  8  -1246.8609678993  -6.642692356463 1.59076833  0.02636611  0.3196639 0.7000
  9  -1251.0868385258  -4.225870626589 1.51990469  0.02423747  0.2906773 0.7000
 10  -1256.0340525215  -4.947213995704 1.52925059  0.02397912  0.2890161 0.7000
 11  -1257.2176403802  -1.183587858605 1.46180408  0.02247998  0.3056474 0.7000
                               ***Turning on DIIS***
 12  -1259.9154967058  -2.697856325636 1.38181363  0.02277429  0.3151692 0.7000
 13  -1260.1380065004  -0.222509794652 1.27557836  0.01902351  0.3190623 0.7000
 14  -1268.0919554000  -7.953948899591 0.89092639  0.01353440  0.2524507 0.7000
 15  -1274.3884029623  -6.296447562310 0.62538869  0.00957073  0.2023117 0.7000
 16  -1278.8362572479  -4.447854285564 0.44057275  0.00676871  0.1485255 0.7000
 17  -1281.8633431666  -3.027085918712 0.31110700  0.00478568  0.1021403 0.7000
 18  -1283.9162943009  -2.052951134300 0.72179280  0.01124449  0.0648047 0.0000
 19  -1288.4371654525  -4.520871151577 0.02168981  0.00040487  0.0222546 0.0000
               *** Restarting incremental Fock matrix formation ***
                                   *** Resetting DIIS ***
 20  -1288.4454134893  -0.008248036836 0.02449997  0.00050131  0.0103803 0.0000
 21  -1288.4477418812  -0.002328391848 0.01063540  0.00014802  0.0087268 0.0000
 22  -1288.4489710625  -0.001229181288 0.00493798  0.00006797  0.0021358 0.0000
 23  -1288.4491096054  -0.000138542925 0.00432131  0.00004091  0.0023906 0.0000
 24  -1288.4491546449  -0.000045039529 0.00422509  0.00003680  0.0007837 0.0000
               *** Restarting incremental Fock matrix formation ***
                                   *** Resetting DIIS ***
 25  -1288.4497225824  -0.000567937449 0.00562851  0.00010260  0.0007323 0.0000
 26  -1288.4497333033  -0.000010720913 0.00130331  0.00001568  0.0010696 0.0000
 27  -1288.4497446538  -0.000011350559 0.00077140  0.00000919  0.0002253 0.0000
 28  -1288.4497452181  -0.000000564288 0.00032877  0.00000277  0.0001367 0.0000
 29  -1288.4497454177  -0.000000199585 0.00025983  0.00000208  0.0000986 0.0000
 30  -1288.4497455057  -0.000000088000 0.00009298  0.00000097  0.0000274 0.0000
 31  -1288.4497455212  -0.000000015496 0.00003269  0.00000039  0.0000147 0.0000
 32  -1288.4497455226  -0.000000001363 0.00003857  0.00000035  0.0000084 0.0000
 33  -1288.4497455353  -0.000000012705 0.00000952  0.00000011  0.0000023 0.0000
 34  -1288.4497455392  -0.000000003939 0.00000188  0.00000005  0.0000024 0.0000
                            ***DIIS convergence achieved***

               *****************************************************
               *                     SUCCESS                       *
               *           SCF CONVERGED AFTER  35 CYCLES          *
               *****************************************************

Old exchange energy                            =    -59.652122404 Eh
New exchange energy                            =    -59.652204815 Eh
Exchange energy change after final integration =     -0.000082411 Eh
Total energy after final integration           =  -1288.449827940 Eh
Final COS-X integration done in                =    58.637 sec

----------------
TOTAL SCF ENERGY
----------------

Total Energy       :        -1288.44982794 Eh          -35060.50226 eV

Components:
Nuclear Repulsion  :         2039.67415962 Eh           55502.35557 eV
Electronic Energy  :        -3328.12398756 Eh          -90562.85783 eV
One Electron Energy:        -5834.90082124 Eh         -158775.72335 eV
Two Electron Energy:         2506.77683368 Eh           68212.86552 eV
Max COSX asymmetry :            0.00002396 Eh               0.00065 eV

Virial components:
Potential Energy   :        -2501.54685034 Eh          -68070.55044 eV
Kinetic Energy     :         1213.09702240 Eh           33010.04818 eV
Virial Ratio       :            2.06211606


DFT components:
N(Alpha)           :       82.000232730215 electrons
N(Beta)            :       82.000232730215 electrons
N(Total)           :      164.000465460431 electrons
E(X)               :      -79.594736952349 Eh       
E(C)               :       -7.460992275207 Eh       
E(XC)              :      -87.055729227556 Eh       
DFET-embed. en.    :        0.000000000000 Eh       

---------------
SCF CONVERGENCE
---------------

  Last Energy change         ...    1.0167e-08  Tolerance :   1.0000e-08
  Last MAX-Density change    ...    0.0000e+00  Tolerance :   1.0000e-07
  Last RMS-Density change    ...    0.0000e+00  Tolerance :   5.0000e-09
  Last DIIS Error            ...    9.8892e-07  Tolerance :   5.0000e-07

             **** THE GBW FILE WAS UPDATED (reaction4-IEIP_ts_guess_scan_12-6_orca.gbw) ****
             **** DENSITY reaction4-IEIP_ts_guess_scan_12-6_orca.scfp WAS UPDATED ****
             **** ENERGY FILE WAS UPDATED (reaction4-IEIP_ts_guess_scan_12-6_orca.en.tmp) ****
             **** THE GBW FILE WAS UPDATED (reaction4-IEIP_ts_guess_scan_12-6_orca.gbw) ****
             **** DENSITY reaction4-IEIP_ts_guess_scan_12-6_orca.scfp WAS UPDATED ****
----------------
ORBITAL ENERGIES
----------------

  NO   OCC          E(Eh)            E(eV) 
   0   2.0000     -89.765772     -2442.6508 
   1   2.0000     -19.632245      -534.2205 
   2   2.0000     -19.614903      -533.7487 
   3   2.0000     -14.835297      -403.6890 
   4   2.0000     -10.692686      -290.9628 
   5   2.0000     -10.655078      -289.9394 
   6   2.0000     -10.627537      -289.1900 
   7   2.0000     -10.626797      -289.1698 
   8   2.0000     -10.624874      -289.1175 
   9   2.0000     -10.624067      -289.0956 
  10   2.0000     -10.616062      -288.8777 
  11   2.0000     -10.614540      -288.8363 
  12   2.0000     -10.613235      -288.8008 
  13   2.0000     -10.611169      -288.7446 
  14   2.0000     -10.590279      -288.1761 
  15   2.0000     -10.589316      -288.1499 
  16   2.0000     -10.553993      -287.1888 
  17   2.0000     -10.550989      -287.1070 
  18   2.0000     -10.542103      -286.8652 
  19   2.0000      -8.405183      -228.7167 
  20   2.0000      -6.295051      -171.2971 
  21   2.0000      -6.291485      -171.2000 
  22   2.0000      -6.290186      -171.1647 
  23   2.0000      -4.022361      -109.4540 
  24   2.0000      -2.339793       -63.6690 
  25   2.0000      -2.308758       -62.8245 
  26   2.0000      -2.305759       -62.7429 
  27   2.0000      -1.320954       -35.9450 
  28   2.0000      -1.222075       -33.2544 
  29   2.0000      -1.210806       -32.9477 
  30   2.0000      -1.161588       -31.6084 
  31   2.0000      -1.129328       -30.7306 
  32   2.0000      -1.026205       -27.9244 
  33   2.0000      -0.974432       -26.5156 
  34   2.0000      -0.971825       -26.4447 
  35   2.0000      -0.967962       -26.3396 
  36   2.0000      -0.960438       -26.1349 
  37   2.0000      -0.936562       -25.4851 
  38   2.0000      -0.900804       -24.5121 
  39   2.0000      -0.873641       -23.7730 
  40   2.0000      -0.800298       -21.7772 
  41   2.0000      -0.783843       -21.3294 
  42   2.0000      -0.777902       -21.1678 
  43   2.0000      -0.777442       -21.1553 
  44   2.0000      -0.762820       -20.7574 
  45   2.0000      -0.759018       -20.6539 
  46   2.0000      -0.744500       -20.2589 
  47   2.0000      -0.723684       -19.6924 
  48   2.0000      -0.692017       -18.8307 
  49   2.0000      -0.684455       -18.6250 
  50   2.0000      -0.664234       -18.0747 
  51   2.0000      -0.657300       -17.8860 
  52   2.0000      -0.647777       -17.6269 
  53   2.0000      -0.637565       -17.3490 
  54   2.0000      -0.632382       -17.2080 
  55   2.0000      -0.628796       -17.1104 
  56   2.0000      -0.622295       -16.9335 
  57   2.0000      -0.612268       -16.6607 
  58   2.0000      -0.601032       -16.3549 
  59   2.0000      -0.598334       -16.2815 
  60   2.0000      -0.597489       -16.2585 
  61   2.0000      -0.592144       -16.1131 
  62   2.0000      -0.581017       -15.8103 
  63   2.0000      -0.571300       -15.5459 
  64   2.0000      -0.565163       -15.3789 
  65   2.0000      -0.563104       -15.3228 
  66   2.0000      -0.553738       -15.0680 
  67   2.0000      -0.547368       -14.8947 
  68   2.0000      -0.542739       -14.7687 
  69   2.0000      -0.536031       -14.5862 
  70   2.0000      -0.530663       -14.4401 
  71   2.0000      -0.518843       -14.1184 
  72   2.0000      -0.513745       -13.9797 
  73   2.0000      -0.499720       -13.5981 
  74   2.0000      -0.493805       -13.4371 
  75   2.0000      -0.488170       -13.2838 
  76   2.0000      -0.478865       -13.0306 
  77   2.0000      -0.450278       -12.2527 
  78   2.0000      -0.444419       -12.0932 
  79   2.0000      -0.419970       -11.4280 
  80   2.0000      -0.415522       -11.3069 
  81   2.0000      -0.393951       -10.7200 
  82   0.0000      -0.206296        -5.6136 
  83   0.0000      -0.143665        -3.9093 
  84   0.0000      -0.131495        -3.5782 
  85   0.0000      -0.088121        -2.3979 
  86   0.0000      -0.075382        -2.0513 
  87   0.0000      -0.064447        -1.7537 
  88   0.0000      -0.062377        -1.6974 
  89   0.0000      -0.053163        -1.4466 
[...]

----------------------
LOEWDIN ATOMIC CHARGES
----------------------
   0 Ir:   -0.259040
   1 C :   -0.059447
   2 C :   -0.097292
   3 C :   -0.097083
   4 C :   -0.042328
   5 C :   -0.016974
   6 N :   -0.000116
   7 C :   -0.069589
   8 C :   -0.362272
   9 H :    0.156404
  10 H :    0.132777
  11 H :    0.143661
  12 C :   -0.343622
  13 H :    0.155355
  14 H :    0.150900
  15 H :    0.137931
  16 H :    0.133496
  17 C :    0.027554
  18 C :   -0.183405
  19 H :    0.160865
  20 C :   -0.220486
  21 C :   -0.122611
  22 S :    0.502177
  23 C :   -0.258354
  24 H :    0.353830
  25 H :    0.163176
  26 H :    0.169776
  27 H :    0.181689
  28 H :    0.179116
  29 H :    0.188000
  30 O :   -0.262010
  31 O :   -0.185722
  32 C :    0.160806
  33 C :   -0.372350
  34 H :    0.163701
  35 H :    0.171391
  36 H :    0.154911
  37 H :    0.181391
  38 H :    0.183793

-------------------------------
LOEWDIN REDUCED ORBITAL CHARGES
-------------------------------
  0 Irs       :     2.447996  s :     2.447996
      pz      :     2.255809  p :     6.777870
      px      :     2.255002
      py      :     2.267059
      dz2     :     1.736239  d :     7.943078
      dxz     :     1.654652
      dyz     :     1.422388
      dx2y2   :     1.600668
      dxy     :     1.529131
      f0      :     0.010865  f :     0.090096
      f+1     :     0.005648
      f-1     :     0.016068
      f+2     :     0.014242
      f-2     :     0.016313
      f+3     :     0.010741
      f-3     :     0.016218
  1 C s       :     2.873862  s :     2.873862
      pz      :     1.052916  p :     3.082620
      px      :     1.075468
      py      :     0.954236
      dz2     :     0.025827  d :     0.102964
      dxz     :     0.025508
      dyz     :     0.016390
      dx2y2   :     0.018887
      dxy     :     0.016352
  2 C s       :     2.875782  s :     2.875782
      pz      :     1.037572  p :     3.123238
      px      :     1.089087
      py      :     0.996579
      dz2     :     0.024208  d :     0.098272
      dxz     :     0.028064
      dyz     :     0.016138
      dx2y2   :     0.017221
      dxy     :     0.012641
  3 C s       :     2.870924  s :     2.870924
      pz      :     1.029085  p :     3.127287
      px      :     1.083336
      py      :     1.014867
      dz2     :     0.022180  d :     0.098872
      dxz     :     0.031157
      dyz     :     0.015387
      dx2y2   :     0.016292
      dxy     :     0.013856
  4 C s       :     2.874533  s :     2.874533
      pz      :     1.080571  p :     3.063623
      px      :     1.043914
      py      :     0.939139
      dz2     :     0.022837  d :     0.104171
      dxz     :     0.029064
      dyz     :     0.013372
      dx2y2   :     0.019721
      dxy     :     0.019177
  5 C s       :     2.881084  s :     2.881084
      pz      :     1.048651  p :     3.031888
      px      :     1.042706
      py      :     0.940531
      dz2     :     0.021618  d :     0.104002
      dxz     :     0.031182
      dyz     :     0.015850
      dx2y2   :     0.015849
      dxy     :     0.019503
  6 N s       :     3.123389  s :     3.123389
      pz      :     1.248838  p :     3.778136
      px      :     1.287752
      py      :     1.241546
      dz2     :     0.030252  d :     0.098592
      dxz     :     0.027212
      dyz     :     0.018495
      dx2y2   :     0.012519
      dxy     :     0.010114
  7 C s       :     2.862371  s :     2.862371
      pz      :     1.056497  p :     3.072658
      px      :     0.939249
      py      :     1.076912
      dz2     :     0.027955  d :     0.134560
      dxz     :     0.029250
      dyz     :     0.013654
      dx2y2   :     0.030598
      dxy     :     0.033103
  8 C s       :     2.953480  s :     2.953480
      pz      :     1.138045  p :     3.341314
      px      :     1.123285
      py      :     1.079984
      dz2     :     0.014738  d :     0.067479
      dxz     :     0.017439
      dyz     :     0.005709
      dx2y2   :     0.010670
      dxy     :     0.018923
  9 H s       :     0.843596  s :     0.843596
 10 H s       :     0.867223  s :     0.867223
 11 H s       :     0.856339  s :     0.856339
 12 C s       :     2.953531  s :     2.953531
      pz      :     1.145084  p :     3.322163
      px      :     1.109138
      py      :     1.067941
      dz2     :     0.014481  d :     0.067928
      dxz     :     0.014109
      dyz     :     0.008811
      dx2y2   :     0.012341
      dxy     :     0.018185
 13 H s       :     0.844645  s :     0.844645
 14 H s       :     0.849100  s :     0.849100
 15 H s       :     0.862069  s :     0.862069
 16 H s       :     0.866504  s :     0.866504
 17 C s       :     2.875715  s :     2.875715
      pz      :     1.006431  p :     2.956675
      px      :     1.061285
      py      :     0.888959
      dz2     :     0.038604  d :     0.140056
      dxz     :     0.047470
      dyz     :     0.026581
      dx2y2   :     0.012793
      dxy     :     0.014609
 18 C s       :     2.891564  s :     2.891564
      pz      :     1.051620  p :     3.179114
      px      :     1.086655
      py      :     1.040840
      dz2     :     0.033545  d :     0.112727
      dxz     :     0.034049
      dyz     :     0.017793
      dx2y2   :     0.015535
      dxy     :     0.011806
 19 H s       :     0.839135  s :     0.839135
 20 C s       :     2.892437  s :     2.892437
      pz      :     1.141301  p :     3.225041
      px      :     1.059486
      py      :     1.024255
      dz2     :     0.014950  d :     0.103008
      dxz     :     0.038884
      dyz     :     0.014326
      dx2y2   :     0.018521
      dxy     :     0.016328
 21 C s       :     2.896614  s :     2.896614
      pz      :     1.078716  p :     3.131540
      px      :     1.083981
      py      :     0.968843
      dz2     :     0.028590  d :     0.094457
      dxz     :     0.031865
      dyz     :     0.014748
      dx2y2   :     0.012106
      dxy     :     0.007148
 22 S s       :     5.498293  s :     5.498293
      pz      :     3.259124  p :     9.843510
      px      :     3.082641
      py      :     3.501745
      dz2     :     0.049072  d :     0.156020
      dxz     :     0.036119
      dyz     :     0.017545
      dx2y2   :     0.026724
      dxy     :     0.026560
 23 C s       :     2.963827  s :     2.963827
      pz      :     1.120463  p :     3.208911
      px      :     1.027830
      py      :     1.060617
      dz2     :     0.023842  d :     0.085617
      dxz     :     0.030892
      dyz     :     0.011598
      dx2y2   :     0.010913
      dxy     :     0.008371
 24 H s       :     0.646170  s :     0.646170
 25 H s       :     0.836824  s :     0.836824
 26 H s       :     0.830224  s :     0.830224
 27 H s       :     0.818311  s :     0.818311
 28 H s       :     0.820884  s :     0.820884
 29 H s       :     0.812000  s :     0.812000
 30 O s       :     3.515975  s :     3.515975
      pz      :     1.454985  p :     4.691654
      px      :     1.565414
      py      :     1.671254
      dz2     :     0.015721  d :     0.054381
      dxz     :     0.015474
      dyz     :     0.013555
      dx2y2   :     0.005830
      dxy     :     0.003801
 31 O s       :     3.444318  s :     3.444318
      pz      :     1.687847  p :     4.681421
      px      :     1.599867
      py      :     1.393707
      dz2     :     0.009014  d :     0.059983
      dxz     :     0.004567
      dyz     :     0.015096
      dx2y2   :     0.014542
      dxy     :     0.016764
 32 C s       :     2.813566  s :     2.813566
      pz      :     0.965873  p :     2.706545
      px      :     0.780311
      py      :     0.960361
      dz2     :     0.070647  d :     0.319083
      dxz     :     0.050905
      dyz     :     0.094455
      dx2y2   :     0.051231
      dxy     :     0.051845
 33 C s       :     2.958718  s :     2.958718
      pz      :     1.103319  p :     3.351044
      px      :     1.153620
      py      :     1.094105
      dz2     :     0.004136  d :     0.062589
      dxz     :     0.016851
      dyz     :     0.021086
      dx2y2   :     0.018238
      dxy     :     0.002277
 34 H s       :     0.836299  s :     0.836299
 35 H s       :     0.828609  s :     0.828609
 36 H s       :     0.845089  s :     0.845089
 37 H s       :     0.818609  s :     0.818609
 38 H s       :     0.816207  s :     0.816207


                      *****************************
                      * MAYER POPULATION ANALYSIS *
                      *****************************

  NA   - Mulliken gross atomic population
  ZA   - Total nuclear charge
  QA   - Mulliken gross atomic charge
  VA   - Mayer's total valence
  BVA  - Mayer's bonded valence
  FA   - Mayer's free valence

  ATOM       NA         ZA         QA         VA         BVA        FA
  0 Ir    16.3908    17.0000     0.6092     3.7620     3.7620    -0.0000
  1 C      6.2449     6.0000    -0.2449     3.7268     3.7268     0.0000
  2 C      6.2571     6.0000    -0.2571     3.7311     3.7311     0.0000
  3 C      6.2729     6.0000    -0.2729     3.7440     3.7440    -0.0000
  4 C      6.2238     6.0000    -0.2238     3.7144     3.7144     0.0000
  5 C      6.1518     6.0000    -0.1518     3.6989     3.6989    -0.0000
  6 N      7.4309     7.0000    -0.4309     3.2150     3.2150     0.0000
  7 C      6.1267     6.0000    -0.1267     3.7070     3.7070    -0.0000
  8 C      6.6821     6.0000    -0.6821     3.6885     3.6885    -0.0000
  9 H      0.7303     1.0000     0.2697     0.8974     0.8974    -0.0000
 10 H      0.7758     1.0000     0.2242     0.9108     0.9108    -0.0000
 11 H      0.7456     1.0000     0.2544     0.9002     0.9002     0.0000
 12 C      6.6337     6.0000    -0.6337     3.6706     3.6706    -0.0000
 13 H      0.7195     1.0000     0.2805     0.8730     0.8730    -0.0000
 14 H      0.7409     1.0000     0.2591     0.8985     0.8985     0.0000
 15 H      0.7675     1.0000     0.2325     0.9095     0.9095    -0.0000
 16 H      0.7659     1.0000     0.2341     0.9059     0.9059    -0.0000
 17 C      5.9305     6.0000     0.0695     3.6603     3.6603    -0.0000
 18 C      6.1192     6.0000    -0.1192     3.6919     3.6919     0.0000
 19 H      0.7139     1.0000     0.2861     0.8866     0.8866     0.0000
 20 C      6.5799     6.0000    -0.5799     3.5651     3.5651     0.0000
 21 C      6.0920     6.0000    -0.0920     3.7426     3.7426     0.0000
 22 S     15.6545    16.0000     0.3455     2.6046     2.6046    -0.0000
 23 C      6.4282     6.0000    -0.4282     3.7516     3.7516    -0.0000
 24 H      0.5290     1.0000     0.4710     0.7493     0.7493    -0.0000
 25 H      0.7313     1.0000     0.2687     0.9010     0.9010    -0.0000
 26 H      0.7012     1.0000     0.2988     0.8970     0.8970     0.0000
 27 H      0.7154     1.0000     0.2846     0.9063     0.9063     0.0000
 28 H      0.7186     1.0000     0.2814     0.9093     0.9093     0.0000
 29 H      0.7022     1.0000     0.2978     0.8955     0.8955    -0.0000
 30 O      8.4747     8.0000    -0.4747     2.1485     2.1485    -0.0000
 31 O      8.5128     8.0000    -0.5128     2.1090     2.1090     0.0000
 32 C      5.3717     6.0000     0.6283     3.9002     3.9002    -0.0000
 33 C      6.7437     6.0000    -0.7437     3.6607     3.6607     0.0000
 34 H      0.7282     1.0000     0.2718     0.8938     0.8938    -0.0000
 35 H      0.7258     1.0000     0.2742     0.8919     0.8919     0.0000
 36 H      0.7403     1.0000     0.2597     0.8981     0.8981    -0.0000
 37 H      0.7186     1.0000     0.2814     0.9095     0.9095     0.0000
 38 H      0.7080     1.0000     0.2920     0.9037     0.9037     0.0000

  Mayer bond orders larger than 0.100000
B(  0-Ir,  1-C ) :   0.4435 B(  0-Ir,  2-C ) :   0.3991 B(  0-Ir,  3-C ) :   0.4690 
B(  0-Ir,  4-C ) :   0.4227 B(  0-Ir,  5-C ) :   0.3659 B(  0-Ir,  6-N ) :   0.4634 
B(  0-Ir, 20-C ) :   0.4995 B(  0-Ir, 31-O ) :   0.5275 B(  1-C ,  2-C ) :   1.1266 
B(  1-C ,  4-C ) :   1.2262 B(  1-C , 27-H ) :   0.9087 B(  2-C ,  5-C ) :   1.2188 
B(  2-C , 28-H ) :   0.9102 B(  3-C ,  4-C ) :   1.1386 B(  3-C ,  5-C ) :   1.1730 
B(  3-C , 37-H ) :   0.9136 B(  4-C , 38-H ) :   0.8995 B(  5-C , 29-H ) :   0.9013 
B(  6-N ,  7-C ) :   0.8958 B(  6-N , 17-C ) :   1.6490 B(  7-C ,  8-C ) :   0.9903 
B(  7-C , 12-C ) :   0.9662 B(  7-C , 13-H ) :   0.8758 B(  8-C ,  9-H ) :   0.9046 
B(  8-C , 10-H ) :   0.9130 B(  8-C , 11-H ) :   0.9118 B( 12-C , 14-H ) :   0.9077 
B( 12-C , 15-H ) :   0.9152 B( 12-C , 16-H ) :   0.9116 B( 17-C , 18-C ) :   1.1107 
B( 17-C , 19-H ) :   0.8763 B( 18-C , 20-C ) :   1.2152 B( 18-C , 22-S ) :   1.2519 
B( 20-C , 21-C ) :   1.2538 B( 20-C , 24-H ) :   0.3653 B( 21-C , 23-C ) :   1.5495 
B( 21-C , 25-H ) :   0.9015 B( 22-S , 23-C ) :   1.2119 B( 23-C , 26-H ) :   0.8912 
B( 24-H , 30-O ) :   0.3284 B( 30-O , 32-C ) :   1.5906 B( 31-O , 32-C ) :   1.3628 
B( 32-C , 33-C ) :   0.9435 B( 33-C , 34-H ) :   0.9010 B( 33-C , 35-H ) :   0.8943 
B( 33-C , 36-H ) :   0.9084 


------------------
HIRSHFELD ANALYSIS
------------------

Total integrated alpha density =     82.000176330
Total integrated beta density  =     82.000176330

  ATOM     CHARGE      SPIN    
   0 Ir   0.175339    0.000000
   1 C   -0.004222    0.000000
   2 C   -0.016797    0.000000
   3 C   -0.021411    0.000000
   4 C    0.001949    0.000000
   5 C    0.019384    0.000000
   6 N   -0.066238    0.000000
   7 C    0.052594    0.000000
   8 C   -0.071330    0.000000
   9 H    0.053373    0.000000
  10 H    0.037507    0.000000
  11 H    0.041227    0.000000
  12 C   -0.070971    0.000000
  13 H    0.045304    0.000000
  14 H    0.049947    0.000000
  15 H    0.037328    0.000000
  16 H    0.030722    0.000000
  17 C    0.093395    0.000000
  18 C   -0.003614    0.000000
  19 H    0.077267    0.000000
  20 C   -0.089005    0.000000
  21 C   -0.023219    0.000000
  22 S    0.148281    0.000000
  23 C   -0.024839    0.000000
  24 H    0.099360    0.000000
  25 H    0.069348    0.000000
  26 H    0.079754    0.000000
  27 H    0.080280    0.000000
  28 H    0.078487    0.000000
  29 H    0.090606    0.000000
  30 O   -0.238898    0.000000
  31 O   -0.246692    0.000000
  32 C    0.248218    0.000000
  33 C   -0.062881    0.000000
  34 H    0.057694    0.000000
  35 H    0.063333    0.000000
  36 H    0.050390    0.000000
  37 H    0.079752    0.000000
  38 H    0.078926    0.000000

  TOTAL   0.999647    0.000000

-------
TIMINGS
-------

Total SCF time: 0 days 0 hours 4 min 40 sec 

Total time                  ....     280.012 sec
Sum of individual times     ....     279.464 sec  ( 99.8%)

Fock matrix formation       ....     271.398 sec  ( 96.9%)
  Split-RI-J                ....      20.103 sec  (  7.4% of F)
  Chain of spheres X        ....     236.648 sec  ( 87.2% of F)
  XC integration            ....      14.294 sec  (  5.3% of F)
    Basis function eval.    ....       6.631 sec  ( 46.4% of XC)
    Density eval.           ....       3.730 sec  ( 26.1% of XC)
    XC-Functional eval.     ....       1.045 sec  (  7.3% of XC)
    XC-Potential eval.      ....       2.363 sec  ( 16.5% of XC)
Diagonalization             ....       0.237 sec  (  0.1%)
Density matrix formation    ....       0.037 sec  (  0.0%)
Population analysis         ....       1.432 sec  (  0.5%)
Initial guess               ....       0.030 sec  (  0.0%)
Orbital Transformation      ....       0.000 sec  (  0.0%)
Orbital Orthonormalization  ....       0.023 sec  (  0.0%)
DIIS solution               ....       0.090 sec  (  0.0%)
Grid generation             ....       6.240 sec  (  2.2%)

Maximum memory used throughout the entire SCF-calculation: 173.3 MB


-------------------------------------------------------------------------------
                          DFT DISPERSION CORRECTION                            
                                                                               
                              DFTD3 V3.1  Rev 1                                
                          USING Becke-Johnson damping                          
-------------------------------------------------------------------------------
The PBEh-3c composite method is recognized
Using three-body term ABC
Active option DFTDOPT                   ...         4   

molecular C6(AA) [au] = 19544.021684 


            DFT-D V3
 parameters
 s6 scaling factor         :     1.0000 
 a1 scaling factor         :     0.4860 
 s8 scaling factor         :     0.0000 
 a2 scaling factor         :     4.5000 
 Damping factor alpha9(ATM):    16.0000 
 ad hoc parameters k1-k3   :    16.0000     1.3333    -4.0000 

 Edisp/kcal,au: -19.307834524425  -0.030768989574 
 E6   /kcal   : -19.645441086 
 E8   /kcal   :  -0.000000000 
 E6(ABC)      :   0.337606561 
 % E8         :   0.000000000 
 % E6(ABC)    :  -1.748547000 

-------------------------   ----------------
Dispersion correction           -0.030768990
-------------------------   ----------------

 ** NOTE ** -> element ir will be treated as co
NOTIFICATION: Different basis set in ORCA and otool_gcp:
ORCA: 358  gCP: 357 
If you are NOT using ECPs, check your basis set inputs!
------------------   -----------------
gCP correction             0.080461741
------------------   -----------------

-------------------------   --------------------
FINAL SINGLE POINT ENERGY     -1288.399877424064
-------------------------   --------------------

                                *** OPTIMIZATION RUN DONE ***

                            ***************************************
                            *     ORCA property calculations      *
                            ***************************************

                                    ---------------------
                                    Active property flags
                                    ---------------------
   (+) Dipole Moment


------------------------------------------------------------------------------
                       ORCA ELECTRIC PROPERTIES CALCULATION
------------------------------------------------------------------------------

Dipole Moment Calculation                       ... on
Quadrupole Moment Calculation                   ... off
Polarizability Calculation                      ... off
GBWName                                         ... reaction4-IEIP_ts_guess_scan_12-6_orca.gbw
Electron density                                ... reaction4-IEIP_ts_guess_scan_12-6_orca.scfp
The origin for moment calculation is the CENTER OF MASS  = ( 0.872085, -0.549157 -0.192855)

-------------
DIPOLE MOMENT
-------------
                                X             Y             Z
Electronic contribution:     37.99566     -73.05793      69.59033
Nuclear contribution   :    -38.62407      72.52087     -69.93703
                        -----------------------------------------
Total Dipole Moment    :     -0.62841      -0.53706      -0.34670
                        -----------------------------------------
Magnitude (a.u.)       :      0.89640
Magnitude (Debye)      :      2.27847



--------------------
Rotational spectrum 
--------------------
 
Rotational constants in cm-1:     0.010528     0.008954     0.008246 
Rotational constants in MHz :   315.627924   268.440161   247.222641 

 Dipole components along the rotational axes: 
x,y,z [a.u.] :    -0.049562     0.061257     0.892932 
x,y,z [Debye]:    -0.125978     0.155703     2.269654 

 

Timings for individual modules:

Sum of individual times         ...     7069.377 sec (= 117.823 min)
GTO integral calculation        ...       25.390 sec (=   0.423 min)   0.4 %
SCF iterations                  ...     5520.834 sec (=  92.014 min)  78.1 %
SCF Gradient evaluation         ...     1519.220 sec (=  25.320 min)  21.5 %
Geometry relaxation             ...        3.932 sec (=   0.066 min)   0.1 %
                             ****ORCA TERMINATED NORMALLY****
TOTAL RUN TIME: 0 days 1 hours 57 minutes 54 seconds 757 msec
