
                                 *****************
                                 * O   R   C   A *
                                 *****************

                                            #,                                       
                                            ###                                      
                                            ####                                     
                                            #####                                    
                                            ######                                   
                                           ########,                                 
                                     ,,################,,,,,                         
                               ,,#################################,,                 
                          ,,##########################################,,             
                       ,#########################################, ''#####,          
                    ,#############################################,,   '####,        
                  ,##################################################,,,,####,       
                ,###########''''           ''''###############################       
              ,#####''   ,,,,##########,,,,          '''####'''          '####       
            ,##' ,,,,###########################,,,                        '##       
           ' ,,###''''                  '''############,,,                           
         ,,##''                                '''############,,,,        ,,,,,,###''
      ,#''                                            '''#######################'''  
     '                                                          ''''####''''         
             ,#######,   #######,   ,#######,      ##                                
            ,#'     '#,  ##    ##  ,#'     '#,    #''#        ######   ,####,        
            ##       ##  ##   ,#'  ##            #'  '#       #        #'  '#        
            ##       ##  #######   ##           ,######,      #####,   #    #        
            '#,     ,#'  ##    ##  '#,     ,#' ,#      #,         ##   #,  ,#        
             '#######'   ##     ##  '#######'  #'      '#     #####' # '####'        



                  #######################################################
                  #                        -***-                        #
                  #          Department of theory and spectroscopy      #
                  #    Directorship and core code : Frank Neese         #
                  #        Max Planck Institute fuer Kohlenforschung    #
                  #                Kaiser Wilhelm Platz 1               #
                  #                 D-45470 Muelheim/Ruhr               #
                  #                      Germany                        #
                  #                                                     #
                  #                  All rights reserved                #
                  #                        -***-                        #
                  #######################################################


                         Program Version 5.0.3 -  RELEASE  -


 With contributions from (in alphabetic order):
   Daniel Aravena         : Magnetic Suceptibility
   Michael Atanasov       : Ab Initio Ligand Field Theory (pilot matlab implementation)
   Alexander A. Auer      : GIAO ZORA, VPT2 properties, NMR spectrum
   Ute Becker             : Parallelization
   Giovanni Bistoni       : ED, misc. LED, open-shell LED, HFLD
   Martin Brehm           : Molecular dynamics
   Dmytro Bykov           : SCF Hessian
   Vijay G. Chilkuri      : MRCI spin determinant printing, contributions to CSF-ICE
   Dipayan Datta          : RHF DLPNO-CCSD density
   Achintya Kumar Dutta   : EOM-CC, STEOM-CC
   Dmitry Ganyushin       : Spin-Orbit,Spin-Spin,Magnetic field MRCI
   Miquel Garcia          : C-PCM and meta-GGA Hessian, CC/C-PCM, Gaussian charge scheme
   Yang Guo               : DLPNO-NEVPT2, F12-NEVPT2, CIM, IAO-localization
   Andreas Hansen         : Spin unrestricted coupled pair/coupled cluster methods
   Benjamin Helmich-Paris : MC-RPA, TRAH-SCF, COSX integrals
   Lee Huntington         : MR-EOM, pCC
   Robert Izsak           : Overlap fitted RIJCOSX, COSX-SCS-MP3, EOM
   Marcus Kettner         : VPT2
   Christian Kollmar      : KDIIS, OOCD, Brueckner-CCSD(T), CCSD density, CASPT2, CASPT2-K
   Simone Kossmann        : Meta GGA functionals, TD-DFT gradient, OOMP2, MP2 Hessian
   Martin Krupicka        : Initial AUTO-CI
   Lucas Lang             : DCDCAS
   Marvin Lechner         : AUTO-CI (C++ implementation), FIC-MRCC
   Dagmar Lenk            : GEPOL surface, SMD
   Dimitrios Liakos       : Extrapolation schemes; Compound Job, initial MDCI parallelization
   Dimitrios Manganas     : Further ROCIS development; embedding schemes
   Dimitrios Pantazis     : SARC Basis sets
   Anastasios Papadopoulos: AUTO-CI, single reference methods and gradients
   Taras Petrenko         : DFT Hessian,TD-DFT gradient, ASA, ECA, R-Raman, ABS, FL, XAS/XES, NRVS
   Peter Pinski           : DLPNO-MP2, DLPNO-MP2 Gradient
   Christoph Reimann      : Effective Core Potentials
   Marius Retegan         : Local ZFS, SOC
   Christoph Riplinger    : Optimizer, TS searches, QM/MM, DLPNO-CCSD(T), (RO)-DLPNO pert. Triples
   Tobias Risthaus        : Range-separated hybrids, TD-DFT gradient, RPA, STAB
   Michael Roemelt        : Original ROCIS implementation
   Masaaki Saitow         : Open-shell DLPNO-CCSD energy and density
   Barbara Sandhoefer     : DKH picture change effects
   Avijit Sen             : IP-ROCIS
   Kantharuban Sivalingam : CASSCF convergence, NEVPT2, FIC-MRCI
   Bernardo de Souza      : ESD, SOC TD-DFT
   Georgi Stoychev        : AutoAux, RI-MP2 NMR, DLPNO-MP2 response
   Willem Van den Heuvel  : Paramagnetic NMR
   Boris Wezisla          : Elementary symmetry handling
   Frank Wennmohs         : Technical directorship


 We gratefully acknowledge several colleagues who have allowed us to
 interface, adapt or use parts of their codes:
   Stefan Grimme, W. Hujo, H. Kruse, P. Pracht,  : VdW corrections, initial TS optimization,
                  C. Bannwarth, S. Ehlert          DFT functionals, gCP, sTDA/sTD-DF
   Ed Valeev, F. Pavosevic, A. Kumar             : LibInt (2-el integral package), F12 methods
   Garnet Chan, S. Sharma, J. Yang, R. Olivares  : DMRG
   Ulf Ekstrom                                   : XCFun DFT Library
   Mihaly Kallay                                 : mrcc  (arbitrary order and MRCC methods)
   Jiri Pittner, Ondrej Demel                    : Mk-CCSD
   Frank Weinhold                                : gennbo (NPA and NBO analysis)
   Christopher J. Cramer and Donald G. Truhlar   : smd solvation model
   Lars Goerigk                                  : TD-DFT with DH, B97 family of functionals
   V. Asgeirsson, H. Jonsson                     : NEB implementation
   FAccTs GmbH                                   : IRC, NEB, NEB-TS, DLPNO-Multilevel, CI-OPT
                                                   MM, QMMM, 2- and 3-layer-ONIOM, Crystal-QMMM,
                                                   LR-CPCM, SF, NACMEs, symmetry and pop. for TD-DFT,
                                                   nearIR, NL-DFT gradient (VV10), updates on ESD,
                                                   ML-optimized integration grids
   S Lehtola, MJT Oliveira, MAL Marques          : LibXC Library
   Liviu Ungur et al                             : ANISO software


 Your calculation uses the libint2 library for the computation of 2-el integrals
 For citations please refer to: http://libint.valeyev.net

 Your ORCA version has been built with support for libXC version: 5.1.0
 For citations please refer to: https://tddft.org/programs/libxc/

 This ORCA versions uses:
   CBLAS   interface :  Fast vector & matrix operations
   LAPACKE interface :  Fast linear algebra routines
   SCALAPACK package :  Parallel linear algebra routines
   Shared memory     :  Shared parallel matrices
   BLAS/LAPACK       :  OpenBLAS 0.3.15  USE64BITINT DYNAMIC_ARCH NO_AFFINITY SkylakeX SINGLE_THREADED
        Core in use  :  SkylakeX
   Copyright (c) 2011-2014, The OpenBLAS Project


Your calculation utilizes the geometrical counterpoise correction gCP
Please cite in your paper:
H.Kruse, S. Grimme J.Chem.Phys., 136, (2012), 154101 
   

Your calculation utilizes the atom-pairwise dispersion correction
with the Becke-Johnson damping scheme (D3BJ)
Cite in your paper:
S.Grimme, S.Ehrlich, L.Goerigk, J Comput Chem, (2011), 32, 1456–1465 
S.Grimme, J.Antony, S.Ehrlich and H.Krieg, J.Chem.Phys., 132, (2010), 154104 
   

Your calculation employs the composite approach PBEh-3c.
Please cite in your paper:
S. Grimme, J. G. Brandenburg, C. Bannwarth, A. Hansen J.Chem.Phys., 143, (2015), 054107 
   

================================================================================

cite the ECPs for Ir [Def2-ECP] as follows:
Ce-Yb(ecp-28): M. Dolg, H. Stoll, H.Preuss, J. Chem. Phys., 1989, 90, 1730-1734.
Y-Cd(ecp-28), Hf-Hg(ecp-46): D. Andrae,U. Haeussermann, M. Dolg, H. Stoll, H. Preuss, Theor. Chim. Acta, 1990, 77, 123-141.
In-Sb(ecp-28), Tl-Bi(ecp-46): B. Metz, H. Stoll, M. Dolg, J. Chem. Phys., 2000, 113, 2563-2569.
Te-Xe(ecp-28), Po-Rn(ecp-46): K. A. Peterson, D. Figgen, E. Goll, H. Stoll, M. Dolg, J. Chem. Phys., 2003, 119, 11113-11123.
Rb(ecp-28), Cs(ecp-46): T. Leininger, A. Nicklass, W. Kuechle, H. Stoll, M. Dolg, A. Bergner, Chem. Phys. Lett., 1996, 255, 274-280.
Sr(ecp-28), Ba(ecp-46): M. Kaupp, P. V. Schleyer, H. Stoll and H. Preuss, J. Chem. Phys., 1991, 94, 1360-1366.
La(ecp-46): M. Dolg, H. Stoll, A. Savin, H. Preuss, Theor. Chim. Acta, 1989, 75, 173-194.
Lu(ecp-28): X. Cao, M. Dolg, J. Chem. Phys., 2001, 115, 7348-7355.

ECP parameters for Ir [Def2-ECP] have been obtained from:
TURBOMOLE (7.0.2)

----- Orbital basis set information -----
Your calculation utilizes the basis: def2-mSVP

----- AuxJ basis set information -----
Your calculation utilizes the auxiliary basis: def2/J
   F. Weigend, Phys. Chem. Chem. Phys. 8, 1057 (2006).

================================================================================
                                        WARNINGS
                       Please study these warnings very carefully!
================================================================================


WARNING: Geometry Optimization
  ===> : Switching off AutoStart
         For restart on a previous wavefunction, please use MOREAD

WARNING: No Hueckel Guess possible with ECP basis!
  ===> : Switching to HCORE guess!

INFO   : the flag for use of the SHARK integral package has been found!

================================================================================
                                       INPUT FILE
================================================================================
NAME = reaction4-IEIP_ts_guess_scan_12-1_orca.inp
|  1> ! Opt PBEh-3c
|  2> %geom Constraints
|  3> { B 0 20 2.085714285714286 C }
|  4> { B 24 30 1.4857142857142858 C }
|  5>     end
|  6> end
|  7> %output 
|  8> xyzfile=True 
|  9> end 
| 10> %scf 
| 11> maxiter 250 
| 12> end
| 13> %output
| 14> Print[P_Hirshfeld] = 1
| 15> end
| 16> % maxcore
| 17> 4000
| 18> *xyz 1 1
| 19> Ir   0.63792339  -0.71340253   0.40458402 
| 20> C    0.15375194  -2.83379541   0.30447447 
| 21> C    0.01949852  -2.38582181   1.66523666 
| 22> C    2.21575724  -2.07233366   1.01501048 
| 23> C    1.49292244  -2.64477911  -0.09250601 
| 24> C    1.30194417  -1.94445712   2.09008172 
| 25> N   -1.05088839   0.13588351  -0.51834208 
| 26> C   -2.30607174   0.39820787   0.20144308 
| 27> C   -3.08213287   1.58996561  -0.33971535 
| 28> H   -3.89787607   1.81923409   0.34444951 
| 29> H   -3.53743045   1.39364145  -1.31132775 
| 30> H   -2.45925028   2.48140523  -0.41628845 
| 31> C   -3.15445030  -0.86881722   0.21143117 
| 32> H   -2.00044771   0.62314289   1.22397089 
| 33> H   -4.04352047  -0.71217169   0.82062614 
| 34> H   -3.48166396  -1.13256468  -0.79510200 
| 35> H   -2.61498468  -1.71728896   0.62971277 
| 36> C   -0.90836317   0.40896353  -1.76168634 
| 37> C    0.41575619   0.20001296  -2.27670423 
| 38> H   -1.71481685   0.80794922  -2.36865217 
| 39> C    1.46939483   0.14826895  -1.35524375 
| 40> C    2.69048119  -0.15133725  -2.04217608 
| 41> S    0.89239763  -0.10931697  -3.86979215 
| 42> C    2.52674572  -0.31424838  -3.38086792 
| 43> H    1.53224933   1.15825488  -0.68313033 
| 44> H    3.65686186  -0.18616895  -1.56040638 
| 45> H    3.28350568  -0.51953285  -4.12266001 
| 46> H   -0.63295254  -3.24908594  -0.30858895 
| 47> H   -0.86816671  -2.43750561   2.27726731 
| 48> H    1.52715696  -1.51252444   3.05495775 
| 49> O    1.46803285   2.42279103   0.12112373 
| 50> O    0.56793431   0.98155893   1.56097729 
| 51> C    0.99750179   2.14385893   1.22772170 
| 52> C    0.92857573   3.18839700   2.30644293 
| 53> H    0.88181472   4.18551639   1.87696019 
| 54> H    1.83505945   3.12997829   2.91180364 
| 55> H    0.08180962   3.02573942   2.96918801 
| 56> H    3.27055757  -1.84700442   1.04669024 
| 57> H    1.90475314  -2.89142322  -1.06022363 
| 58> *
| 59> 
| 60>                          ****END OF INPUT****
================================================================================

                       *****************************
                       * Geometry Optimization Run *
                       *****************************

Geometry optimization settings:
Update method            Update   .... BFGS
Choice of coordinates    CoordSys .... Z-matrix Internals
Initial Hessian          InHess   .... Almoef's Model

Convergence Tolerances:
Energy Change            TolE     ....  5.0000e-06 Eh
Max. Gradient            TolMAXG  ....  3.0000e-04 Eh/bohr
RMS Gradient             TolRMSG  ....  1.0000e-04 Eh/bohr
Max. Displacement        TolMAXD  ....  4.0000e-03 bohr
RMS Displacement         TolRMSD  ....  2.0000e-03 bohr
Strict Convergence                ....  False
------------------------------------------------------------------------------
                        ORCA OPTIMIZATION COORDINATE SETUP
------------------------------------------------------------------------------

The optimization will be done in new redundant internal coordinates
Making redundant internal coordinates   ...  (new redundants) done
Evaluating the initial hessian          ...  (Almloef) done
Evaluating the coordinates              ...  done
Calculating the B-matrix                .... done
Calculating the G-matrix                .... done
Diagonalizing the G-matrix              .... done
Imposing constraints:
 Iter   0:  RMS(Cart)=    0.0182070488 RMS(Int)=    0.0070246602
 Iter   1:  RMS(Cart)=    0.0021414989 RMS(Int)=    0.0008594437
 Iter   2:  RMS(Cart)=    0.0002616855 RMS(Int)=    0.0001049447
 Iter   3:  RMS(Cart)=    0.0000319207 RMS(Int)=    0.0000127773
 Iter   4:  RMS(Cart)=    0.0000038846 RMS(Int)=    0.0000015536
 Iter   5:  RMS(Cart)=    0.0000004722 RMS(Int)=    0.0000001888
 Iter   6:  RMS(Cart)=    0.0000000574 RMS(Int)=    0.0000000229
CONVERGED
Small eigenvalue found = 1.401e-02
Small eigenvalue found = 2.223e-02
The first mode is                       ....  280
The number of degrees of freedom        ....  111
Storing new coordinates                 .... done

    -----------------------------------------------------------------
                    Redundant Internal Coordinates


    -----------------------------------------------------------------
         Definition                    Initial Value    Approx d2E/dq
    -----------------------------------------------------------------
      1. B(C   1,Ir  0)                  2.1771         0.080658   
      2. B(C   2,C   1)                  1.4387         0.522098   
      3. B(C   2,Ir  0)                  2.1835         0.078767   
      4. B(C   3,Ir  0)                  2.1698         0.082843   
      5. B(C   4,C   3)                  1.4409         0.517854   
      6. B(C   4,Ir  0)                  2.1697         0.082881   
      7. B(C   4,C   1)                  1.4099         0.581598   
      8. B(C   5,Ir  0)                  2.1898         0.076894   
      9. B(C   5,C   2)                  1.4223         0.557025   
     10. B(C   5,C   3)                  1.4177         0.566315   
     11. B(N   6,Ir  0)                  2.1040         0.094691   
     12. B(C   7,N   6)                  1.4705         0.416325   
     13. B(C   8,C   7)                  1.5217         0.385216   
     14. B(H   9,C   8)                  1.0891         0.361327   
     15. B(H  10,C   8)                  1.0908         0.359028   
     16. B(H  11,C   8)                  1.0902         0.359851   
     17. B(C  12,C   7)                  1.5249         0.380696   
     18. B(H  13,C   7)                  1.0907         0.359212   
     19. B(H  14,C  12)                  1.0891         0.361315   
     20. B(H  15,C  12)                  1.0908         0.359106   
     21. B(H  16,C  12)                  1.0890         0.361446   
     22. B(C  17,N   6)                  1.2759         0.835380   
     23. B(C  18,C  17)                  1.4313         0.527586   
     24. B(H  19,C  17)                  1.0854         0.366317   
     25. B(C  20,Ir  0)                  2.0857         0.096460 C 
     26. B(C  20,C  18)                  1.4014         0.600744   
     27. B(C  21,C  20)                  1.4334         0.534046   
     28. B(S  22,C  18)                  1.6913         0.556746   
     29. B(C  23,C  21)                  1.3583         0.701520   
     30. B(C  23,S  22)                  1.7174         0.504567   
     31. B(H  24,C  20)                  1.2153         0.227667   
     32. B(H  25,C  21)                  1.0804         0.373062   
     33. B(H  26,C  23)                  1.0794         0.374413   
     34. B(H  27,C   1)                  1.0804         0.373056   
     35. B(H  28,C   2)                  1.0795         0.374337   
     36. B(H  29,C   5)                  1.0809         0.372387   
     37. B(O  30,H  24)                  1.4857         0.071521 C 
     38. B(O  31,Ir  0)                  2.0526         0.114015   
     39. B(C  32,O  30)                  1.2346         0.991091   
     40. B(C  32,O  31)                  1.2829         0.828540   
     41. B(C  33,C  32)                  1.5032         0.412306   
     42. B(H  34,C  33)                  1.0867         0.364509   
     43. B(H  35,C  33)                  1.0916         0.357992   
     44. B(H  36,C  33)                  1.0875         0.363395   
     45. B(H  37,C   3)                  1.0791         0.374861   
     46. B(H  38,C   4)                  1.0802         0.373248   
     47. A(C   1,Ir  0,N   6)          101.1758         0.247627   
     48. A(C   1,Ir  0,C   3)           64.2235         0.244009   
     49. A(C   2,Ir  0,N   6)          109.4934         0.246777   
     50. A(C   2,Ir  0,C   5)           37.9575         0.240600   
     51. A(N   6,Ir  0,O  31)           83.4579         0.259326   
     52. A(C  20,Ir  0,O  31)           98.3361         0.261273   
     53. A(C   2,Ir  0,C  20)          153.8510         0.248581   
     54. A(C   2,Ir  0,O  31)          107.3200         0.253551   
     55. A(C   1,Ir  0,C   5)           63.6268         0.241416   
     56. A(C   3,Ir  0,C   4)           38.7873         0.244966   
     57. A(C   2,Ir  0,C   3)           64.2002         0.243178   
     58. A(C   3,Ir  0,C  20)          101.5332         0.250414   
     59. A(C   4,Ir  0,N   6)          125.1168         0.248606   
     60. A(C   1,Ir  0,O  31)          145.3329         0.254437   
     61. A(C   5,Ir  0,O  31)           92.3462         0.252657   
     62. A(C   5,Ir  0,C  20)          138.0927         0.247715   
     63. A(C   4,Ir  0,C  20)           90.9007         0.250431   
     64. A(C   2,Ir  0,C   4)           64.0559         0.243194   
     65. A(C   1,Ir  0,C  20)          116.2780         0.249441   
     66. A(C   3,Ir  0,N   6)          163.7372         0.248590   
     67. A(C   1,Ir  0,C   4)           37.8512         0.244025   
     68. A(C   4,Ir  0,O  31)          151.3350         0.255458   
     69. A(C   1,Ir  0,C   2)           38.5292         0.242248   
     70. A(C   3,Ir  0,O  31)          112.5579         0.255441   
     71. A(C   5,Ir  0,N   6)          143.8298         0.245921   
     72. A(C   3,Ir  0,C   5)           37.9524         0.242341   
     73. A(N   6,Ir  0,C  20)           77.8873         0.254182   
     74. A(C   4,Ir  0,C   5)           63.6971         0.242357   
     75. A(C   2,C   1,H  27)          126.0269         0.344879   
     76. A(Ir  0,C   1,C   2)           70.9747         0.310780   
     77. A(C   2,C   1,C   4)          108.2782         0.416132   
     78. A(C   4,C   1,H  27)          125.6942         0.351207   
     79. A(Ir  0,C   1,H  27)          124.2300         0.266763   
     80. A(Ir  0,C   1,C   4)           70.7893         0.316264   
     81. A(Ir  0,C   2,C   1)           70.4962         0.309592   
     82. A(Ir  0,C   2,C   5)           71.2615         0.312848   
     83. A(C   1,C   2,C   5)          107.1494         0.412951   
     84. A(Ir  0,C   2,H  28)          126.6556         0.265948   
     85. A(C   5,C   2,H  28)          125.9960         0.348858   
     86. A(C   1,C   2,H  28)          126.7251         0.345078   
     87. A(C   4,C   3,C   5)          107.1648         0.413566   
     88. A(Ir  0,C   3,C   4)           70.6043         0.311714   
     89. A(Ir  0,C   3,C   5)           71.7894         0.316269   
     90. A(Ir  0,C   3,H  37)          126.0436         0.268037   
     91. A(C   5,C   3,H  37)          126.1371         0.349916   
     92. A(C   4,C   3,H  37)          126.5696         0.344686   
     93. A(Ir  0,C   4,C   1)           71.3595         0.317667   
     94. A(Ir  0,C   4,H  38)          123.9736         0.267881   
     95. A(Ir  0,C   4,C   3)           70.6084         0.311737   
     96. A(C   3,C   4,H  38)          125.9893         0.344437   
     97. A(C   1,C   4,C   3)          108.2918         0.415529   
     98. A(C   1,C   4,H  38)          125.7185         0.351237   
     99. A(Ir  0,C   5,H  29)          121.7054         0.264779   
    100. A(Ir  0,C   5,C   2)           70.7809         0.311633   
    101. A(C   3,C   5,H  29)          125.3874         0.349525   
    102. A(Ir  0,C   5,C   3)           70.2582         0.312468   
    103. A(C   2,C   5,C   3)          109.0859         0.418967   
    104. A(C   2,C   5,H  29)          125.3844         0.348552   
    105. A(Ir  0,N   6,C  17)          114.8799         0.340875   
    106. A(C   7,N   6,C  17)          122.2039         0.420808   
    107. A(Ir  0,N   6,C   7)          122.9162         0.304144   
    108. A(C   8,C   7,H  13)          108.3495         0.325827   
    109. A(C  12,C   7,H  13)          108.7307         0.325195   
    110. A(N   6,C   7,C   8)          113.6389         0.369792   
    111. A(N   6,C   7,C  12)          109.2613         0.369043   
    112. A(C   8,C   7,C  12)          111.6754         0.366447   
    113. A(N   6,C   7,H  13)          104.8628         0.328043   
    114. A(C   7,C   8,H   9)          108.8732         0.326141   
    115. A(C   7,C   8,H  10)          112.8733         0.325799   
    116. A(H   9,C   8,H  10)          106.5476         0.290859   
    117. A(C   7,C   8,H  11)          111.9625         0.325922   
    118. A(H   9,C   8,H  11)          107.4543         0.290963   
    119. A(H  10,C   8,H  11)          108.8493         0.290672   
    120. A(C   7,C  12,H  14)          109.7758         0.325507   
    121. A(C   7,C  12,H  15)          111.2091         0.325179   
    122. A(H  14,C  12,H  15)          107.8220         0.290867   
    123. A(C   7,C  12,H  16)          111.9810         0.325526   
    124. A(H  14,C  12,H  16)          107.5548         0.291164   
    125. A(H  15,C  12,H  16)          108.3402         0.290884   
    126. A(N   6,C  17,C  18)          114.1788         0.441985   
    127. A(N   6,C  17,H  19)          122.8917         0.370098   
    128. A(C  18,C  17,H  19)          122.8793         0.344429   
    129. A(C  17,C  18,S  22)          128.5664         0.436476   
    130. A(C  20,C  18,S  22)          113.8034         0.446840   
    131. A(C  17,C  18,C  20)          117.4704         0.419320   
    132. A(C  18,C  20,C  21)          109.2183         0.420231   
    133. A(Ir  0,C  20,H  24)           84.2315         0.254533   
    134. A(C  18,C  20,H  24)          111.8818         0.325202   
    135. A(C  21,C  20,H  24)          113.3514         0.318993   
    136. A(Ir  0,C  20,C  18)          106.0690         0.327396   
    137. A(Ir  0,C  20,C  21)          129.6680         0.321130   
    138. A(C  20,C  21,C  23)          113.4040         0.432064   
    139. A(C  20,C  21,H  25)          123.6608         0.346194   
    140. A(C  23,C  21,H  25)          122.8351         0.362573   
    141. A(C  18,S  22,C  23)           91.2003         0.457134   
    142. A(C  21,C  23,S  22)          112.3719         0.451460   
    143. A(C  21,C  23,H  26)          127.9944         0.362797   
    144. A(S  22,C  23,H  26)          119.6086         0.360957   
    145. A(Ir  0,O  31,C  32)          125.9641         0.351199   
    146. A(O  30,C  32,O  31)          124.3383         0.492029   
    147. A(O  30,C  32,C  33)          120.2872         0.435995   
    148. A(O  31,C  32,C  33)          115.3581         0.422207   
    149. A(C  32,C  33,H  34)          110.8527         0.330296   
    150. A(C  32,C  33,H  35)          108.8272         0.329312   
    151. A(H  34,C  33,H  35)          107.6988         0.291127   
    152. A(C  32,C  33,H  36)          111.6605         0.330129   
    153. A(H  34,C  33,H  36)          110.1568         0.291814   
    154. A(H  35,C  33,H  36)          107.4948         0.290987   
    155. D(C   2,C   1,Ir  0,N   6)   -107.3342         0.001679   
    156. D(C   4,C   1,Ir  0,C   2)   -118.1296         0.001679   
    157. D(H  27,C   1,Ir  0,C   3)   -158.5640         0.001679   
    158. D(C   4,C   1,Ir  0,C  20)     52.6415         0.001679   
    159. D(C   2,C   1,Ir  0,C   3)     80.2453         0.001679   
    160. D(C   4,C   1,Ir  0,N   6)    134.5362         0.001679   
    161. D(H  27,C   1,Ir  0,C   2)    121.1906         0.001679   
    162. D(C   2,C   1,Ir  0,O  31)    -12.6593         0.001679   
    163. D(H  27,C   1,Ir  0,N   6)     13.8565         0.001679   
    164. D(C   2,C   1,Ir  0,C  20)    170.7712         0.001679   
    165. D(C   4,C   1,Ir  0,C   3)    -37.8843         0.001679   
    166. D(H  27,C   1,Ir  0,C  20)    -68.0382         0.001679   
    167. D(H  27,C   1,Ir  0,C   4)   -120.6797         0.001679   
    168. D(H  27,C   1,Ir  0,O  31)    108.5313         0.001679   
    169. D(C   2,C   1,Ir  0,C   5)     37.8015         0.001679   
    170. D(H  27,C   1,Ir  0,C   5)    158.9921         0.001679   
    171. D(C   4,C   1,Ir  0,C   5)    -80.3281         0.001679   
    172. D(C   4,C   1,Ir  0,O  31)   -130.7889         0.001679   
    173. D(C   2,C   1,Ir  0,C   4)    118.1296         0.001679   
    174. D(H  28,C   2,Ir  0,C   5)    121.4109         0.001671   
    175. D(H  28,C   2,C   1,C   4)   -176.9830         0.021639   
    176. D(C   5,C   2,C   1,H  27)    178.7625         0.021639   
    177. D(C   1,C   2,Ir  0,N   6)     83.4259         0.001671   
    178. D(C   1,C   2,Ir  0,C   3)    -80.3108         0.001671   
    179. D(Ir  0,C   2,C   1,C   4)     61.2857         0.021639   
    180. D(H  28,C   2,Ir  0,C   1)   -121.8149         0.001671   
    181. D(H  28,C   2,Ir  0,C  20)   -140.8594         0.001671   
    182. D(C   1,C   2,Ir  0,C   5)   -116.7742         0.001671   
    183. D(C   5,C   2,Ir  0,C   3)     36.4633         0.001671   
    184. D(H  28,C   2,Ir  0,C   4)   -158.8125         0.001671   
    185. D(H  28,C   2,Ir  0,C   3)    157.8742         0.001671   
    186. D(Ir  0,C   2,C   1,H  27)   -119.0099         0.021639   
    187. D(C   1,C   2,Ir  0,C   4)    -36.9976         0.001671   
    188. D(C   5,C   2,Ir  0,C   1)    116.7742         0.001671   
    189. D(C   1,C   2,Ir  0,C  20)    -19.0445         0.001671   
    190. D(C   5,C   2,Ir  0,O  31)    -70.7287         0.001671   
    191. D(C   5,C   2,Ir  0,N   6)   -159.7999         0.001671   
    192. D(H  28,C   2,C   1,Ir  0)    121.7313         0.021639   
    193. D(C   5,C   2,C   1,Ir  0)    -62.2276         0.021639   
    194. D(C   1,C   2,Ir  0,O  31)    172.4971         0.001671   
    195. D(C   5,C   2,Ir  0,C  20)     97.7297         0.001671   
    196. D(H  28,C   2,Ir  0,N   6)    -38.3890         0.001671   
    197. D(C   5,C   2,Ir  0,C   4)     79.7766         0.001671   
    198. D(C   5,C   2,C   1,C   4)     -0.9419         0.021639   
    199. D(H  28,C   2,Ir  0,O  31)     50.6822         0.001671   
    200. D(H  28,C   2,C   1,H  27)      2.7214         0.021639   
    201. D(C   4,C   3,Ir  0,N   6)      9.4567         0.001689   
    202. D(C   5,C   3,Ir  0,C   1)    -79.4587         0.001689   
    203. D(H  37,C   3,Ir  0,C   5)   -121.8964         0.001689   
    204. D(H  37,C   3,Ir  0,C   2)   -158.3647         0.001689   
    205. D(C   4,C   3,Ir  0,O  31)    179.0157         0.001689   
    206. D(H  37,C   3,Ir  0,N   6)    131.1239         0.001689   
    207. D(C   5,C   3,Ir  0,C  20)    166.7606         0.001689   
    208. D(H  37,C   3,Ir  0,C   1)    158.6449         0.001689   
    209. D(H  37,C   3,Ir  0,C   4)    121.6673         0.001689   
    210. D(C   4,C   3,Ir  0,C   5)    116.4363         0.001689   
    211. D(C   5,C   3,Ir  0,C   4)   -116.4363         0.001689   
    212. D(C   5,C   3,Ir  0,O  31)     62.5793         0.001689   
    213. D(C   4,C   3,Ir  0,C  20)    -76.8031         0.001689   
    214. D(C   4,C   3,Ir  0,C   1)     36.9777         0.001689   
    215. D(C   4,C   3,Ir  0,C   2)     79.9681         0.001689   
    216. D(C   5,C   3,Ir  0,N   6)   -106.9797         0.001689   
    217. D(C   5,C   3,Ir  0,C   2)    -36.4682         0.001689   
    218. D(H  37,C   3,Ir  0,C  20)     44.8642         0.001689   
    219. D(H  37,C   3,Ir  0,O  31)    -59.3171         0.001689   
    220. D(C   1,C   4,Ir  0,C  20)   -134.5369         0.001689   
    221. D(C   1,C   4,Ir  0,C   2)     37.6548         0.001689   
    222. D(C   3,C   4,Ir  0,C   2)    -80.3722         0.001689   
    223. D(C   1,C   4,Ir  0,C   5)     80.1261         0.001689   
    224. D(C   1,C   4,Ir  0,N   6)    -58.7484         0.001689   
    225. D(C   3,C   4,Ir  0,C   5)    -37.9008         0.001689   
    226. D(C   3,C   4,Ir  0,C   1)   -118.0270         0.001689   
    227. D(C   1,C   4,Ir  0,O  31)    116.1317         0.001689   
    228. D(C   1,C   4,Ir  0,C   3)    118.0270         0.001689   
    229. D(H  38,C   4,C   1,Ir  0)   -118.9356         0.027120   
    230. D(C   3,C   4,Ir  0,C  20)    107.4362         0.001689   
    231. D(C   3,C   4,Ir  0,O  31)     -1.8953         0.001689   
    232. D(Ir  0,C   4,C   1,C   2)    -61.4032         0.027120   
    233. D(H  38,C   4,Ir  0,C   1)    121.0407         0.001689   
    234. D(H  38,C   4,Ir  0,C   3)   -120.9324         0.001689   
    235. D(H  38,C   4,Ir  0,C   5)   -158.8332         0.001689   
    236. D(H  38,C   4,Ir  0,N   6)     62.2922         0.001689   
    237. D(H  38,C   4,Ir  0,C  20)    -13.4962         0.001689   
    238. D(H  38,C   4,Ir  0,C   2)    158.6954         0.001689   
    239. D(Ir  0,C   4,C   1,H  27)    118.8911         0.027120   
    240. D(H  38,C   4,Ir  0,O  31)   -122.8277         0.001689   
    241. D(C   3,C   4,C   1,Ir  0)     61.2782         0.027120   
    242. D(C   3,C   4,C   1,C   2)     -0.1251         0.027120   
    243. D(H  38,C   4,C   1,C   2)    179.6612         0.027120   
    244. D(C   3,C   4,Ir  0,N   6)   -176.7754         0.001689   
    245. D(C   3,C   4,C   1,H  27)   -179.8307         0.027120   
    246. D(Ir  0,C   4,C   3,H  37)   -121.0328         0.021277   
    247. D(Ir  0,C   4,C   3,C   5)     62.9025         0.021277   
    248. D(H  38,C   4,C   3,C   5)   -178.6382         0.021277   
    249. D(C   1,C   4,C   3,C   5)      1.1473         0.021277   
    250. D(C   1,C   4,C   3,H  37)    177.2119         0.021277   
    251. D(H  38,C   4,C   3,Ir  0)    118.4592         0.021277   
    252. D(H  38,C   4,C   1,H  27)     -0.0445         0.027120   
    253. D(H  38,C   4,C   3,H  37)     -2.5736         0.021277   
    254. D(C   1,C   4,C   3,Ir  0)    -61.7552         0.021277   
    255. D(H  29,C   5,C   2,H  28)     -6.4033         0.024763   
    256. D(C   2,C   5,Ir  0,C   4)    -80.8048         0.001663   
    257. D(C   2,C   5,Ir  0,C   3)   -119.5390         0.001663   
    258. D(C   3,C   5,C   2,C   1)      1.6726         0.024763   
    259. D(C   2,C   5,Ir  0,C  20)   -139.1699         0.001663   
    260. D(C   2,C   5,Ir  0,O  31)    115.5884         0.001663   
    261. D(H  29,C   5,Ir  0,O  31)     -4.7733         0.001663   
    262. D(C   3,C   5,Ir  0,C   2)    119.5390         0.001663   
    263. D(C   3,C   5,Ir  0,C   4)     38.7342         0.001663   
    264. D(C   3,C   5,Ir  0,N   6)    153.0112         0.001663   
    265. D(C   3,C   5,Ir  0,C  20)    -19.6309         0.001663   
    266. D(C   3,C   5,Ir  0,O  31)   -124.8726         0.001663   
    267. D(H  29,C   5,Ir  0,C   1)   -158.7316         0.001663   
    268. D(H  29,C   5,Ir  0,C   2)   -120.3617         0.001663   
    269. D(H  29,C   5,Ir  0,C   3)    120.0993         0.001663   
    270. D(H  29,C   5,Ir  0,C   4)    158.8335         0.001663   
    271. D(H  29,C   5,Ir  0,N   6)    -86.8895         0.001663   
    272. D(C   3,C   5,Ir  0,C   1)     81.1691         0.001663   
    273. D(H  29,C   5,Ir  0,C  20)    100.4684         0.001663   
    274. D(Ir  0,C   5,C   2,C   1)     61.7290         0.024763   
    275. D(Ir  0,C   5,C   2,H  28)   -122.1929         0.024763   
    276. D(C   2,C   5,Ir  0,N   6)     33.4723         0.001663   
    277. D(C   3,C   5,C   2,Ir  0)    -60.0564         0.024763   
    278. D(H  29,C   5,C   2,Ir  0)    115.7897         0.024763   
    279. D(C   3,C   5,C   2,H  28)    177.7506         0.024763   
    280. D(C   2,C   5,Ir  0,C   1)    -38.3699         0.001663   
    281. D(H  29,C   5,C   2,C   1)    177.5187         0.024763   
    282. D(H  29,C   5,C   3,H  37)      6.3202         0.025639   
    283. D(Ir  0,C   5,C   3,H  37)    121.7867         0.025639   
    284. D(C   2,C   5,C   3,Ir  0)     60.3795         0.025639   
    285. D(C   2,C   5,C   3,C   4)     -1.7474         0.025639   
    286. D(C   2,C   5,C   3,H  37)   -177.8338         0.025639   
    287. D(H  29,C   5,C   3,Ir  0)   -115.4664         0.025639   
    288. D(Ir  0,C   5,C   3,C   4)    -62.1269         0.025639   
    289. D(H  29,C   5,C   3,C   4)   -177.5933         0.025639   
    290. D(C   7,N   6,Ir  0,C   1)     83.1560         0.001765   
    291. D(C   7,N   6,Ir  0,C   2)     44.0484         0.001765   
    292. D(C   7,N   6,Ir  0,C   3)    108.2522         0.001765   
    293. D(C   7,N   6,Ir  0,C   4)    115.4806         0.001765   
    294. D(C   7,N   6,Ir  0,C   5)     22.9566         0.001765   
    295. D(C   7,N   6,Ir  0,C  20)   -162.0624         0.001765   
    296. D(C   7,N   6,Ir  0,O  31)    -62.0498         0.001765   
    297. D(C  17,N   6,Ir  0,C   1)    -96.7722         0.001765   
    298. D(C  17,N   6,Ir  0,C   2)   -135.8798         0.001765   
    299. D(C  17,N   6,Ir  0,C   3)    -71.6761         0.001765   
    300. D(C  17,N   6,Ir  0,C   4)    -64.4476         0.001765   
    301. D(C  17,N   6,Ir  0,C   5)   -156.9716         0.001765   
    302. D(C  17,N   6,Ir  0,C  20)     18.0094         0.001765   
    303. D(C  17,N   6,Ir  0,O  31)    118.0219         0.001765   
    304. D(C   8,C   7,N   6,Ir  0)    149.6494         0.014781   
    305. D(C   8,C   7,N   6,C  17)    -30.4275         0.014781   
    306. D(C  12,C   7,N   6,Ir  0)    -84.8977         0.014781   
    307. D(C  12,C   7,N   6,C  17)     95.0254         0.014781   
    308. D(H  13,C   7,N   6,Ir  0)     31.5047         0.014781   
    309. D(H  13,C   7,N   6,C  17)   -148.5723         0.014781   
    310. D(H   9,C   8,C   7,N   6)   -170.3971         0.011811   
    311. D(H   9,C   8,C   7,C  12)     65.4464         0.011811   
    312. D(H   9,C   8,C   7,H  13)    -54.2822         0.011811   
    313. D(H  10,C   8,C   7,N   6)     71.5102         0.011811   
    314. D(H  10,C   8,C   7,C  12)    -52.6463         0.011811   
    315. D(H  10,C   8,C   7,H  13)   -172.3748         0.011811   
    316. D(H  11,C   8,C   7,N   6)    -51.7346         0.011811   
    317. D(H  11,C   8,C   7,C  12)   -175.8911         0.011811   
    318. D(H  11,C   8,C   7,H  13)     64.3803         0.011811   
    319. D(H  14,C  12,C   7,N   6)    174.7748         0.011549   
    320. D(H  14,C  12,C   7,C   8)    -58.6448         0.011549   
    321. D(H  14,C  12,C   7,H  13)     60.8588         0.011549   
    322. D(H  15,C  12,C   7,N   6)    -65.9900         0.011549   
    323. D(H  15,C  12,C   7,C   8)     60.5904         0.011549   
    324. D(H  15,C  12,C   7,H  13)   -179.9060         0.011549   
    325. D(H  16,C  12,C   7,N   6)     55.3834         0.011549   
    326. D(H  16,C  12,C   7,C   8)   -178.0362         0.011549   
    327. D(H  16,C  12,C   7,H  13)    -58.5326         0.011549   
    328. D(C  18,C  17,N   6,Ir  0)     -5.1997         0.060148   
    329. D(C  18,C  17,N   6,C   7)    174.8715         0.060148   
    330. D(H  19,C  17,N   6,Ir  0)    177.3094         0.060148   
    331. D(H  19,C  17,N   6,C   7)     -2.6194         0.060148   
    332. D(C  20,C  18,C  17,N   6)    -19.5926         0.018995   
    333. D(C  20,C  18,C  17,H  19)    157.8986         0.018995   
    334. D(S  22,C  18,C  17,N   6)    155.4937         0.018995   
    335. D(S  22,C  18,C  17,H  19)    -27.0151         0.018995   
    336. D(C  18,C  20,Ir  0,C   1)     71.1501         0.001755   
    337. D(H  24,C  20,C  18,C  17)    -57.3883         0.027030   
    338. D(C  18,C  20,Ir  0,C   3)    137.9326         0.001755   
    339. D(C  18,C  20,Ir  0,C   4)    100.3457         0.001755   
    340. D(Ir  0,C  20,C  18,C  17)     32.7820         0.027030   
    341. D(C  18,C  20,Ir  0,N   6)    -25.4602         0.001755   
    342. D(C  18,C  20,Ir  0,O  31)   -106.8786         0.001755   
    343. D(H  24,C  20,Ir  0,C   4)   -148.5097         0.001755   
    344. D(C  21,C  20,Ir  0,C   2)    -48.8961         0.001755   
    345. D(C  21,C  20,Ir  0,C   3)      4.7845         0.001755   
    346. D(C  21,C  20,Ir  0,C   4)    -32.8024         0.001755   
    347. D(C  21,C  20,Ir  0,C   5)     16.9581         0.001755   
    348. D(C  21,C  20,Ir  0,N   6)   -158.6083         0.001755   
    349. D(C  21,C  20,Ir  0,O  31)    119.9733         0.001755   
    350. D(H  24,C  20,Ir  0,C   1)   -177.7054         0.001755   
    351. D(H  24,C  20,Ir  0,C   2)   -164.6034         0.001755   
    352. D(C  21,C  20,Ir  0,C   1)    -61.9980         0.001755   
    353. D(H  24,C  20,Ir  0,C   3)   -110.9229         0.001755   
    354. D(H  24,C  20,Ir  0,C   5)    -98.7493         0.001755   
    355. D(H  24,C  20,Ir  0,N   6)     85.6843         0.001755   
    356. D(C  18,C  20,Ir  0,C   5)    150.1062         0.001755   
    357. D(H  24,C  20,Ir  0,O  31)      4.2659         0.001755   
    358. D(Ir  0,C  20,C  18,S  22)   -143.0202         0.027030   
    359. D(C  21,C  20,C  18,C  17)    176.2872         0.027030   
    360. D(C  18,C  20,Ir  0,C   2)     84.2520         0.001755   
    361. D(C  21,C  20,C  18,S  22)      0.4849         0.027030   
    362. D(H  24,C  20,C  18,S  22)    126.8094         0.027030   
    363. D(C  23,C  21,C  20,Ir  0)    131.6290         0.021126   
    364. D(C  23,C  21,C  20,C  18)     -0.4297         0.021126   
    365. D(C  23,C  21,C  20,H  24)   -125.9085         0.021126   
    366. D(H  25,C  21,C  20,Ir  0)    -51.9236         0.021126   
    367. D(H  25,C  21,C  20,C  18)    176.0177         0.021126   
    368. D(H  25,C  21,C  20,H  24)     50.5390         0.021126   
    369. D(C  23,S  22,C  18,C  17)   -175.5654         0.006146   
    370. D(C  23,S  22,C  18,C  20)     -0.3301         0.006146   
    371. D(S  22,C  23,C  21,C  20)      0.1978         0.034673   
    372. D(S  22,C  23,C  21,H  25)   -176.2831         0.034673   
    373. D(H  26,C  23,C  21,C  20)    178.3447         0.034673   
    374. D(H  26,C  23,C  21,H  25)      1.8638         0.034673   
    375. D(C  21,C  23,S  22,C  18)      0.0714         0.005277   
    376. D(H  26,C  23,S  22,C  18)   -178.2489         0.005277   
    377. D(C  32,O  31,Ir  0,C   1)   -179.9404         0.001864   
    378. D(C  32,O  31,Ir  0,C   2)    171.8383         0.001864   
    379. D(C  32,O  31,Ir  0,C   3)    103.1922         0.001864   
    380. D(C  32,O  31,Ir  0,C   4)    104.4777         0.001864   
    381. D(C  32,O  31,Ir  0,C   5)    136.3104         0.001864   
    382. D(C  32,O  31,Ir  0,N   6)    -79.7359         0.001864   
    383. D(C  32,O  31,Ir  0,C  20)     -3.0488         0.001864   
    384. D(O  30,C  32,O  31,Ir  0)      3.4266         0.053362   
    385. D(C  33,C  32,O  31,Ir  0)   -175.0972         0.053362   
    386. D(H  34,C  33,C  32,O  30)     26.1578         0.012585   
    387. D(H  34,C  33,C  32,O  31)   -155.2539         0.012585   
    388. D(H  35,C  33,C  32,O  30)    -92.1097         0.012585   
    389. D(H  35,C  33,C  32,O  31)     86.4786         0.012585   
    390. D(H  36,C  33,C  32,O  30)    149.3905         0.012585   
    391. D(H  36,C  33,C  32,O  31)    -32.0212         0.012585   
    -----------------------------------------------------------------

Number of atoms                         .... 39
Number of degrees of freedom            .... 391

         *************************************************************
         *                GEOMETRY OPTIMIZATION CYCLE   1            *
         *************************************************************
---------------------------------
CARTESIAN COORDINATES (ANGSTROEM)
---------------------------------
  Ir     0.640485   -0.708583    0.394015
  C      0.159230   -2.829268    0.289348
  C      0.026196   -2.384811    1.651205
  C      2.222139   -2.065942    0.997189
  C      1.497698   -2.637061   -0.109765
  C      1.309601   -1.942028    2.075115
  N     -1.053152    0.139632   -0.522030
  C     -2.306959    0.399318    0.201116
  C     -3.085851    1.590835   -0.336515
  H     -3.900261    1.818084    0.349917
  H     -3.543210    1.395291   -1.307319
  H     -2.464304    2.483188   -0.413316
  C     -3.153675   -0.868818    0.211340
  H     -1.999190    0.623208    1.223232
  H     -4.041496   -0.714181    0.822874
  H     -3.482946   -1.131571   -0.794785
  H     -2.612116   -1.717182    0.627141
  C     -0.913195    0.413275   -1.760385
  C      0.409877    0.198629   -2.262296
  H     -1.716657    0.814587   -2.369798
  C      1.453682    0.139895   -1.329063
  C      2.678042   -0.165376   -2.009152
  S      0.897107   -0.111928   -3.851844
  C      2.525184   -0.326618   -3.349138
  H      1.515823    1.149115   -0.654925
  H      3.640745   -0.205136   -1.520363
  H      3.287332   -0.535136   -4.084539
  H     -0.627860   -3.244314   -0.323386
  H     -0.860544   -2.439451    2.264328
  H      1.535942   -1.511920    3.040545
  O      1.465636    2.421785    0.110019
  O      0.569879    0.983330    1.554042
  C      0.998167    2.145192    1.218662
  C      0.932059    3.191363    2.295982
  H      0.884057    4.187826    1.865110
  H      1.840179    3.133941    2.898989
  H      0.087093    3.029641    2.961256
  H      3.276644   -1.838946    1.026846
  H      1.907989   -2.880676   -1.078909

----------------------------
CARTESIAN COORDINATES (A.U.)
----------------------------
  NO LB      ZA    FRAG     MASS         X           Y           Z
   0 Ir   17.0000*   0   192.220    1.210341   -1.339028    0.744580
   1 C     6.0000    0    12.011    0.300902   -5.346542    0.546788
   2 C     6.0000    0    12.011    0.049503   -4.506639    3.120324
   3 C     6.0000    0    12.011    4.199233   -3.904065    1.884414
   4 C     6.0000    0    12.011    2.830239   -4.983322   -0.207425
   5 C     6.0000    0    12.011    2.474787   -3.669901    3.921400
   6 N     7.0000    0    14.007   -1.990168    0.263865   -0.986493
   7 C     6.0000    0    12.011   -4.359521    0.754602    0.380053
   8 C     6.0000    0    12.011   -5.831414    3.006242   -0.635920
   9 H     1.0000    0     1.008   -7.370425    3.435681    0.661247
  10 H     1.0000    0     1.008   -6.695696    2.636717   -2.470474
  11 H     1.0000    0     1.008   -4.656860    4.692545   -0.781054
  12 C     6.0000    0    12.011   -5.959582   -1.641828    0.399375
  13 H     1.0000    0     1.008   -3.777921    1.177692    2.311574
  14 H     1.0000    0     1.008   -7.637321   -1.349606    1.555006
  15 H     1.0000    0     1.008   -6.581814   -2.138359   -1.501926
  16 H     1.0000    0     1.008   -4.936183   -3.245003    1.185124
  17 C     6.0000    0    12.011   -1.725689    0.780977   -3.326646
  18 C     6.0000    0    12.011    0.774555    0.375354   -4.275120
  19 H     1.0000    0     1.008   -3.244011    1.539347   -4.478269
  20 C     6.0000    0    12.011    2.747061    0.264364   -2.511566
  21 C     6.0000    0    12.011    5.060765   -0.312515   -3.796747
  22 S    16.0000    0    32.060    1.695287   -0.211514   -7.278931
  23 C     6.0000    0    12.011    4.771906   -0.617218   -6.328954
  24 H     1.0000    0     1.008    2.864490    2.171513   -1.237629
  25 H     1.0000    0     1.008    6.880012   -0.387650   -2.873070
  26 H     1.0000    0     1.008    6.212157   -1.011261   -7.718660
  27 H     1.0000    0     1.008   -1.186483   -6.130865   -0.611112
  28 H     1.0000    0     1.008   -1.626192   -4.609894    4.278959
  29 H     1.0000    0     1.008    2.902509   -2.857115    5.745797
  30 O     8.0000    0    15.999    2.769651    4.576510    0.207906
  31 O     8.0000    0    15.999    1.076915    1.858225    2.936714
  32 C     6.0000    0    12.011    1.886263    4.053825    2.302937
  33 C     6.0000    0    12.011    1.761337    6.030802    4.338777
  34 H     1.0000    0     1.008    1.670625    7.913844    3.524547
  35 H     1.0000    0     1.008    3.477434    5.922290    5.478295
  36 H     1.0000    0     1.008    0.164581    5.725192    5.595962
  37 H     1.0000    0     1.008    6.191959   -3.475104    1.940458
  38 H     1.0000    0     1.008    3.605577   -5.443689   -2.038843
* core charge reduced due to ECP

--------------------------------
INTERNAL COORDINATES (ANGSTROEM)
--------------------------------
 Ir     0   0   0     0.000000000000     0.00000000     0.00000000
 C      1   0   0     2.177271200506     0.00000000     0.00000000
 C      2   1   0     1.438880837600    70.97770173     0.00000000
 C      1   2   3     2.169993994774    64.19872116    80.18565474
 C      2   1   3     1.409502852511    70.79631437   241.90368270
 C      4   1   2     1.416751533424    71.81678814   280.54007398
 N      1   2   3     2.103607518542   101.21446786   252.57469631
 C      7   1   2     1.470506711485   122.85609671    83.09318313
 C      8   7   1     1.521647079551   113.63885778   149.65815046
 H      9   8   7     1.089074175585   108.87317521   189.60289901
 H      9   8   7     1.090811495166   112.87319123    71.51035257
 H      9   8   7     1.090188404210   111.96257273   308.26532083
 C      8   7   1     1.524860164638   109.26129751   275.11098896
 H      8   7   1     1.090671780674   104.86274708    31.51358524
 H     13   8   7     1.089083146838   109.77569229   174.77483254
 H     13   8   7     1.090752274468   111.20931921   294.01005222
 H     13   8   7     1.088984364277   111.98099216    55.38346664
 C      7   1   2     1.280933676868   114.99906641   263.18177276
 C     18   7   1     1.436034765335   114.81500118   354.62108696
 H     18   7   1     1.085340793299   122.58320541   177.13953322
 C     19  18   7     1.400685989961   117.58384418   340.22861269
 C     21  19  18     1.432721815167   109.47650443   176.27810222
 S     19  18   7     1.691390312367   128.62703130   155.37736803
 C     22  21  19     1.358471634925   113.25544874   359.65473226
 H     21  19  18     1.214808098554   111.85022874   302.66613824
 H     22  21  19     1.080373495840   123.73102703   176.11766697
 H     24  22  21     1.079390038619   127.99050477   178.33769526
 H      2   1   3     1.080378137553   124.21994242   121.21061699
 H      3   2   1     1.079445363264   126.72852818   121.71676691
 H      6   4   1     1.080866501516   125.38520769   244.53207352
 O     25  21  19     1.500000007996   174.45241284    25.39298014
 O      1   2   3     2.053055824157   145.31871207   347.34021128
 C     31  25  21     1.234407413313   107.84723474    79.57533080
 C     33  31  25     1.503146723869   120.25132445   174.27731690
 H     34  33  31     1.086687210713   110.85293350    26.15649158
 H     34  33  31     1.091598401206   108.82694734   267.88887071
 H     34  33  31     1.087520746671   111.66051624   149.38912445
 H      4   1   2     1.079064692111   126.03310089   158.65664710
 H      5   2   1     1.080238508163   125.72583093   241.07209625

---------------------------
INTERNAL COORDINATES (A.U.)
---------------------------
 Ir     0   0   0     0.000000000000     0.00000000     0.00000000
 C      1   0   0     4.114446288229     0.00000000     0.00000000
 C      2   1   0     2.719090722411    70.97770173     0.00000000
 C      1   2   3     4.100694362377    64.19872116    80.18565474
 C      2   1   3     2.663574376227    70.79631437   241.90368270
 C      4   1   2     2.677272397985    71.81678814   280.54007398
 N      1   2   3     3.975242103302   101.21446786   252.57469631
 C      7   1   2     2.778854962800   122.85609671    83.09318313
 C      8   7   1     2.875496252833   113.63885778   149.65815046
 H      9   8   7     2.058051931382   108.87317521   189.60289901
 H      9   8   7     2.061334989598   112.87319123    71.51035257
 H      9   8   7     2.060157518334   111.96257273   308.26532083
 C      8   7   1     2.881568103691   109.26129751   275.11098896
 H      8   7   1     2.061070967471   104.86274708    31.51358524
 H     13   8   7     2.058068884593   109.77569229   174.77483254
 H     13   8   7     2.061223078696   111.20931921   294.01005222
 H     13   8   7     2.057882212605   111.98099216    55.38346664
 C      7   1   2     2.420613844997   114.99906641   263.18177276
 C     18   7   1     2.713712425273   114.81500118   354.62108696
 H     18   7   1     2.050996861307   122.58320541   177.13953322
 C     19  18   7     2.646912920647   117.58384418   340.22861269
 C     21  19  18     2.707451856760   109.47650443   176.27810222
 S     19  18   7     3.196264475941   128.62703130   155.37736803
 C     22  21  19     2.567139350709   113.25544874   359.65473226
 H     21  19  18     2.295654611537   111.85022874   302.66613824
 H     22  21  19     2.041610029484   123.73102703   176.11766697
 H     24  22  21     2.039751564672   127.99050477   178.33769526
 H      2   1   3     2.041618801051   124.21994242   121.21061699
 H      3   2   1     2.039856113101   126.72852818   121.71676691
 H      6   4   1     2.042541675195   125.38520769   244.53207352
 O     25  21  19     2.834589215991   174.45241284    25.39298014
 O      1   2   3     3.879713245309   145.31871207   347.34021128
 C     31  25  21     2.332691948845   107.84723474    79.57533080
 C     33  31  25     2.840535647214   120.25132445   174.27731690
 H     34  33  31     2.053541221483   110.85293350    26.15649158
 H     34  33  31     2.062822026505   108.82694734   267.88887071
 H     34  33  31     2.055116376166   111.66051624   149.38912445
 H      4   1   2     2.039136748874   126.03310089   158.65664710
 H      5   2   1     2.041354939744   125.72583093   241.07209625

---------------------
BASIS SET INFORMATION
---------------------
There are 6 groups of distinct atoms

 Group   1 Type Ir  : 7s6p5d1f contracted to 6s3p2d1f pattern {211111/411/41/1}
 Group   2 Type C   : 8s4p1d contracted to 4s2p1d pattern {5111/31/1}
 Group   3 Type N   : 8s4p1d contracted to 4s2p1d pattern {5111/31/1}
 Group   4 Type H   : 4s contracted to 2s pattern {31}
 Group   5 Type S   : 10s7p1d contracted to 4s3p1d pattern {5311/511/1}
 Group   6 Type O   : 8s4p1d contracted to 4s2p1d pattern {5111/31/1}

Atom   0Ir   basis set group =>   1
Atom   1C    basis set group =>   2
Atom   2C    basis set group =>   2
Atom   3C    basis set group =>   2
Atom   4C    basis set group =>   2
Atom   5C    basis set group =>   2
Atom   6N    basis set group =>   3
Atom   7C    basis set group =>   2
Atom   8C    basis set group =>   2
Atom   9H    basis set group =>   4
Atom  10H    basis set group =>   4
Atom  11H    basis set group =>   4
Atom  12C    basis set group =>   2
Atom  13H    basis set group =>   4
Atom  14H    basis set group =>   4
Atom  15H    basis set group =>   4
Atom  16H    basis set group =>   4
Atom  17C    basis set group =>   2
Atom  18C    basis set group =>   2
Atom  19H    basis set group =>   4
Atom  20C    basis set group =>   2
Atom  21C    basis set group =>   2
Atom  22S    basis set group =>   5
Atom  23C    basis set group =>   2
Atom  24H    basis set group =>   4
Atom  25H    basis set group =>   4
Atom  26H    basis set group =>   4
Atom  27H    basis set group =>   4
Atom  28H    basis set group =>   4
Atom  29H    basis set group =>   4
Atom  30O    basis set group =>   6
Atom  31O    basis set group =>   6
Atom  32C    basis set group =>   2
Atom  33C    basis set group =>   2
Atom  34H    basis set group =>   4
Atom  35H    basis set group =>   4
Atom  36H    basis set group =>   4
Atom  37H    basis set group =>   4
Atom  38H    basis set group =>   4
---------------------------------
AUXILIARY/J BASIS SET INFORMATION
---------------------------------
There are 6 groups of distinct atoms

 Group   1 Type Ir  : 11s5p5d3f3g contracted to 8s5p5d2f3g pattern {41111111/11111/11111/21/111}
 Group   2 Type C   : 12s5p4d2f1g contracted to 6s4p3d1f1g pattern {711111/2111/211/2/1}
 Group   3 Type N   : 12s5p4d2f1g contracted to 6s4p3d1f1g pattern {711111/2111/211/2/1}
 Group   4 Type H   : 5s2p1d contracted to 3s1p1d pattern {311/2/1}
 Group   5 Type S   : 14s5p5d2f1g contracted to 8s4p3d1f1g pattern {71111111/2111/311/2/1}
 Group   6 Type O   : 12s5p4d2f1g contracted to 6s4p3d1f1g pattern {711111/2111/211/2/1}

Atom   0Ir   basis set group =>   1
Atom   1C    basis set group =>   2
Atom   2C    basis set group =>   2
Atom   3C    basis set group =>   2
Atom   4C    basis set group =>   2
Atom   5C    basis set group =>   2
Atom   6N    basis set group =>   3
Atom   7C    basis set group =>   2
Atom   8C    basis set group =>   2
Atom   9H    basis set group =>   4
Atom  10H    basis set group =>   4
Atom  11H    basis set group =>   4
Atom  12C    basis set group =>   2
Atom  13H    basis set group =>   4
Atom  14H    basis set group =>   4
Atom  15H    basis set group =>   4
Atom  16H    basis set group =>   4
Atom  17C    basis set group =>   2
Atom  18C    basis set group =>   2
Atom  19H    basis set group =>   4
Atom  20C    basis set group =>   2
Atom  21C    basis set group =>   2
Atom  22S    basis set group =>   5
Atom  23C    basis set group =>   2
Atom  24H    basis set group =>   4
Atom  25H    basis set group =>   4
Atom  26H    basis set group =>   4
Atom  27H    basis set group =>   4
Atom  28H    basis set group =>   4
Atom  29H    basis set group =>   4
Atom  30O    basis set group =>   6
Atom  31O    basis set group =>   6
Atom  32C    basis set group =>   2
Atom  33C    basis set group =>   2
Atom  34H    basis set group =>   4
Atom  35H    basis set group =>   4
Atom  36H    basis set group =>   4
Atom  37H    basis set group =>   4
Atom  38H    basis set group =>   4
-------------------------
ECP PARAMETER INFORMATION
-------------------------

 Group 1, Type Ir ECP Def2-ECP (replacing 60 core electrons, lmax=3)

Atom   0Ir   ECP group =>   1

------------------------------------------------------------------------------
                           ORCA GTO INTEGRAL CALCULATION
                           -- RI-GTO INTEGRALS CHOSEN --
------------------------------------------------------------------------------
------------------------------------------------------------------------------
                   ___                                                        
                  /   \      - P O W E R E D   B Y -                         
                 /     \                                                     
                 |  |  |   _    _      __       _____    __    __             
                 |  |  |  | |  | |    /  \     |  _  \  |  |  /  |          
                  \  \/   | |  | |   /    \    | | | |  |  | /  /          
                 / \  \   | |__| |  /  /\  \   | |_| |  |  |/  /          
                |  |  |   |  __  | /  /__\  \  |    /   |      \           
                |  |  |   | |  | | |   __   |  |    \   |  |\   \          
                \     /   | |  | | |  |  |  |  | |\  \  |  | \   \       
                 \___/    |_|  |_| |__|  |__|  |_| \__\ |__|  \__/        
                                                                              
                      - O R C A' S   B I G   F R I E N D -                    
                                      &                                       
                       - I N T E G R A L  F E E D E R -                       
                                                                              
 v1 FN, 2020, v2 2021                                                         
------------------------------------------------------------------------------


Reading SHARK input file reaction4-IEIP_ts_guess_scan_12-1_orca.SHARKINP.tmp ... ok
----------------------
SHARK INTEGRAL PACKAGE
----------------------

Number of atoms                             ...     39
Number of basis functions                   ...    358
Number of shells                            ...    184
Maximum angular momentum                    ...      3
Integral batch strategy                     ... SHARK/LIBINT Hybrid
RI-J (if used) integral strategy            ... SPLIT-RIJ (Revised 2003 algorithm where possible)
Printlevel                                  ...      1
Contraction scheme used                     ... SEGMENTED contraction
Coulomb Range Separation                    ... NOT USED
Exchange Range Separation                   ... NOT USED
Finite Nucleus Model                        ... NOT USED
Auxiliary Coulomb fitting basis             ... AVAILABLE
   # of basis functions in Aux-J            ...   1231
   # of shells in Aux-J                     ...    405
   Maximum angular momentum in Aux-J        ...      4
Auxiliary J/K fitting basis                 ... NOT available
Auxiliary Correlation fitting basis         ... NOT available
Auxiliary 'external' fitting basis          ... NOT available
Integral threshold                          ...     2.500000e-11
Primitive cut-off                           ...     2.500000e-12
Primitive pair pre-selection threshold      ...     2.500000e-12

Calculating pre-screening integrals         ... done (  0.1 sec) Dimension = 184
Organizing shell pair data                  ... done (  0.1 sec)
Shell pair information
Total number of shell pairs                 ...     17020
Shell pairs after pre-screening             ...     13021
Total number of primitive shell pairs       ...     60705
Primitive shell pairs kept                  ...     29314
          la=0 lb=0:   4990 shell pairs
          la=1 lb=0:   4268 shell pairs
          la=1 lb=1:    857 shell pairs
          la=2 lb=0:   1761 shell pairs
          la=2 lb=1:    790 shell pairs
          la=2 lb=2:    178 shell pairs
          la=3 lb=0:    113 shell pairs
          la=3 lb=1:     42 shell pairs
          la=3 lb=2:     21 shell pairs
          la=3 lb=3:      1 shell pairs

Calculating one electron integrals          ... done (  0.1 sec)
Calculating ECP integrals                   ... done (  0.7 sec)
Calculating RI/J V-Matrix + Cholesky decomp.... done (  0.1 sec)
Calculating Nuclear repulsion               ... done (  0.0 sec) ENN=   2044.468978008523 Eh

SHARK setup successfully completed in   1.4 seconds

Maximum memory used throughout the entire GTOINT-calculation: 91.3 MB
-------------------------------------------------------------------------------
                                 ORCA SCF
-------------------------------------------------------------------------------

------------
SCF SETTINGS
------------
Hamiltonian:
 Density Functional     Method          .... DFT(GTOs)
 Exchange Functional    Exchange        .... PBE
   PBE kappa parameter   XKappa         ....  1.024500
   PBE mue parameter    XMuePBE         ....  0.123457
 Correlation Functional Correlation     .... PBE
   PBE beta parameter  CBetaPBE         ....  0.030000
 LDA part of GGA corr.  LDAOpt          .... PW91-LDA
 Gradients option       PostSCFGGA      .... off
 Hybrid DFT is turned on
   Fraction HF Exchange ScalHFX         ....  0.420000
   Scaling of DF-GGA-X  ScalDFX         ....  0.580000
   Scaling of DF-GGA-C  ScalDFC         ....  1.000000
   Scaling of DF-LDA-C  ScalLDAC        ....  1.000000
   Perturbative correction              ....  0.000000
   Density functional embedding theory  .... OFF
 RI-approximation to the Coulomb term is turned on
   Number of AuxJ basis functions       .... 1231
   RIJ-ON(X) (HFX calculated with O(N)) .... on
   Number of AuxJ basis functions       .... 1231
   RIJ-COSX (HFX calculated with COS-X)).... on


General Settings:
 Integral files         IntName         .... reaction4-IEIP_ts_guess_scan_12-1_orca
 Hartree-Fock type      HFTyp           .... RHF
 Total Charge           Charge          ....    1
 Multiplicity           Mult            ....    1
 Number of Electrons    NEL             ....  164
 Basis Dimension        Dim             ....  358
 Nuclear Repulsion      ENuc            ....   2044.4689780085 Eh

Convergence Acceleration:
 DIIS                   CNVDIIS         .... on
   Start iteration      DIISMaxIt       ....    12
   Startup error        DIISStart       ....  0.200000
   # of expansion vecs  DIISMaxEq       ....     5
   Bias factor          DIISBfac        ....   1.050
   Max. coefficient     DIISMaxC        ....  10.000
 Trust-Rad. Augm. Hess. CNVTRAH         .... auto
   Auto Start mean grad. ratio tolernc. ....  1.125000
   Auto Start start iteration           ....    20
   Auto Start num. interpolation iter.  ....    10
   Max. Number of Micro iterations      ....    16
   Max. Number of Macro iterations      .... Maxiter - #DIIS iter
   Number of Davidson start vectors     ....     2
   Converg. threshold I  (grad. norm)   ....   1.000e-05
   Converg. threshold II (energy diff.) ....   1.000e-08
   Grad. Scal. Fac. for Micro threshold ....   0.100
   Minimum threshold for Micro iter.    ....   0.010
   NR start threshold (gradient norm)   ....   0.001
   Initial trust radius                 ....   0.400
   Minimum AH scaling param. (alpha)    ....   1.000
   Maximum AH scaling param. (alpha)    .... 1000.000
   Orbital update algorithm             .... Taylor
   White noise on init. David. guess    .... on
   Maximum white noise                  ....   0.010
   Quad. conv. algorithm                .... NR
   COSX micro iterations for RIJONX calc.... off
 SOSCF                  CNVSOSCF        .... off
 Level Shifting         CNVShift        .... on
   Level shift para.    LevelShift      ....    0.2500
   Turn off err/grad.   ShiftErr        ....    0.0010
 Zerner damping         CNVZerner       .... off
 Static damping         CNVDamp         .... on
   Fraction old density DampFac         ....    0.7000
   Max. Damping (<1)    DampMax         ....    0.9800
   Min. Damping (>=0)   DampMin         ....    0.0000
   Turn off err/grad.   DampErr         ....    0.1000
 Fernandez-Rico         CNVRico         .... off

SCF Procedure:
 Maximum # iterations   MaxIter         ....   250
 SCF integral mode      SCFMode         .... Direct
   Integral package                     .... SHARK and LIBINT hybrid scheme
 Reset frequency        DirectResetFreq ....    20
 Integral Threshold     Thresh          ....  2.500e-11 Eh
 Primitive CutOff       TCut            ....  2.500e-12 Eh

Convergence Tolerance:
 Convergence Check Mode ConvCheckMode   .... Total+1el-Energy
 Convergence forced     ConvForced      .... 0
 Energy Change          TolE            ....  1.000e-08 Eh
 1-El. energy change                    ....  1.000e-05 Eh
 DIIS Error             TolErr          ....  5.000e-07


Diagonalization of the overlap matrix:
Smallest eigenvalue                        ... 1.215e-03
Time for diagonalization                   ...    0.033 sec
Threshold for overlap eigenvalues          ... 1.000e-08
Number of eigenvalues below threshold      ... 0
Time for construction of square roots      ...    0.010 sec
Total time needed                          ...    0.045 sec

--------------------
INITIAL GUESS: HCORE
--------------------
                      -----------------
                      INTIAL GUESS DONE 
                      -----------------
-------------------
DFT GRID GENERATION
-------------------

General Integration Accuracy     IntAcc      ... 4.159
Radial Grid Type                 RadialGrid  ... OptM3 with GC (2021)
Angular Grid (max. ang.)         AngularGrid ... 3 (Lebedev-194)
Angular grid pruning method      GridPruning ... 4 (adaptive)
Weight generation scheme         WeightScheme... Becke
Basis function cutoff            BFCut       ... 1.0000e-11
Integration weight cutoff        WCut        ... 1.0000e-14
Angular grids for H and He will be reduced by one unit
Partially contracted basis set               ... off
Rotationally invariant grid construction     ... off

Total number of grid points                  ...    93256
Total number of batches                      ...     1478
Average number of points per batch           ...       63
Average number of grid points per atom       ...     2391
Time for grid setup =    1.705 sec

--------------------
COSX GRID GENERATION
--------------------

GRIDX 1
-------
General Integration Accuracy     IntAcc      ... 3.816
Radial Grid Type                 RadialGrid  ... OptM3 with GC (2021)
Angular Grid (max. ang.)         AngularGrid ... 1 (Lebedev-50)
Angular grid pruning method      GridPruning ... 4 (adaptive)
Weight generation scheme         WeightScheme... Becke
Basis function cutoff            BFCut       ... 1.0000e-11
Integration weight cutoff        WCut        ... 1.0000e-14
Angular grids for H and He will be reduced by one unit
Partially contracted basis set               ... on
Rotationally invariant grid construction     ... off

Total number of grid points                  ...    23172
Total number of batches                      ...      383
Average number of points per batch           ...       60
Average number of grid points per atom       ...      594
UseSFitting                                  ... on

GRIDX 2
-------
General Integration Accuracy     IntAcc      ... 4.020
Radial Grid Type                 RadialGrid  ... OptM3 with GC (2021)
Angular Grid (max. ang.)         AngularGrid ... 2 (Lebedev-110)
Angular grid pruning method      GridPruning ... 4 (adaptive)
Weight generation scheme         WeightScheme... Becke
Basis function cutoff            BFCut       ... 1.0000e-11
Integration weight cutoff        WCut        ... 1.0000e-14
Angular grids for H and He will be reduced by one unit
Partially contracted basis set               ... on
Rotationally invariant grid construction     ... off

Total number of grid points                  ...    50299
Total number of batches                      ...      807
Average number of points per batch           ...       62
Average number of grid points per atom       ...     1290
UseSFitting                                  ... on

GRIDX 3
-------
General Integration Accuracy     IntAcc      ... 4.338
Radial Grid Type                 RadialGrid  ... OptM3 with GC (2021)
Angular Grid (max. ang.)         AngularGrid ... 3 (Lebedev-194)
Angular grid pruning method      GridPruning ... 4 (adaptive)
Weight generation scheme         WeightScheme... Becke
Basis function cutoff            BFCut       ... 1.0000e-11
Integration weight cutoff        WCut        ... 1.0000e-14
Angular grids for H and He will be reduced by one unit
Partially contracted basis set               ... on
Rotationally invariant grid construction     ... off

Total number of grid points                  ...   108729
Total number of batches                      ...     1720
Average number of points per batch           ...       63
Average number of grid points per atom       ...     2788
UseSFitting                                  ... on

Time for X-Grid setup             =    4.574 sec

--------------
SCF ITERATIONS
--------------
ITER       Energy         Delta-E        Max-DP      RMS-DP      [F,P]     Damp
               ***  Starting incremental Fock matrix formation  ***
  0   -843.9424843148   0.00000000000020.94746340  0.15288233  3.1823937 0.7000
  1  -1085.8391561439-241.89667182915410.34195856  0.13654520  1.4732145 0.7000
  2  -1157.8311857829 -71.992029638943 5.58354313  0.07066637  1.0609874 0.7000
  3  -1184.4892855642 -26.658099781339 3.86823304  0.04805181  0.7715529 0.7000
  4  -1205.3169470602 -20.827661496024 2.73576792  0.03895809  0.4673829 0.7000
  5  -1219.0604161354 -13.743469075157 2.54134441  0.03333172  0.3690386 0.7000
  6  -1229.4624939539 -10.402077818468 1.73187556  0.02929208  0.3345595 0.7000
  7  -1237.8058631898  -8.343369235966 1.85757555  0.02773224  0.3088692 0.7000
  8  -1243.7084787019  -5.902615512049 1.75089317  0.02639419  0.3558647 0.7000
  9  -1248.9717496321  -5.263270930233 1.48388824  0.02432555  0.3253970 0.7000
 10  -1252.7971994906  -3.825449858488 1.53001690  0.02572820  0.3499360 0.7000
 11  -1254.6352744405  -1.838074949931 1.46454705  0.02308453  0.3195425 0.7000
                               ***Turning on DIIS***
 12  -1258.1585092842  -3.523234843680 1.41534899  0.02413773  0.3329865 0.7000
 13  -1258.7834715840  -0.624962299808 1.32410287  0.01937876  0.2928921 0.7000
 14  -1267.9715703098  -9.188098725803 0.92468389  0.01374867  0.2265663 0.7000
 15  -1274.4210447623  -6.449474452497 0.64570776  0.00972610  0.1607037 0.7000
 16  -1278.8310120829  -4.409967320561 0.45019979  0.00686018  0.1046487 0.7000
 17  -1281.8036582007  -2.972646117803 1.04027250  0.01610034  0.0643791 0.0000
 18  -1288.4254650338  -6.621806833095 0.03233064  0.00055995  0.0241899 0.0000
 19  -1288.4396254258  -0.014160391967 0.03010636  0.00041692  0.0145670 0.0000
               *** Restarting incremental Fock matrix formation ***
                                   *** Resetting DIIS ***
 20  -1288.4431764101  -0.003550984312 0.04388442  0.00055131  0.0175530 0.0000
 21  -1288.4436281255  -0.000451715415 0.02144665  0.00023614  0.0244644 0.0000
 22  -1288.4466141272  -0.002986001697 0.00440404  0.00007858  0.0041844 0.0000
 23  -1288.4468245862  -0.000210459013 0.00328145  0.00003696  0.0022153 0.0000
 24  -1288.4468633621  -0.000038775902 0.00236788  0.00003148  0.0006181 0.0000
               *** Restarting incremental Fock matrix formation ***
                                   *** Resetting DIIS ***
 25  -1288.4473538175  -0.000490455448 0.00590443  0.00009928  0.0006636 0.0000
 26  -1288.4473704717  -0.000016654148 0.00161069  0.00001656  0.0006372 0.0000
 27  -1288.4473697225   0.000000749182 0.00110951  0.00000970  0.0008293 0.0000
 28  -1288.4473733603  -0.000003637754 0.00021626  0.00000299  0.0001309 0.0000
 29  -1288.4473735111  -0.000000150875 0.00018824  0.00000148  0.0000679 0.0000
 30  -1288.4473735656  -0.000000054510 0.00005883  0.00000062  0.0000268 0.0000
 31  -1288.4473735811  -0.000000015499 0.00003888  0.00000037  0.0000137 0.0000
 32  -1288.4473735800   0.000000001176 0.00002234  0.00000021  0.0000070 0.0000
 33  -1288.4473735838  -0.000000003803 0.00001521  0.00000010  0.0000031 0.0000
 34  -1288.4473735831   0.000000000627 0.00000685  0.00000005  0.0000039 0.0000
                            ***DIIS convergence achieved***

               *****************************************************
               *                     SUCCESS                       *
               *           SCF CONVERGED AFTER  35 CYCLES          *
               *****************************************************

Old exchange energy                            =    -59.657549737 Eh
New exchange energy                            =    -59.657565133 Eh
Exchange energy change after final integration =     -0.000015396 Eh
Total energy after final integration           =  -1288.447388992 Eh
Final COS-X integration done in                =    56.015 sec

----------------
TOTAL SCF ENERGY
----------------

Total Energy       :        -1288.44738899 Eh          -35060.43589 eV

Components:
Nuclear Repulsion  :         2044.46897801 Eh           55632.82921 eV
Electronic Energy  :        -3332.91636700 Eh          -90693.26510 eV
One Electron Energy:        -5844.41487862 Eh         -159034.61401 eV
Two Electron Energy:         2511.49851162 Eh           68341.34891 eV
Max COSX asymmetry :            0.00001704 Eh               0.00046 eV

Virial components:
Potential Energy   :        -2501.58861763 Eh          -68071.68698 eV
Kinetic Energy     :         1213.14122864 Eh           33011.25109 eV
Virial Ratio       :            2.06207535


DFT components:
N(Alpha)           :       82.000153850669 electrons
N(Beta)            :       82.000153850669 electrons
N(Total)           :      164.000307701337 electrons
E(X)               :      -79.600416609695 Eh       
E(C)               :       -7.460986914468 Eh       
E(XC)              :      -87.061403524164 Eh       
DFET-embed. en.    :        0.000000000000 Eh       

---------------
SCF CONVERGENCE
---------------

  Last Energy change         ...   -1.3065e-08  Tolerance :   1.0000e-08
  Last MAX-Density change    ...    0.0000e+00  Tolerance :   1.0000e-07
  Last RMS-Density change    ...    0.0000e+00  Tolerance :   5.0000e-09
  Last DIIS Error            ...    8.3054e-07  Tolerance :   5.0000e-07

             **** THE GBW FILE WAS UPDATED (reaction4-IEIP_ts_guess_scan_12-1_orca.gbw) ****
             **** DENSITY reaction4-IEIP_ts_guess_scan_12-1_orca.scfp WAS UPDATED ****
             **** ENERGY FILE WAS UPDATED (reaction4-IEIP_ts_guess_scan_12-1_orca.en.tmp) ****
             **** THE GBW FILE WAS UPDATED (reaction4-IEIP_ts_guess_scan_12-1_orca.gbw) ****
             **** DENSITY reaction4-IEIP_ts_guess_scan_12-1_orca.scfp WAS UPDATED ****
----------------
ORBITAL ENERGIES
----------------

  NO   OCC          E(Eh)            E(eV) 
   0   2.0000     -89.770536     -2442.7805 
   1   2.0000     -19.625729      -534.0432 
   2   2.0000     -19.602008      -533.3978 
   3   2.0000     -14.838876      -403.7863 
   4   2.0000     -10.684425      -290.7380 
   5   2.0000     -10.658322      -290.0277 
   6   2.0000     -10.634536      -289.3804 
   7   2.0000     -10.627871      -289.1991 
   8   2.0000     -10.626961      -289.1743 
   9   2.0000     -10.624875      -289.1175 
  10   2.0000     -10.618425      -288.9420 
  11   2.0000     -10.616904      -288.9006 
  12   2.0000     -10.614200      -288.8271 
  13   2.0000     -10.613999      -288.8216 
  14   2.0000     -10.593277      -288.2577 
  15   2.0000     -10.590274      -288.1760 
  16   2.0000     -10.555176      -287.2209 
  17   2.0000     -10.551329      -287.1162 
  18   2.0000     -10.536898      -286.7236 
  19   2.0000      -8.409922      -228.8456 
  20   2.0000      -6.299780      -171.4257 
  21   2.0000      -6.296181      -171.3278 
  22   2.0000      -6.294960      -171.2946 
  23   2.0000      -4.023327      -109.4803 
  24   2.0000      -2.341062       -63.7035 
  25   2.0000      -2.309724       -62.8508 
  26   2.0000      -2.306985       -62.7763 
  27   2.0000      -1.311130       -35.6777 
  28   2.0000      -1.215217       -33.0677 
  29   2.0000      -1.212147       -32.9842 
  30   2.0000      -1.163325       -31.6557 
  31   2.0000      -1.133067       -30.8323 
  32   2.0000      -1.028571       -27.9888 
  33   2.0000      -0.976282       -26.5660 
  34   2.0000      -0.975380       -26.5414 
  35   2.0000      -0.969821       -26.3902 
  36   2.0000      -0.963199       -26.2100 
  37   2.0000      -0.930242       -25.3132 
  38   2.0000      -0.901599       -24.5338 
  39   2.0000      -0.876535       -23.8517 
  40   2.0000      -0.802921       -21.8486 
  41   2.0000      -0.786479       -21.4012 
  42   2.0000      -0.779606       -21.2142 
  43   2.0000      -0.778961       -21.1966 
  44   2.0000      -0.764390       -20.8001 
  45   2.0000      -0.756650       -20.5895 
  46   2.0000      -0.744446       -20.2574 
  47   2.0000      -0.725575       -19.7439 
  48   2.0000      -0.691357       -18.8128 
  49   2.0000      -0.680181       -18.5087 
  50   2.0000      -0.665563       -18.1109 
  51   2.0000      -0.651345       -17.7240 
  52   2.0000      -0.647256       -17.6127 
  53   2.0000      -0.635141       -17.2831 
  54   2.0000      -0.633173       -17.2295 
  55   2.0000      -0.628758       -17.1094 
  56   2.0000      -0.623103       -16.9555 
  57   2.0000      -0.615163       -16.7394 
  58   2.0000      -0.603379       -16.4188 
  59   2.0000      -0.599869       -16.3233 
  60   2.0000      -0.599186       -16.3047 
  61   2.0000      -0.593566       -16.1518 
  62   2.0000      -0.583189       -15.8694 
  63   2.0000      -0.575824       -15.6690 
  64   2.0000      -0.564798       -15.3689 
  65   2.0000      -0.559950       -15.2370 
  66   2.0000      -0.551984       -15.0202 
  67   2.0000      -0.548195       -14.9171 
  68   2.0000      -0.542184       -14.7536 
  69   2.0000      -0.537314       -14.6211 
  70   2.0000      -0.530504       -14.4357 
  71   2.0000      -0.519293       -14.1307 
  72   2.0000      -0.514940       -14.0122 
  73   2.0000      -0.499339       -13.5877 
  74   2.0000      -0.488946       -13.3049 
  75   2.0000      -0.486897       -13.2491 
  76   2.0000      -0.478816       -13.0292 
  77   2.0000      -0.447674       -12.1818 
  78   2.0000      -0.443268       -12.0619 
  79   2.0000      -0.423675       -11.5288 
  80   2.0000      -0.415175       -11.2975 
  81   2.0000      -0.394476       -10.7342 
  82   0.0000      -0.210773        -5.7354 
  83   0.0000      -0.143476        -3.9042 
  84   0.0000      -0.136000        -3.7007 
  85   0.0000      -0.091958        -2.5023 
  86   0.0000      -0.078255        -2.1294 
  87   0.0000      -0.067371        -1.8332 
  88   0.0000      -0.056577        -1.5395 
  89   0.0000      -0.054737        -1.4895 
[...]

----------------------
LOEWDIN ATOMIC CHARGES
----------------------
   0 Ir:   -0.256719
   1 C :   -0.055058
   2 C :   -0.095282
   3 C :   -0.091556
   4 C :   -0.047016
   5 C :   -0.015672
   6 N :    0.003867
   7 C :   -0.069936
   8 C :   -0.362779
   9 H :    0.156885
  10 H :    0.132839
  11 H :    0.144613
  12 C :   -0.343367
  13 H :    0.157025
  14 H :    0.151544
  15 H :    0.137700
  16 H :    0.133679
  17 C :    0.026945
  18 C :   -0.173723
  19 H :    0.162024
  20 C :   -0.218663
  21 C :   -0.116636
  22 S :    0.506715
  23 C :   -0.259995
  24 H :    0.337244
  25 H :    0.164427
  26 H :    0.170288
  27 H :    0.181901
  28 H :    0.180077
  29 H :    0.189335
  30 O :   -0.263586
  31 O :   -0.197073
  32 C :    0.153801
  33 C :   -0.373666
  34 H :    0.161190
  35 H :    0.169173
  36 H :    0.153931
  37 H :    0.181902
  38 H :    0.183621

-------------------------------
LOEWDIN REDUCED ORBITAL CHARGES
-------------------------------
  0 Irs       :     2.445523  s :     2.445523
      pz      :     2.255136  p :     6.776138
      px      :     2.253400
      py      :     2.267602
      dz2     :     1.757212  d :     7.943827
      dxz     :     1.667856
      dyz     :     1.395141
      dx2y2   :     1.599554
      dxy     :     1.524064
      f0      :     0.011239  f :     0.091232
      f+1     :     0.005499
      f-1     :     0.015864
      f+2     :     0.014974
      f-2     :     0.016579
      f+3     :     0.010781
      f-3     :     0.016297
  1 C s       :     2.874582  s :     2.874582
      pz      :     1.051744  p :     3.077236
      px      :     1.078391
      py      :     0.947102
      dz2     :     0.025966  d :     0.103240
      dxz     :     0.025810
      dyz     :     0.016715
      dx2y2   :     0.018729
      dxy     :     0.016020
  2 C s       :     2.875737  s :     2.875737
      pz      :     1.039420  p :     3.121148
      px      :     1.086625
      py      :     0.995104
      dz2     :     0.024355  d :     0.098398
      dxz     :     0.027806
      dyz     :     0.016347
      dx2y2   :     0.017245
      dxy     :     0.012644
  3 C s       :     2.871207  s :     2.871207
      pz      :     1.029938  p :     3.121110
      px      :     1.082990
      py      :     1.008182
      dz2     :     0.022441  d :     0.099238
      dxz     :     0.031246
      dyz     :     0.015370
      dx2y2   :     0.016154
      dxy     :     0.014026
  4 C s       :     2.874599  s :     2.874599
      pz      :     1.083151  p :     3.068985
      px      :     1.042521
      py      :     0.943314
      dz2     :     0.022573  d :     0.103432
      dxz     :     0.029485
      dyz     :     0.013190
      dx2y2   :     0.019274
      dxy     :     0.018909
  5 C s       :     2.880298  s :     2.880298
      pz      :     1.050177  p :     3.030978
      px      :     1.040699
      py      :     0.940102
      dz2     :     0.022175  d :     0.104396
      dxz     :     0.030963
      dyz     :     0.016013
      dx2y2   :     0.015826
      dxy     :     0.019419
  6 N s       :     3.124279  s :     3.124279
      pz      :     1.250176  p :     3.773006
      px      :     1.288981
      py      :     1.233849
      dz2     :     0.030545  d :     0.098848
      dxz     :     0.027345
      dyz     :     0.018790
      dx2y2   :     0.012161
      dxy     :     0.010007
  7 C s       :     2.862498  s :     2.862498
      pz      :     1.057006  p :     3.073020
      px      :     0.939844
      py      :     1.076171
      dz2     :     0.026865  d :     0.134418
      dxz     :     0.029724
      dyz     :     0.014668
      dx2y2   :     0.030106
      dxy     :     0.033056
  8 C s       :     2.953473  s :     2.953473
      pz      :     1.136980  p :     3.341870
      px      :     1.122946
      py      :     1.081944
      dz2     :     0.014021  d :     0.067436
      dxz     :     0.017758
      dyz     :     0.006505
      dx2y2   :     0.010300
      dxy     :     0.018851
  9 H s       :     0.843115  s :     0.843115
 10 H s       :     0.867161  s :     0.867161
 11 H s       :     0.855387  s :     0.855387
 12 C s       :     2.953565  s :     2.953565
      pz      :     1.144724  p :     3.321892
      px      :     1.109529
      py      :     1.067639
      dz2     :     0.013460  d :     0.067910
      dxz     :     0.014279
      dyz     :     0.010006
      dx2y2   :     0.011924
      dxy     :     0.018241
 13 H s       :     0.842975  s :     0.842975
 14 H s       :     0.848456  s :     0.848456
 15 H s       :     0.862300  s :     0.862300
 16 H s       :     0.866321  s :     0.866321
 17 C s       :     2.875894  s :     2.875894
      pz      :     1.009372  p :     2.957371
      px      :     1.059930
      py      :     0.888069
      dz2     :     0.039170  d :     0.139789
      dxz     :     0.048094
      dyz     :     0.026193
      dx2y2   :     0.012543
      dxy     :     0.013790
 18 C s       :     2.893314  s :     2.893314
      pz      :     1.053521  p :     3.167754
      px      :     1.088090
      py      :     1.026143
      dz2     :     0.033404  d :     0.112656
      dxz     :     0.033888
      dyz     :     0.018094
      dx2y2   :     0.015525
      dxy     :     0.011745
 19 H s       :     0.837976  s :     0.837976
 20 C s       :     2.886501  s :     2.886501
      pz      :     1.133591  p :     3.229021
      px      :     1.058393
      py      :     1.037037
      dz2     :     0.014670  d :     0.103140
      dxz     :     0.038728
      dyz     :     0.014610
      dx2y2   :     0.019073
      dxy     :     0.016059
 21 C s       :     2.896984  s :     2.896984
      pz      :     1.080758  p :     3.125443
      px      :     1.084059
      py      :     0.960627
      dz2     :     0.028416  d :     0.094209
      dxz     :     0.031905
      dyz     :     0.014546
      dx2y2   :     0.012363
      dxy     :     0.006980
 22 S s       :     5.498122  s :     5.498122
      pz      :     3.261746  p :     9.839058
      px      :     3.083189
      py      :     3.494123
      dz2     :     0.048533  d :     0.156105
      dxz     :     0.036270
      dyz     :     0.018047
      dx2y2   :     0.027646
      dxy     :     0.025610
 23 C s       :     2.963596  s :     2.963596
      pz      :     1.120250  p :     3.210959
      px      :     1.025135
      py      :     1.065575
      dz2     :     0.023730  d :     0.085439
      dxz     :     0.030943
      dyz     :     0.011769
      dx2y2   :     0.010875
      dxy     :     0.008122
 24 H s       :     0.662756  s :     0.662756
 25 H s       :     0.835573  s :     0.835573
 26 H s       :     0.829712  s :     0.829712
 27 H s       :     0.818099  s :     0.818099
 28 H s       :     0.819923  s :     0.819923
 29 H s       :     0.810665  s :     0.810665
 30 O s       :     3.515516  s :     3.515516
      pz      :     1.462839  p :     4.693724
      px      :     1.545039
      py      :     1.685846
      dz2     :     0.016206  d :     0.054345
      dxz     :     0.015423
      dyz     :     0.013522
      dx2y2   :     0.005349
      dxy     :     0.003845
 31 O s       :     3.447015  s :     3.447015
      pz      :     1.688512  p :     4.690653
      px      :     1.614576
      py      :     1.387565
      dz2     :     0.009073  d :     0.059404
      dxz     :     0.004222
      dyz     :     0.015108
      dx2y2   :     0.014750
      dxy     :     0.016252
 32 C s       :     2.814233  s :     2.814233
      pz      :     0.977085  p :     2.711609
      px      :     0.780171
      py      :     0.954353
      dz2     :     0.071523  d :     0.320358
      dxz     :     0.048866
      dyz     :     0.097198
      dx2y2   :     0.050130
      dxy     :     0.052639
 33 C s       :     2.959452  s :     2.959452
      pz      :     1.101570  p :     3.351576
      px      :     1.151019
      py      :     1.098987
      dz2     :     0.004131  d :     0.062638
      dxz     :     0.017532
      dyz     :     0.020300
      dx2y2   :     0.018592
      dxy     :     0.002083
 34 H s       :     0.838810  s :     0.838810
 35 H s       :     0.830827  s :     0.830827
 36 H s       :     0.846069  s :     0.846069
 37 H s       :     0.818098  s :     0.818098
 38 H s       :     0.816379  s :     0.816379


                      *****************************
                      * MAYER POPULATION ANALYSIS *
                      *****************************

  NA   - Mulliken gross atomic population
  ZA   - Total nuclear charge
  QA   - Mulliken gross atomic charge
  VA   - Mayer's total valence
  BVA  - Mayer's bonded valence
  FA   - Mayer's free valence

  ATOM       NA         ZA         QA         VA         BVA        FA
  0 Ir    16.3927    17.0000     0.6073     3.7647     3.7647    -0.0000
  1 C      6.2354     6.0000    -0.2354     3.7222     3.7222     0.0000
  2 C      6.2601     6.0000    -0.2601     3.7328     3.7328    -0.0000
  3 C      6.2677     6.0000    -0.2677     3.7425     3.7425    -0.0000
  4 C      6.2297     6.0000    -0.2297     3.7150     3.7150    -0.0000
  5 C      6.1530     6.0000    -0.1530     3.6990     3.6990     0.0000
  6 N      7.4270     7.0000    -0.4270     3.2165     3.2165     0.0000
  7 C      6.1269     6.0000    -0.1269     3.7030     3.7030     0.0000
  8 C      6.6847     6.0000    -0.6847     3.6876     3.6876     0.0000
  9 H      0.7293     1.0000     0.2707     0.8971     0.8971    -0.0000
 10 H      0.7759     1.0000     0.2241     0.9107     0.9107     0.0000
 11 H      0.7436     1.0000     0.2564     0.8993     0.8993     0.0000
 12 C      6.6345     6.0000    -0.6345     3.6702     3.6702    -0.0000
 13 H      0.7165     1.0000     0.2835     0.8729     0.8729     0.0000
 14 H      0.7395     1.0000     0.2605     0.8981     0.8981    -0.0000
 15 H      0.7679     1.0000     0.2321     0.9095     0.9095    -0.0000
 16 H      0.7660     1.0000     0.2340     0.9059     0.9059     0.0000
 17 C      5.9292     6.0000     0.0708     3.6525     3.6525     0.0000
 18 C      6.1213     6.0000    -0.1213     3.6980     3.6980    -0.0000
 19 H      0.7117     1.0000     0.2883     0.8859     0.8859     0.0000
 20 C      6.5840     6.0000    -0.5840     3.5586     3.5586    -0.0000
 21 C      6.0861     6.0000    -0.0861     3.7351     3.7351    -0.0000
 22 S     15.6531    16.0000     0.3469     2.6118     2.6118    -0.0000
 23 C      6.4312     6.0000    -0.4312     3.7501     3.7501     0.0000
 24 H      0.5291     1.0000     0.4709     0.7572     0.7572    -0.0000
 25 H      0.7295     1.0000     0.2705     0.9008     0.9008     0.0000
 26 H      0.7000     1.0000     0.3000     0.8965     0.8965     0.0000
 27 H      0.7147     1.0000     0.2853     0.9055     0.9055    -0.0000
 28 H      0.7170     1.0000     0.2830     0.9088     0.9088    -0.0000
 29 H      0.7001     1.0000     0.2999     0.8945     0.8945     0.0000
 30 O      8.4664     8.0000    -0.4664     2.1617     2.1617    -0.0000
 31 O      8.5241     8.0000    -0.5241     2.0909     2.0909     0.0000
 32 C      5.3797     6.0000     0.6203     3.9158     3.9158    -0.0000
 33 C      6.7431     6.0000    -0.7431     3.6652     3.6652    -0.0000
 34 H      0.7297     1.0000     0.2703     0.8947     0.8947     0.0000
 35 H      0.7299     1.0000     0.2701     0.8936     0.8936     0.0000
 36 H      0.7443     1.0000     0.2557     0.8998     0.8998    -0.0000
 37 H      0.7173     1.0000     0.2827     0.9088     0.9088    -0.0000
 38 H      0.7081     1.0000     0.2919     0.9040     0.9040    -0.0000

  Mayer bond orders larger than 0.100000
B(  0-Ir,  1-C ) :   0.4307 B(  0-Ir,  2-C ) :   0.4120 B(  0-Ir,  3-C ) :   0.4662 
B(  0-Ir,  4-C ) :   0.4250 B(  0-Ir,  5-C ) :   0.3737 B(  0-Ir,  6-N ) :   0.4618 
B(  0-Ir, 20-C ) :   0.4756 B(  0-Ir, 31-O ) :   0.5466 B(  1-C ,  2-C ) :   1.1288 
B(  1-C ,  4-C ) :   1.2344 B(  1-C , 27-H ) :   0.9078 B(  2-C ,  5-C ) :   1.2016 
B(  2-C , 28-H ) :   0.9100 B(  3-C ,  4-C ) :   1.1295 B(  3-C ,  5-C ) :   1.1851 
B(  3-C , 37-H ) :   0.9126 B(  4-C , 38-H ) :   0.8994 B(  5-C , 29-H ) :   0.9004 
B(  6-N ,  7-C ) :   0.8952 B(  6-N , 17-C ) :   1.6545 B(  7-C ,  8-C ) :   0.9905 
B(  7-C , 12-C ) :   0.9657 B(  7-C , 13-H ) :   0.8733 B(  8-C ,  9-H ) :   0.9043 
B(  8-C , 10-H ) :   0.9130 B(  8-C , 11-H ) :   0.9108 B( 12-C , 14-H ) :   0.9073 
B( 12-C , 15-H ) :   0.9153 B( 12-C , 16-H ) :   0.9114 B( 17-C , 18-C ) :   1.1019 
B( 17-C , 19-H ) :   0.8759 B( 18-C , 20-C ) :   1.2111 B( 18-C , 22-S ) :   1.2662 
B( 20-C , 21-C ) :   1.2416 B( 20-C , 24-H ) :   0.4145 B( 21-C , 23-C ) :   1.5589 
B( 21-C , 25-H ) :   0.9009 B( 22-S , 23-C ) :   1.2035 B( 23-C , 26-H ) :   0.8908 
B( 24-H , 30-O ) :   0.2917 B( 30-O , 32-C ) :   1.6483 B( 31-O , 32-C ) :   1.3218 
B( 32-C , 33-C ) :   0.9424 B( 33-C , 34-H ) :   0.9034 B( 33-C , 35-H ) :   0.8967 
B( 33-C , 36-H ) :   0.9089 


------------------
HIRSHFELD ANALYSIS
------------------

Total integrated alpha density =     82.000097276
Total integrated beta density  =     82.000097276

  ATOM     CHARGE      SPIN    
   0 Ir   0.180584    0.000000
   1 C   -0.001729    0.000000
   2 C   -0.014465    0.000000
   3 C   -0.018469    0.000000
   4 C   -0.000337    0.000000
   5 C    0.020400    0.000000
   6 N   -0.062830    0.000000
   7 C    0.052962    0.000000
   8 C   -0.071174    0.000000
   9 H    0.053736    0.000000
  10 H    0.037503    0.000000
  11 H    0.042064    0.000000
  12 C   -0.070732    0.000000
  13 H    0.046246    0.000000
  14 H    0.050484    0.000000
  15 H    0.037085    0.000000
  16 H    0.030629    0.000000
  17 C    0.094515    0.000000
  18 C    0.003546    0.000000
  19 H    0.078294    0.000000
  20 C   -0.085379    0.000000
  21 C   -0.019178    0.000000
  22 S    0.152863    0.000000
  23 C   -0.025244    0.000000
  24 H    0.088980    0.000000
  25 H    0.070845    0.000000
  26 H    0.080136    0.000000
  27 H    0.080705    0.000000
  28 H    0.079540    0.000000
  29 H    0.091623    0.000000
  30 O   -0.252857    0.000000
  31 O   -0.253280    0.000000
  32 C    0.242904    0.000000
  33 C   -0.064750    0.000000
  34 H    0.055654    0.000000
  35 H    0.061264    0.000000
  36 H    0.049213    0.000000
  37 H    0.080524    0.000000
  38 H    0.077929    0.000000

  TOTAL   0.999805    0.000000

-------
TIMINGS
-------

Total SCF time: 0 days 0 hours 4 min 35 sec 

Total time                  ....     275.596 sec
Sum of individual times     ....     273.314 sec  ( 99.2%)

Fock matrix formation       ....     264.993 sec  ( 96.2%)
  Split-RI-J                ....      20.243 sec  (  7.6% of F)
  Chain of spheres X        ....     229.863 sec  ( 86.7% of F)
  XC integration            ....      14.600 sec  (  5.5% of F)
    Basis function eval.    ....       6.764 sec  ( 46.3% of XC)
    Density eval.           ....       3.812 sec  ( 26.1% of XC)
    XC-Functional eval.     ....       1.063 sec  (  7.3% of XC)
    XC-Potential eval.      ....       2.359 sec  ( 16.2% of XC)
Diagonalization             ....       0.244 sec  (  0.1%)
Density matrix formation    ....       0.045 sec  (  0.0%)
Population analysis         ....       1.449 sec  (  0.5%)
Initial guess               ....       0.029 sec  (  0.0%)
Orbital Transformation      ....       0.000 sec  (  0.0%)
Orbital Orthonormalization  ....       0.022 sec  (  0.0%)
DIIS solution               ....       0.094 sec  (  0.0%)
Grid generation             ....       6.461 sec  (  2.3%)

Maximum memory used throughout the entire SCF-calculation: 173.4 MB


-------------------------------------------------------------------------------
                          DFT DISPERSION CORRECTION                            
                                                                               
                              DFTD3 V3.1  Rev 1                                
                          USING Becke-Johnson damping                          
-------------------------------------------------------------------------------
The PBEh-3c composite method is recognized
Using three-body term ABC
Active option DFTDOPT                   ...         4   

molecular C6(AA) [au] = 19544.652210 


            DFT-D V3
 parameters
 s6 scaling factor         :     1.0000 
 a1 scaling factor         :     0.4860 
 s8 scaling factor         :     0.0000 
 a2 scaling factor         :     4.5000 
 Damping factor alpha9(ATM):    16.0000 
 ad hoc parameters k1-k3   :    16.0000     1.3333    -4.0000 

 Edisp/kcal,au: -19.362907564476  -0.030856754040 
 E6   /kcal   : -19.702851722 
 E8   /kcal   :  -0.000000000 
 E6(ABC)      :   0.339944157 
 % E8         :   0.000000000 
 % E6(ABC)    :  -1.755646234 

-------------------------   ----------------
Dispersion correction           -0.030856754
-------------------------   ----------------

 ** NOTE ** -> element ir will be treated as co
NOTIFICATION: Different basis set in ORCA and otool_gcp:
ORCA: 358  gCP: 357 
If you are NOT using ECPs, check your basis set inputs!
------------------   -----------------
gCP correction             0.081131665
------------------   -----------------

-------------------------   --------------------
FINAL SINGLE POINT ENERGY     -1288.397247833683
-------------------------   --------------------

                                *** OPTIMIZATION RUN DONE ***

                            ***************************************
                            *     ORCA property calculations      *
                            ***************************************

                                    ---------------------
                                    Active property flags
                                    ---------------------
   (+) Dipole Moment


------------------------------------------------------------------------------
                       ORCA ELECTRIC PROPERTIES CALCULATION
------------------------------------------------------------------------------

Dipole Moment Calculation                       ... on
Quadrupole Moment Calculation                   ... off
Polarizability Calculation                      ... off
GBWName                                         ... reaction4-IEIP_ts_guess_scan_12-1_orca.gbw
Electron density                                ... reaction4-IEIP_ts_guess_scan_12-1_orca.scfp
The origin for moment calculation is the CENTER OF MASS  = ( 0.877586, -0.551652 -0.201231)

-------------
DIPOLE MOMENT
-------------
                                X             Y             Z
Electronic contribution:     38.71741     -70.92940      68.55207
Nuclear contribution   :    -39.38328      70.17051     -69.02631
                        -----------------------------------------
Total Dipole Moment    :     -0.66587      -0.75889      -0.47424
                        -----------------------------------------
Magnitude (a.u.)       :      1.11544
Magnitude (Debye)      :      2.83522



--------------------
Rotational spectrum 
--------------------
 
Rotational constants in cm-1:     0.010515     0.009065     0.008264 
Rotational constants in MHz :   315.230468   271.750813   247.761979 

 Dipole components along the rotational axes: 
x,y,z [a.u.] :    -0.179569    -0.082379     1.097802 
x,y,z [Debye]:    -0.456429    -0.209390     2.790391 

 

Timings for individual modules:

Sum of individual times         ...     7469.069 sec (= 124.484 min)
GTO integral calculation        ...       24.504 sec (=   0.408 min)   0.3 %
SCF iterations                  ...     5867.173 sec (=  97.786 min)  78.6 %
SCF Gradient evaluation         ...     1573.323 sec (=  26.222 min)  21.1 %
Geometry relaxation             ...        4.069 sec (=   0.068 min)   0.1 %
                             ****ORCA TERMINATED NORMALLY****
TOTAL RUN TIME: 0 days 2 hours 4 minutes 34 seconds 568 msec
