
                                 *****************
                                 * O   R   C   A *
                                 *****************

                                            #,                                       
                                            ###                                      
                                            ####                                     
                                            #####                                    
                                            ######                                   
                                           ########,                                 
                                     ,,################,,,,,                         
                               ,,#################################,,                 
                          ,,##########################################,,             
                       ,#########################################, ''#####,          
                    ,#############################################,,   '####,        
                  ,##################################################,,,,####,       
                ,###########''''           ''''###############################       
              ,#####''   ,,,,##########,,,,          '''####'''          '####       
            ,##' ,,,,###########################,,,                        '##       
           ' ,,###''''                  '''############,,,                           
         ,,##''                                '''############,,,,        ,,,,,,###''
      ,#''                                            '''#######################'''  
     '                                                          ''''####''''         
             ,#######,   #######,   ,#######,      ##                                
            ,#'     '#,  ##    ##  ,#'     '#,    #''#        ######   ,####,        
            ##       ##  ##   ,#'  ##            #'  '#       #        #'  '#        
            ##       ##  #######   ##           ,######,      #####,   #    #        
            '#,     ,#'  ##    ##  '#,     ,#' ,#      #,         ##   #,  ,#        
             '#######'   ##     ##  '#######'  #'      '#     #####' # '####'        



                  #######################################################
                  #                        -***-                        #
                  #          Department of theory and spectroscopy      #
                  #    Directorship and core code : Frank Neese         #
                  #        Max Planck Institute fuer Kohlenforschung    #
                  #                Kaiser Wilhelm Platz 1               #
                  #                 D-45470 Muelheim/Ruhr               #
                  #                      Germany                        #
                  #                                                     #
                  #                  All rights reserved                #
                  #                        -***-                        #
                  #######################################################


                         Program Version 5.0.3 -  RELEASE  -


 With contributions from (in alphabetic order):
   Daniel Aravena         : Magnetic Suceptibility
   Michael Atanasov       : Ab Initio Ligand Field Theory (pilot matlab implementation)
   Alexander A. Auer      : GIAO ZORA, VPT2 properties, NMR spectrum
   Ute Becker             : Parallelization
   Giovanni Bistoni       : ED, misc. LED, open-shell LED, HFLD
   Martin Brehm           : Molecular dynamics
   Dmytro Bykov           : SCF Hessian
   Vijay G. Chilkuri      : MRCI spin determinant printing, contributions to CSF-ICE
   Dipayan Datta          : RHF DLPNO-CCSD density
   Achintya Kumar Dutta   : EOM-CC, STEOM-CC
   Dmitry Ganyushin       : Spin-Orbit,Spin-Spin,Magnetic field MRCI
   Miquel Garcia          : C-PCM and meta-GGA Hessian, CC/C-PCM, Gaussian charge scheme
   Yang Guo               : DLPNO-NEVPT2, F12-NEVPT2, CIM, IAO-localization
   Andreas Hansen         : Spin unrestricted coupled pair/coupled cluster methods
   Benjamin Helmich-Paris : MC-RPA, TRAH-SCF, COSX integrals
   Lee Huntington         : MR-EOM, pCC
   Robert Izsak           : Overlap fitted RIJCOSX, COSX-SCS-MP3, EOM
   Marcus Kettner         : VPT2
   Christian Kollmar      : KDIIS, OOCD, Brueckner-CCSD(T), CCSD density, CASPT2, CASPT2-K
   Simone Kossmann        : Meta GGA functionals, TD-DFT gradient, OOMP2, MP2 Hessian
   Martin Krupicka        : Initial AUTO-CI
   Lucas Lang             : DCDCAS
   Marvin Lechner         : AUTO-CI (C++ implementation), FIC-MRCC
   Dagmar Lenk            : GEPOL surface, SMD
   Dimitrios Liakos       : Extrapolation schemes; Compound Job, initial MDCI parallelization
   Dimitrios Manganas     : Further ROCIS development; embedding schemes
   Dimitrios Pantazis     : SARC Basis sets
   Anastasios Papadopoulos: AUTO-CI, single reference methods and gradients
   Taras Petrenko         : DFT Hessian,TD-DFT gradient, ASA, ECA, R-Raman, ABS, FL, XAS/XES, NRVS
   Peter Pinski           : DLPNO-MP2, DLPNO-MP2 Gradient
   Christoph Reimann      : Effective Core Potentials
   Marius Retegan         : Local ZFS, SOC
   Christoph Riplinger    : Optimizer, TS searches, QM/MM, DLPNO-CCSD(T), (RO)-DLPNO pert. Triples
   Tobias Risthaus        : Range-separated hybrids, TD-DFT gradient, RPA, STAB
   Michael Roemelt        : Original ROCIS implementation
   Masaaki Saitow         : Open-shell DLPNO-CCSD energy and density
   Barbara Sandhoefer     : DKH picture change effects
   Avijit Sen             : IP-ROCIS
   Kantharuban Sivalingam : CASSCF convergence, NEVPT2, FIC-MRCI
   Bernardo de Souza      : ESD, SOC TD-DFT
   Georgi Stoychev        : AutoAux, RI-MP2 NMR, DLPNO-MP2 response
   Willem Van den Heuvel  : Paramagnetic NMR
   Boris Wezisla          : Elementary symmetry handling
   Frank Wennmohs         : Technical directorship


 We gratefully acknowledge several colleagues who have allowed us to
 interface, adapt or use parts of their codes:
   Stefan Grimme, W. Hujo, H. Kruse, P. Pracht,  : VdW corrections, initial TS optimization,
                  C. Bannwarth, S. Ehlert          DFT functionals, gCP, sTDA/sTD-DF
   Ed Valeev, F. Pavosevic, A. Kumar             : LibInt (2-el integral package), F12 methods
   Garnet Chan, S. Sharma, J. Yang, R. Olivares  : DMRG
   Ulf Ekstrom                                   : XCFun DFT Library
   Mihaly Kallay                                 : mrcc  (arbitrary order and MRCC methods)
   Jiri Pittner, Ondrej Demel                    : Mk-CCSD
   Frank Weinhold                                : gennbo (NPA and NBO analysis)
   Christopher J. Cramer and Donald G. Truhlar   : smd solvation model
   Lars Goerigk                                  : TD-DFT with DH, B97 family of functionals
   V. Asgeirsson, H. Jonsson                     : NEB implementation
   FAccTs GmbH                                   : IRC, NEB, NEB-TS, DLPNO-Multilevel, CI-OPT
                                                   MM, QMMM, 2- and 3-layer-ONIOM, Crystal-QMMM,
                                                   LR-CPCM, SF, NACMEs, symmetry and pop. for TD-DFT,
                                                   nearIR, NL-DFT gradient (VV10), updates on ESD,
                                                   ML-optimized integration grids
   S Lehtola, MJT Oliveira, MAL Marques          : LibXC Library
   Liviu Ungur et al                             : ANISO software


 Your calculation uses the libint2 library for the computation of 2-el integrals
 For citations please refer to: http://libint.valeyev.net

 Your ORCA version has been built with support for libXC version: 5.1.0
 For citations please refer to: https://tddft.org/programs/libxc/

 This ORCA versions uses:
   CBLAS   interface :  Fast vector & matrix operations
   LAPACKE interface :  Fast linear algebra routines
   SCALAPACK package :  Parallel linear algebra routines
   Shared memory     :  Shared parallel matrices
   BLAS/LAPACK       :  OpenBLAS 0.3.15  USE64BITINT DYNAMIC_ARCH NO_AFFINITY SkylakeX SINGLE_THREADED
        Core in use  :  SkylakeX
   Copyright (c) 2011-2014, The OpenBLAS Project


Your calculation utilizes the geometrical counterpoise correction gCP
Please cite in your paper:
H.Kruse, S. Grimme J.Chem.Phys., 136, (2012), 154101 
   

Your calculation utilizes the atom-pairwise dispersion correction
with the Becke-Johnson damping scheme (D3BJ)
Cite in your paper:
S.Grimme, S.Ehrlich, L.Goerigk, J Comput Chem, (2011), 32, 1456–1465 
S.Grimme, J.Antony, S.Ehrlich and H.Krieg, J.Chem.Phys., 132, (2010), 154104 
   

Your calculation employs the composite approach PBEh-3c.
Please cite in your paper:
S. Grimme, J. G. Brandenburg, C. Bannwarth, A. Hansen J.Chem.Phys., 143, (2015), 054107 
   

================================================================================

cite the ECPs for Ir [Def2-ECP] as follows:
Ce-Yb(ecp-28): M. Dolg, H. Stoll, H.Preuss, J. Chem. Phys., 1989, 90, 1730-1734.
Y-Cd(ecp-28), Hf-Hg(ecp-46): D. Andrae,U. Haeussermann, M. Dolg, H. Stoll, H. Preuss, Theor. Chim. Acta, 1990, 77, 123-141.
In-Sb(ecp-28), Tl-Bi(ecp-46): B. Metz, H. Stoll, M. Dolg, J. Chem. Phys., 2000, 113, 2563-2569.
Te-Xe(ecp-28), Po-Rn(ecp-46): K. A. Peterson, D. Figgen, E. Goll, H. Stoll, M. Dolg, J. Chem. Phys., 2003, 119, 11113-11123.
Rb(ecp-28), Cs(ecp-46): T. Leininger, A. Nicklass, W. Kuechle, H. Stoll, M. Dolg, A. Bergner, Chem. Phys. Lett., 1996, 255, 274-280.
Sr(ecp-28), Ba(ecp-46): M. Kaupp, P. V. Schleyer, H. Stoll and H. Preuss, J. Chem. Phys., 1991, 94, 1360-1366.
La(ecp-46): M. Dolg, H. Stoll, A. Savin, H. Preuss, Theor. Chim. Acta, 1989, 75, 173-194.
Lu(ecp-28): X. Cao, M. Dolg, J. Chem. Phys., 2001, 115, 7348-7355.

ECP parameters for Ir [Def2-ECP] have been obtained from:
TURBOMOLE (7.0.2)

----- Orbital basis set information -----
Your calculation utilizes the basis: def2-mSVP

----- AuxJ basis set information -----
Your calculation utilizes the auxiliary basis: def2/J
   F. Weigend, Phys. Chem. Chem. Phys. 8, 1057 (2006).

================================================================================
                                        WARNINGS
                       Please study these warnings very carefully!
================================================================================


WARNING: Geometry Optimization
  ===> : Switching off AutoStart
         For restart on a previous wavefunction, please use MOREAD

WARNING: No Hueckel Guess possible with ECP basis!
  ===> : Switching to HCORE guess!

INFO   : the flag for use of the SHARK integral package has been found!

================================================================================
                                       INPUT FILE
================================================================================
NAME = reaction4-IEIP_ts_guess_scan_2-11_orca.inp
|  1> ! Opt PBEh-3c
|  2> %geom Constraints
|  3> { B 0 20 2.5142857142857142 C }
|  4> { B 24 30 1.342857142857143 C }
|  5>     end
|  6> end
|  7> %output 
|  8> xyzfile=True 
|  9> end 
| 10> %scf 
| 11> maxiter 250 
| 12> end
| 13> %output
| 14> Print[P_Hirshfeld] = 1
| 15> end
| 16> % maxcore
| 17> 4000
| 18> *xyz 1 1
| 19> Ir   0.57150526  -0.73731227   0.50718691 
| 20> C    0.01956378  -2.81540190   0.37358444 
| 21> C    0.07352400  -2.37153019   1.74518277 
| 22> C    2.17849385  -2.14972641   0.83817132 
| 23> C    1.29599299  -2.64959473  -0.19248605 
| 24> C    1.43644759  -2.01700620   2.02456937 
| 25> N   -1.04015924   0.14876636  -0.50389729 
| 26> C   -2.32241285   0.46412893   0.14800821 
| 27> C   -3.11645091   1.54808551  -0.56384767 
| 28> H   -3.95105938   1.84615936   0.06928997 
| 29> H   -3.54864235   1.21033012  -1.50704874 
| 30> H   -2.51637648   2.43913352  -0.75048356 
| 31> C   -3.13907294  -0.81121998   0.31762061 
| 32> H   -2.04732429   0.83471184   1.13696323 
| 33> H   -4.06215714  -0.58659905   0.84992400 
| 34> H   -3.40791328  -1.24088372  -0.64830156 
| 35> H   -2.60741134  -1.56455575   0.89726586 
| 36> C   -0.83689032   0.35568414  -1.74887046 
| 37> C    0.51030145   0.16428659  -2.23359650 
| 38> H   -1.62825628   0.69880515  -2.40963370 
| 39> C    1.61912830   0.50230829  -1.46887140 
| 40> C    2.81602546   0.12707793  -2.14137147 
| 41> S    0.92219174  -0.53358710  -3.73977429 
| 42> C    2.59255155  -0.43094447  -3.36252701 
| 43> H    1.54250390   1.38916298  -0.62836429 
| 44> H    3.80728603   0.31627719  -1.75551378 
| 45> H    3.32421999  -0.77057406  -4.08009645 
| 46> H   -0.85973359  -3.17408498  -0.14192113 
| 47> H   -0.73103427  -2.40840005   2.46497627 
| 48> H    1.80512912  -1.63185055   2.96442214 
| 49> O    1.37012659   2.41185148   0.24698194 
| 50> O    0.53763496   0.92177922   1.68363395 
| 51> C    0.94395769   2.09999566   1.36153810 
| 52> C    0.90296977   3.11037761   2.47151066 
| 53> H    0.84420202   4.11926302   2.07207977 
| 54> H    1.82518849   3.03660068   3.05138397 
| 55> H    0.07510147   2.92804523   3.15297661 
| 56> H    3.22625506  -1.91900856   0.71489607 
| 57> H    1.57396357  -2.86136085  -1.21482070 
| 58> *
| 59> 
| 60>                          ****END OF INPUT****
================================================================================

                       *****************************
                       * Geometry Optimization Run *
                       *****************************

Geometry optimization settings:
Update method            Update   .... BFGS
Choice of coordinates    CoordSys .... Z-matrix Internals
Initial Hessian          InHess   .... Almoef's Model

Convergence Tolerances:
Energy Change            TolE     ....  5.0000e-06 Eh
Max. Gradient            TolMAXG  ....  3.0000e-04 Eh/bohr
RMS Gradient             TolRMSG  ....  1.0000e-04 Eh/bohr
Max. Displacement        TolMAXD  ....  4.0000e-03 bohr
RMS Displacement         TolRMSD  ....  2.0000e-03 bohr
Strict Convergence                ....  False
------------------------------------------------------------------------------
                        ORCA OPTIMIZATION COORDINATE SETUP
------------------------------------------------------------------------------

The optimization will be done in new redundant internal coordinates
Making redundant internal coordinates   ...  (new redundants) done
Evaluating the initial hessian          ...  (Almloef) done
Evaluating the coordinates              ...  done
Calculating the B-matrix                .... done
Calculating the G-matrix                .... done
Diagonalizing the G-matrix              .... done
Imposing constraints:
 Iter   0:  RMS(Cart)=    0.0220679184 RMS(Int)=    0.0076875717
 Iter   1:  RMS(Cart)=    0.0029106266 RMS(Int)=    0.0011275303
 Iter   2:  RMS(Cart)=    0.0004235862 RMS(Int)=    0.0001674690
 Iter   3:  RMS(Cart)=    0.0000626830 RMS(Int)=    0.0000249053
 Iter   4:  RMS(Cart)=    0.0000093112 RMS(Int)=    0.0000037045
 Iter   5:  RMS(Cart)=    0.0000013845 RMS(Int)=    0.0000005510
 Iter   6:  RMS(Cart)=    0.0000002059 RMS(Int)=    0.0000000820
 Iter   7:  RMS(Cart)=    0.0000000306 RMS(Int)=    0.0000000122
CONVERGED
Small eigenvalue found = 1.334e-02
Small eigenvalue found = 2.480e-02
Small eigenvalue found = 2.595e-02
The first mode is                       ....  234
The number of degrees of freedom        ....  111
Storing new coordinates                 .... done

    -----------------------------------------------------------------
                    Redundant Internal Coordinates


    -----------------------------------------------------------------
         Definition                    Initial Value    Approx d2E/dq
    -----------------------------------------------------------------
      1. B(C   1,Ir  0)                  2.1541         0.087765   
      2. B(C   2,C   1)                  1.4428         0.514934   
      3. B(C   2,Ir  0)                  2.1097         0.103343   
      4. B(C   3,Ir  0)                  2.1648         0.084402   
      5. B(C   4,Ir  0)                  2.1612         0.085530   
      6. B(C   4,C   1)                  1.4066         0.588851   
      7. B(C   4,C   3)                  1.4461         0.508611   
      8. B(C   5,C   3)                  1.4060         0.589938   
      9. B(C   5,C   2)                  1.4359         0.528187   
     10. B(C   5,Ir  0)                  2.1651         0.084308   
     11. B(N   6,Ir  0)                  2.0978         0.096385   
     12. B(C   7,N   6)                  1.4726         0.413106   
     13. B(C   8,C   7)                  1.5206         0.386713   
     14. B(H   9,C   8)                  1.0892         0.361205   
     15. B(H  10,C   8)                  1.0911         0.358649   
     16. B(H  11,C   8)                  1.0904         0.359622   
     17. B(C  12,C   7)                  1.5239         0.382066   
     18. B(H  13,C   7)                  1.0913         0.358323   
     19. B(H  14,C  12)                  1.0890         0.361447   
     20. B(H  15,C  12)                  1.0908         0.359015   
     21. B(H  16,C  12)                  1.0891         0.361275   
     22. B(C  17,N   6)                  1.2748         0.843452   
     23. B(C  18,C  17)                  1.4423         0.511472   
     24. B(H  19,C  17)                  1.0866         0.364687   
     25. B(C  20,C  18)                  1.3890         0.627727   
     26. B(C  20,Ir  0)                  2.5143         0.019980 C 
     27. B(C  21,C  20)                  1.4236         0.552972   
     28. B(S  22,C  18)                  1.7104         0.519313   
     29. B(C  23,C  21)                  1.3609         0.694819   
     30. B(C  23,S  22)                  1.7151         0.509549   
     31. B(H  24,C  20)                  1.2237         0.219890   
     32. B(H  25,C  21)                  1.0804         0.373016   
     33. B(H  26,C  23)                  1.0797         0.374088   
     34. B(H  27,C   1)                  1.0805         0.372836   
     35. B(H  28,C   2)                  1.0802         0.373336   
     36. B(H  29,C   5)                  1.0806         0.372817   
     37. B(O  30,H  24)                  1.3429         0.120879 C 
     38. B(O  31,Ir  0)                  2.0344         0.122216   
     39. B(C  32,O  30)                  1.2307         0.995012   
     40. B(C  32,O  31)                  1.2852         0.816189   
     41. B(C  33,C  32)                  1.5015         0.414763   
     42. B(H  34,C  33)                  1.0867         0.364534   
     43. B(H  35,C  33)                  1.0919         0.357633   
     44. B(H  36,C  33)                  1.0877         0.363207   
     45. B(H  37,C   3)                  1.0799         0.373682   
     46. B(H  38,C   4)                  1.0804         0.373016   
     47. A(C   4,Ir  0,N   6)          118.3633         0.250393   
     48. A(C   3,Ir  0,C   5)           37.8959         0.246231   
     49. A(C   3,Ir  0,N   6)          156.8106         0.249909   
     50. A(C   5,Ir  0,O  31)           94.7463         0.258750   
     51. A(C   1,Ir  0,C   4)           38.0460         0.248145   
     52. A(C   1,Ir  0,N   6)          100.3784         0.251338   
     53. A(C   3,Ir  0,O  31)          117.1256         0.258793   
     54. A(C   4,Ir  0,O  31)          156.1236         0.259304   
     55. A(C   2,Ir  0,C   5)           39.2268         0.253604   
     56. A(C   1,Ir  0,C   2)           39.5398         0.255108   
     57. A(C   2,Ir  0,N   6)          115.3240         0.257454   
     58. A(C   2,Ir  0,C   4)           65.4207         0.254141   
     59. A(C   3,Ir  0,C   4)           39.0580         0.246744   
     60. A(C   1,Ir  0,O  31)          144.8719         0.260301   
     61. A(N   6,Ir  0,O  31)           85.4993         0.262721   
     62. A(C   4,Ir  0,C   5)           64.5501         0.246704   
     63. A(C   1,Ir  0,C   3)           64.5705         0.247668   
     64. A(C   2,Ir  0,C   3)           65.1922         0.253646   
     65. A(C   2,Ir  0,O  31)          106.7119         0.266755   
     66. A(C   5,Ir  0,N   6)          153.3220         0.249868   
     67. A(C   1,Ir  0,C   5)           64.9070         0.247628   
     68. A(C   4,C   1,H  27)          125.8629         0.351908   
     69. A(Ir  0,C   1,C   2)           68.5700         0.314353   
     70. A(C   2,C   1,H  27)          125.8819         0.344046   
     71. A(C   2,C   1,C   4)          108.2089         0.416027   
     72. A(Ir  0,C   1,H  27)          123.9407         0.270169   
     73. A(Ir  0,C   1,C   4)           71.2482         0.321300   
     74. A(C   1,C   2,C   5)          107.2491         0.408078   
     75. A(C   5,C   2,H  28)          125.8604         0.345595   
     76. A(Ir  0,C   2,C   5)           72.4700         0.324192   
     77. A(Ir  0,C   2,C   1)           71.8902         0.322843   
     78. A(Ir  0,C   2,H  28)          126.3942         0.277052   
     79. A(C   1,C   2,H  28)          126.5261         0.344123   
     80. A(Ir  0,C   3,H  37)          124.2929         0.268666   
     81. A(Ir  0,C   3,C   5)           71.0637         0.319351   
     82. A(C   5,C   3,H  37)          126.0474         0.352153   
     83. A(C   4,C   3,H  37)          125.7698         0.343464   
     84. A(Ir  0,C   3,C   4)           70.3346         0.311746   
     85. A(C   4,C   3,C   5)          108.1827         0.415250   
     86. A(C   3,C   4,H  38)          125.8093         0.343362   
     87. A(Ir  0,C   4,C   1)           70.7058         0.319947   
     88. A(C   1,C   4,H  38)          126.2634         0.351937   
     89. A(Ir  0,C   4,H  38)          124.4754         0.269134   
     90. A(Ir  0,C   4,C   3)           70.6074         0.312416   
     91. A(C   1,C   4,C   3)          107.9268         0.415114   
     92. A(Ir  0,C   5,H  29)          122.3613         0.268527   
     93. A(C   3,C   5,H  29)          125.9920         0.352015   
     94. A(C   2,C   5,H  29)          125.5300         0.345514   
     95. A(Ir  0,C   5,C   3)           71.0404         0.319293   
     96. A(C   2,C   5,C   3)          108.2772         0.418051   
     97. A(Ir  0,C   5,C   2)           68.3032         0.313601   
     98. A(Ir  0,N   6,C  17)          113.9922         0.342438   
     99. A(C   7,N   6,C  17)          122.6053         0.420948   
    100. A(Ir  0,N   6,C   7)          123.3639         0.304629   
    101. A(N   6,C   7,C   8)          113.5847         0.369546   
    102. A(N   6,C   7,C  12)          109.6748         0.368779   
    103. A(C   8,C   7,C  12)          111.6447         0.366916   
    104. A(N   6,C   7,H  13)          104.7373         0.327489   
    105. A(C   8,C   7,H  13)          108.2878         0.325902   
    106. A(C  12,C   7,H  13)          108.5664         0.325254   
    107. A(C   7,C   8,H  11)          112.0424         0.326096   
    108. A(H   9,C   8,H  11)          107.3122         0.290919   
    109. A(H  10,C   8,H  11)          108.8442         0.290594   
    110. A(C   7,C   8,H   9)          108.8503         0.326332   
    111. A(C   7,C   8,H  10)          113.0084         0.325950   
    112. A(H   9,C   8,H  10)          106.4808         0.290795   
    113. A(C   7,C  12,H  14)          109.6363         0.325719   
    114. A(C   7,C  12,H  15)          111.2948         0.325357   
    115. A(H  14,C  12,H  15)          107.7686         0.290872   
    116. A(C   7,C  12,H  16)          112.1179         0.325693   
    117. A(H  14,C  12,H  16)          107.2363         0.291159   
    118. A(H  15,C  12,H  16)          108.6109         0.290850   
    119. A(N   6,C  17,C  18)          116.4103         0.440280   
    120. A(N   6,C  17,H  19)          122.1272         0.370426   
    121. A(C  18,C  17,H  19)          121.4255         0.342386   
    122. A(C  17,C  18,C  20)          121.9175         0.420287   
    123. A(C  17,C  18,S  22)          124.9271         0.428652   
    124. A(C  20,C  18,S  22)          113.1197         0.444768   
    125. A(C  18,C  20,C  21)          110.2173         0.426189   
    126. A(C  18,C  20,H  24)          120.4844         0.325693   
    127. A(C  21,C  20,H  24)          124.4181         0.318997   
    128. A(C  20,C  21,H  25)          123.7954         0.348222   
    129. A(C  23,C  21,H  25)          122.8417         0.361971   
    130. A(C  20,C  21,C  23)          113.2664         0.434029   
    131. A(C  18,S  22,C  23)           90.9398         0.452187   
    132. A(C  21,C  23,H  26)          127.8867         0.362149   
    133. A(S  22,C  23,H  26)          119.6693         0.361509   
    134. A(C  21,C  23,S  22)          112.4252         0.451479   
    135. L(C  20,H  24,O  30,C  18, 1) 175.6062         0.228357   
    136. L(C  20,H  24,O  30,C  18, 2) 183.0437         0.228357   
    137. A(H  24,O  30,C  32)          115.4380         0.313891   
    138. A(Ir  0,O  31,C  32)          126.5696         0.354450   
    139. A(O  30,C  32,O  31)          124.1838         0.491020   
    140. A(O  30,C  32,C  33)          120.6475         0.436772   
    141. A(O  31,C  32,C  33)          115.1462         0.421523   
    142. A(C  32,C  33,H  34)          110.7623         0.330624   
    143. A(C  32,C  33,H  35)          108.9091         0.329581   
    144. A(H  34,C  33,H  35)          107.6753         0.291085   
    145. A(C  32,C  33,H  36)          111.7855         0.330425   
    146. A(H  34,C  33,H  36)          110.1680         0.291793   
    147. A(H  35,C  33,H  36)          107.3860         0.290918   
    148. D(H  27,C   1,Ir  0,N   6)      2.1919         0.001712   
    149. D(C   2,C   1,Ir  0,C   5)     39.0710         0.001712   
    150. D(C   2,C   1,Ir  0,N   6)   -117.4652         0.001712   
    151. D(C   2,C   1,Ir  0,C   4)    119.1932         0.001712   
    152. D(H  27,C   1,Ir  0,C   2)    119.6571         0.001712   
    153. D(C   4,C   1,Ir  0,C   2)   -119.1932         0.001712   
    154. D(C   4,C   1,Ir  0,C   3)    -38.0409         0.001712   
    155. D(C   4,C   1,Ir  0,C   5)    -80.1222         0.001712   
    156. D(H  27,C   1,Ir  0,O  31)     99.1804         0.001712   
    157. D(C   4,C   1,Ir  0,N   6)    123.3415         0.001712   
    158. D(H  27,C   1,Ir  0,C   5)    158.7281         0.001712   
    159. D(H  27,C   1,Ir  0,C   4)   -121.1497         0.001712   
    160. D(C   4,C   1,Ir  0,O  31)   -139.6699         0.001712   
    161. D(C   2,C   1,Ir  0,C   3)     81.1524         0.001712   
    162. D(C   2,C   1,Ir  0,O  31)    -20.4767         0.001712   
    163. D(H  27,C   1,Ir  0,C   3)   -159.1905         0.001712   
    164. D(C   5,C   2,C   1,H  27)    178.5295         0.021030   
    165. D(C   1,C   2,Ir  0,C   5)   -115.4980         0.001793   
    166. D(C   5,C   2,Ir  0,N   6)   -169.5825         0.001793   
    167. D(C   1,C   2,Ir  0,C   3)    -79.4472         0.001793   
    168. D(H  28,C   2,Ir  0,C   4)   -158.7437         0.001793   
    169. D(C   5,C   2,Ir  0,C   1)    115.4980         0.001793   
    170. D(Ir  0,C   2,C   1,C   4)     60.4842         0.021030   
    171. D(C   5,C   2,Ir  0,C   3)     36.0508         0.001793   
    172. D(H  28,C   2,Ir  0,N   6)    -47.5521         0.001793   
    173. D(H  28,C   2,Ir  0,C   5)    122.0304         0.001793   
    174. D(C   5,C   2,C   1,C   4)     -3.8341         0.021030   
    175. D(H  28,C   2,C   1,H  27)      5.1658         0.021030   
    176. D(H  28,C   2,Ir  0,C   1)   -122.4716         0.001793   
    177. D(H  28,C   2,C   1,C   4)   -177.1978         0.021030   
    178. D(C   1,C   2,Ir  0,O  31)    167.8677         0.001793   
    179. D(C   5,C   2,Ir  0,C   4)     79.2259         0.001793   
    180. D(H  28,C   2,C   1,Ir  0)    122.3180         0.021030   
    181. D(Ir  0,C   2,C   1,H  27)   -117.1522         0.021030   
    182. D(C   1,C   2,Ir  0,N   6)     74.9195         0.001793   
    183. D(C   5,C   2,Ir  0,O  31)    -76.6343         0.001793   
    184. D(H  28,C   2,Ir  0,O  31)     45.3961         0.001793   
    185. D(H  28,C   2,Ir  0,C   3)    158.0811         0.001793   
    186. D(C   1,C   2,Ir  0,C   4)    -36.2721         0.001793   
    187. D(C   5,C   2,C   1,Ir  0)    -64.3183         0.021030   
    188. D(C   4,C   3,Ir  0,C   5)    118.2256         0.001696   
    189. D(C   4,C   3,Ir  0,O  31)    177.7746         0.001696   
    190. D(C   4,C   3,Ir  0,N   6)    -15.8260         0.001696   
    191. D(C   4,C   3,Ir  0,C   1)     37.0646         0.001696   
    192. D(C   5,C   3,Ir  0,O  31)     59.5490         0.001696   
    193. D(C   5,C   3,Ir  0,C   2)    -37.2940         0.001696   
    194. D(C   4,C   3,Ir  0,C   2)     80.9317         0.001696   
    195. D(H  37,C   3,Ir  0,C   4)    120.5058         0.001696   
    196. D(H  37,C   3,Ir  0,C   1)    157.5704         0.001696   
    197. D(C   5,C   3,Ir  0,C   1)    -81.1610         0.001696   
    198. D(C   5,C   3,Ir  0,C   4)   -118.2256         0.001696   
    199. D(H  37,C   3,Ir  0,C   5)   -121.2685         0.001696   
    200. D(H  37,C   3,Ir  0,N   6)    104.6798         0.001696   
    201. D(H  37,C   3,Ir  0,O  31)    -61.7196         0.001696   
    202. D(C   5,C   3,Ir  0,N   6)   -134.0516         0.001696   
    203. D(H  37,C   3,Ir  0,C   2)   -158.5625         0.001696   
    204. D(C   1,C   4,Ir  0,C   3)    117.9672         0.001701   
    205. D(H  38,C   4,C   3,H  37)      0.3959         0.020502   
    206. D(C   1,C   4,Ir  0,C   5)     81.1437         0.001701   
    207. D(C   1,C   4,Ir  0,N   6)    -69.0426         0.001701   
    208. D(C   1,C   4,Ir  0,O  31)    113.0691         0.001701   
    209. D(C   1,C   4,Ir  0,C   2)     37.6711         0.001701   
    210. D(C   3,C   4,Ir  0,C   1)   -117.9672         0.001701   
    211. D(H  38,C   4,C   3,C   5)   -179.6136         0.020502   
    212. D(C   3,C   4,Ir  0,C   5)    -36.8235         0.001701   
    213. D(C   3,C   4,Ir  0,N   6)    172.9902         0.001701   
    214. D(C   3,C   4,Ir  0,O  31)     -4.8980         0.001701   
    215. D(Ir  0,C   4,C   1,C   2)    -58.8111         0.027841   
    216. D(H  38,C   4,Ir  0,C   2)    158.9920         0.001701   
    217. D(H  38,C   4,Ir  0,C   3)   -120.7120         0.001701   
    218. D(H  38,C   4,C   1,C   2)   -177.9541         0.027841   
    219. D(H  38,C   4,Ir  0,N   6)     52.2783         0.001701   
    220. D(H  38,C   4,Ir  0,O  31)   -125.6100         0.001701   
    221. D(Ir  0,C   4,C   1,H  27)    118.8258         0.027841   
    222. D(C   3,C   4,C   1,Ir  0)     61.1183         0.027841   
    223. D(C   3,C   4,C   1,H  27)    179.9441         0.027841   
    224. D(H  38,C   4,C   1,Ir  0)   -119.1430         0.027841   
    225. D(H  38,C   4,Ir  0,C   5)   -157.5355         0.001701   
    226. D(H  38,C   4,C   1,H  27)     -0.3172         0.027841   
    227. D(Ir  0,C   4,C   3,C   5)     61.3076         0.020502   
    228. D(Ir  0,C   4,C   3,H  37)   -118.6829         0.020502   
    229. D(C   3,C   4,C   1,C   2)      2.3072         0.027841   
    230. D(C   1,C   4,C   3,C   5)      0.1266         0.020502   
    231. D(C   1,C   4,C   3,H  37)   -179.8639         0.020502   
    232. D(H  38,C   4,C   3,Ir  0)    119.0789         0.020502   
    233. D(H  38,C   4,Ir  0,C   1)    121.3208         0.001701   
    234. D(C   1,C   4,C   3,Ir  0)    -61.1809         0.020502   
    235. D(C   3,C   4,Ir  0,C   2)    -80.2961         0.001701   
    236. D(C   2,C   5,Ir  0,C   1)    -39.3823         0.001696   
    237. D(H  29,C   5,C   3,C   4)   -177.5874         0.027950   
    238. D(C   2,C   5,Ir  0,C   4)    -81.6354         0.001696   
    239. D(C   2,C   5,Ir  0,N   6)     21.3484         0.001696   
    240. D(C   2,C   5,Ir  0,O  31)    110.7674         0.001696   
    241. D(C   3,C   5,Ir  0,C   1)     80.1938         0.001696   
    242. D(C   3,C   5,Ir  0,C   2)    119.5761         0.001696   
    243. D(C   3,C   5,Ir  0,C   4)     37.9407         0.001696   
    244. D(H  29,C   5,C   2,C   1)    179.0051         0.022165   
    245. D(C   3,C   5,Ir  0,O  31)   -129.6566         0.001696   
    246. D(H  29,C   5,Ir  0,C   1)   -158.6117         0.001696   
    247. D(C   3,C   5,C   2,Ir  0)    -60.0222         0.022165   
    248. D(H  29,C   5,Ir  0,C   3)    121.1945         0.001696   
    249. D(H  29,C   5,Ir  0,C   4)    159.1351         0.001696   
    250. D(H  29,C   5,Ir  0,N   6)    -97.8811         0.001696   
    251. D(H  29,C   5,Ir  0,O  31)     -8.4621         0.001696   
    252. D(Ir  0,C   5,C   2,C   1)     63.9340         0.022165   
    253. D(H  29,C   5,Ir  0,C   2)   -119.2295         0.001696   
    254. D(Ir  0,C   5,C   2,H  28)   -122.6458         0.022165   
    255. D(C   3,C   5,C   2,C   1)      3.9119         0.022165   
    256. D(C   3,C   5,C   2,H  28)    177.3320         0.022165   
    257. D(C   3,C   5,Ir  0,N   6)    140.9244         0.001696   
    258. D(H  29,C   5,C   2,Ir  0)    115.0711         0.022165   
    259. D(H  29,C   5,C   2,H  28)     -7.5747         0.022165   
    260. D(Ir  0,C   5,C   3,C   4)    -60.8455         0.027950   
    261. D(Ir  0,C   5,C   3,H  37)    119.1450         0.027950   
    262. D(C   2,C   5,C   3,Ir  0)     58.3227         0.027950   
    263. D(C   2,C   5,C   3,C   4)     -2.5227         0.027950   
    264. D(C   2,C   5,C   3,H  37)    177.4677         0.027950   
    265. D(C   2,C   5,Ir  0,C   3)   -119.5761         0.001696   
    266. D(H  29,C   5,C   3,Ir  0)   -116.7419         0.027950   
    267. D(H  29,C   5,C   3,H  37)      2.4031         0.027950   
    268. D(C  17,N   6,Ir  0,C   1)    -93.8156         0.001775   
    269. D(C   7,N   6,Ir  0,C   2)     45.3003         0.001775   
    270. D(C   7,N   6,Ir  0,C   3)    131.0473         0.001775   
    271. D(C   7,N   6,Ir  0,C   4)    119.7860         0.001775   
    272. D(C   7,N   6,Ir  0,C   5)     30.5451         0.001775   
    273. D(C   7,N   6,Ir  0,C   1)     83.9762         0.001775   
    274. D(C   7,N   6,Ir  0,O  31)    -61.0713         0.001775   
    275. D(C  17,N   6,Ir  0,C   2)   -132.4915         0.001775   
    276. D(C  17,N   6,Ir  0,C   3)    -46.7446         0.001775   
    277. D(C  17,N   6,Ir  0,C   4)    -58.0059         0.001775   
    278. D(C  17,N   6,Ir  0,C   5)   -147.2467         0.001775   
    279. D(C  17,N   6,Ir  0,O  31)    121.1369         0.001775   
    280. D(C   8,C   7,N   6,Ir  0)    157.4585         0.014556   
    281. D(C   8,C   7,N   6,C  17)    -24.9364         0.014556   
    282. D(C  12,C   7,N   6,Ir  0)    -76.8430         0.014556   
    283. D(C  12,C   7,N   6,C  17)    100.7621         0.014556   
    284. D(H  13,C   7,N   6,Ir  0)     39.4972         0.014556   
    285. D(H  13,C   7,N   6,C  17)   -142.8977         0.014556   
    286. D(H   9,C   8,C   7,N   6)   -169.9070         0.011898   
    287. D(H   9,C   8,C   7,C  12)     65.4486         0.011898   
    288. D(H   9,C   8,C   7,H  13)    -54.0187         0.011898   
    289. D(H  10,C   8,C   7,N   6)     72.0158         0.011898   
    290. D(H  10,C   8,C   7,C  12)    -52.6286         0.011898   
    291. D(H  10,C   8,C   7,H  13)   -172.0958         0.011898   
    292. D(H  11,C   8,C   7,N   6)    -51.3867         0.011898   
    293. D(H  11,C   8,C   7,C  12)   -176.0311         0.011898   
    294. D(H  11,C   8,C   7,H  13)     64.5016         0.011898   
    295. D(H  14,C  12,C   7,N   6)    176.8257         0.011628   
    296. D(H  14,C  12,C   7,C   8)    -56.3736         0.011628   
    297. D(H  14,C  12,C   7,H  13)     62.9289         0.011628   
    298. D(H  15,C  12,C   7,N   6)    -64.0418         0.011628   
    299. D(H  15,C  12,C   7,C   8)     62.7590         0.011628   
    300. D(H  15,C  12,C   7,H  13)   -177.9386         0.011628   
    301. D(H  16,C  12,C   7,N   6)     57.8387         0.011628   
    302. D(H  16,C  12,C   7,C   8)   -175.3606         0.011628   
    303. D(H  16,C  12,C   7,H  13)    -56.0581         0.011628   
    304. D(C  18,C  17,N   6,Ir  0)     -9.4963         0.061469   
    305. D(C  18,C  17,N   6,C   7)    172.6930         0.061469   
    306. D(H  19,C  17,N   6,Ir  0)    172.6861         0.061469   
    307. D(H  19,C  17,N   6,C   7)     -5.1247         0.061469   
    308. D(C  20,C  18,C  17,N   6)    -36.5694         0.017830   
    309. D(C  20,C  18,C  17,H  19)    141.2647         0.017830   
    310. D(S  22,C  18,C  17,N   6)    141.1035         0.017830   
    311. D(S  22,C  18,C  17,H  19)    -41.0624         0.017830   
    312. D(C  21,C  20,C  18,C  17)    175.9846         0.029679   
    313. D(C  21,C  20,C  18,S  22)     -1.9409         0.029679   
    314. D(H  24,C  20,C  18,C  17)    -27.7027         0.029679   
    315. D(H  24,C  20,C  18,S  22)    154.3718         0.029679   
    316. D(C  23,C  21,C  20,C  18)      1.4743         0.022710   
    317. D(C  23,C  21,C  20,H  24)   -153.7112         0.022710   
    318. D(H  25,C  21,C  20,C  18)    177.9869         0.022710   
    319. D(H  25,C  21,C  20,H  24)     22.8013         0.022710   
    320. D(C  23,S  22,C  18,C  17)   -176.3549         0.005513   
    321. D(C  23,S  22,C  18,C  20)      1.4974         0.005513   
    322. D(S  22,C  23,C  21,C  20)     -0.3783         0.033960   
    323. D(S  22,C  23,C  21,H  25)   -176.9289         0.033960   
    324. D(H  26,C  23,C  21,C  20)    178.0181         0.033960   
    325. D(H  26,C  23,C  21,H  25)      1.4675         0.033960   
    326. D(C  21,C  23,S  22,C  18)     -0.6228         0.005356   
    327. D(H  26,C  23,S  22,C  18)   -179.1663         0.005356   
    328. D(C  32,O  30,C  20,C  18)     86.9656         0.001503   
    329. D(C  32,O  30,C  20,C  21)   -122.0903         0.001503   
    330. D(C  32,O  31,Ir  0,C   1)   -176.0793         0.001918   
    331. D(C  32,O  31,Ir  0,C   2)    170.4749         0.001918   
    332. D(C  32,O  31,Ir  0,C   3)    100.2548         0.001918   
    333. D(C  32,O  31,Ir  0,C   4)    103.7204         0.001918   
    334. D(C  32,O  31,Ir  0,C   5)    132.3498         0.001918   
    335. D(C  32,O  31,Ir  0,N   6)    -74.4158         0.001918   
    336. D(O  31,C  32,O  30,H  24)     -7.1145         0.080977   
    337. D(C  33,C  32,O  30,H  24)    171.0741         0.080977   
    338. D(O  30,C  32,O  31,Ir  0)      2.8957         0.051591   
    339. D(C  33,C  32,O  31,Ir  0)   -175.3828         0.051591   
    340. D(H  34,C  33,C  32,O  30)     25.4573         0.012731   
    341. D(H  34,C  33,C  32,O  31)   -156.1980         0.012731   
    342. D(H  35,C  33,C  32,O  30)    -92.7783         0.012731   
    343. D(H  35,C  33,C  32,O  31)     85.5664         0.012731   
    344. D(H  36,C  33,C  32,O  30)    148.7284         0.012731   
    345. D(H  36,C  33,C  32,O  31)    -32.9269         0.012731   
    -----------------------------------------------------------------

Number of atoms                         .... 39
Number of degrees of freedom            .... 345

         *************************************************************
         *                GEOMETRY OPTIMIZATION CYCLE   1            *
         *************************************************************
---------------------------------
CARTESIAN COORDINATES (ANGSTROEM)
---------------------------------
  Ir     0.573190   -0.729649    0.492345
  C      0.026037   -2.808572    0.354571
  C      0.086310   -2.369197    1.727545
  C      2.186054   -2.138369    0.809600
  C      1.299298   -2.637204   -0.218056
  C      1.449910   -2.011781    2.000748
  N     -1.046677    0.154391   -0.505331
  C     -2.327859    0.467803    0.149627
  C     -3.125164    1.550669   -0.560246
  H     -3.958719    1.847452    0.074888
  H     -3.559080    1.212378   -1.502465
  H     -2.526836    2.442617   -0.748202
  C     -3.142247   -0.808762    0.321029
  H     -2.050985    0.838687    1.137973
  H     -4.064408   -0.585551    0.855529
  H     -3.412732   -1.238719   -0.644305
  H     -2.608115   -1.561378    0.899343
  C     -0.841875    0.358527   -1.746930
  C      0.507112    0.157629   -2.216155
  H     -1.628574    0.700780   -2.413734
  C      1.611215    0.493990   -1.443332
  C      2.811030    0.107594   -2.105025
  S      0.927244   -0.552338   -3.714501
  C      2.594652   -0.457025   -3.324240
  H      1.537387    1.388227   -0.611310
  H      3.800382    0.293907   -1.712849
  H      3.330334   -0.805206   -4.033669
  H     -0.855134   -3.167864   -0.157314
  H     -0.714222   -2.410700    2.451602
  H      1.822586   -1.628749    2.939904
  O      1.370839    2.409522    0.244542
  O      0.540256    0.924669    1.676018
  C      0.943647    2.102560    1.357128
  C      0.901277    3.113593    2.466457
  H      0.842654    4.122225    2.066366
  H      1.822929    3.040398    3.047307
  H      0.072767    2.931454    3.147195
  H      3.232475   -1.904245    0.681310
  H      1.572413   -2.844573   -1.242622

----------------------------
CARTESIAN COORDINATES (A.U.)
----------------------------
  NO LB      ZA    FRAG     MASS         X           Y           Z
   0 Ir   17.0000*   0   192.220    1.083171   -1.378837    0.930397
   1 C     6.0000    0    12.011    0.049204   -5.307432    0.670041
   2 C     6.0000    0    12.011    0.163102   -4.477133    3.264588
   3 C     6.0000    0    12.011    4.131043   -4.040932    1.529922
   4 C     6.0000    0    12.011    2.455318   -4.983594   -0.412066
   5 C     6.0000    0    12.011    2.739933   -3.801716    3.780867
   6 N     7.0000    0    14.007   -1.977933    0.291756   -0.954937
   7 C     6.0000    0    12.011   -4.399015    0.884020    0.282754
   8 C     6.0000    0    12.011   -5.905703    2.930340   -1.058712
   9 H     1.0000    0     1.008   -7.480894    3.491178    0.141517
  10 H     1.0000    0     1.008   -6.725687    2.291062   -2.839247
  11 H     1.0000    0     1.008   -4.775029    4.615878   -1.413897
  12 C     6.0000    0    12.011   -5.937987   -1.528338    0.606656
  13 H     1.0000    0     1.008   -3.875800    1.584888    2.150457
  14 H     1.0000    0     1.008   -7.680618   -1.106531    1.616716
  15 H     1.0000    0     1.008   -6.449128   -2.340840   -1.217560
  16 H     1.0000    0     1.008   -4.928624   -2.950576    1.699513
  17 C     6.0000    0    12.011   -1.590914    0.677518   -3.301220
  18 C     6.0000    0    12.011    0.958302    0.297875   -4.187926
  19 H     1.0000    0     1.008   -3.077559    1.324281   -4.561297
  20 C     6.0000    0    12.011    3.044754    0.933506   -2.727502
  21 C     6.0000    0    12.011    5.312077    0.203324   -3.977921
  22 S    16.0000    0    32.060    1.752237   -1.043768   -7.019390
  23 C     6.0000    0    12.011    4.903181   -0.863652   -6.281903
  24 H     1.0000    0     1.008    2.905241    2.623369   -1.155209
  25 H     1.0000    0     1.008    7.181681    0.555403   -3.236816
  26 H     1.0000    0     1.008    6.293420   -1.521618   -7.622530
  27 H     1.0000    0     1.008   -1.615970   -5.986396   -0.297280
  28 H     1.0000    0     1.008   -1.349684   -4.555562    4.632856
  29 H     1.0000    0     1.008    3.444189   -3.077890    5.555614
  30 O     8.0000    0    15.999    2.590510    4.553337    0.462118
  31 O     8.0000    0    15.999    1.020935    1.747372    3.167215
  32 C     6.0000    0    12.011    1.783234    3.973263    2.564600
  33 C     6.0000    0    12.011    1.703167    5.883838    4.660929
  34 H     1.0000    0     1.008    1.592385    7.789877    3.904865
  35 H     1.0000    0     1.008    3.444836    5.745520    5.758575
  36 H     1.0000    0     1.008    0.137510    5.539645    5.947337
  37 H     1.0000    0     1.008    6.108492   -3.598501    1.287490
  38 H     1.0000    0     1.008    2.971431   -5.375463   -2.348215
* core charge reduced due to ECP

--------------------------------
INTERNAL COORDINATES (ANGSTROEM)
--------------------------------
 Ir     0   0   0     0.000000000000     0.00000000     0.00000000
 C      1   0   0     2.154285386769     0.00000000     0.00000000
 C      2   1   0     1.442641944191    68.57128297     0.00000000
 C      1   2   3     2.164919562230    64.55309786    81.14675133
 C      2   1   3     1.406129206515    71.25514563   240.80957563
 C      4   1   2     1.405627133761    71.06948378   278.83748318
 N      1   2   3     2.098782756407   100.40680096   242.49409441
 C      7   1   2     1.472619656206   123.07843111    83.89523002
 C      8   7   1     1.520591037046   113.58470687   157.42764639
 H      9   8   7     1.089166006371   108.85038537   190.09297834
 H      9   8   7     1.091098713560   113.00824094    72.01576282
 H      9   8   7     1.090361790004   112.04240803   308.61313456
 C      8   7   1     1.523882184118   109.67462432   283.12615947
 H      8   7   1     1.091346617995   104.73744053    39.46653586
 H     13   8   7     1.088983884862   109.63610412   176.82569232
 H     13   8   7     1.090821569451   111.29494781   295.95835756
 H     13   8   7     1.089113150744   112.11796897    57.83874842
 C      7   1   2     1.278315851243   114.54538096   266.06192209
 C     18   7   1     1.444478459914   116.97967259   350.25079139
 H     18   7   1     1.086554264400   121.84126335   172.65957172
 C     19  18   7     1.388726082250   121.84566103   323.59890113
 C     21  19  18     1.423241714830   110.30995811   175.96083028
 S     19  18   7     1.710337052537   125.04258344   141.29966597
 C     22  21  19     1.361084288435   113.20043477     1.53063229
 H     21  19  18     1.224269064304   120.29160386   332.54428082
 H     22  21  19     1.080407346584   123.82463141   178.04649597
 H     24  22  21     1.079626262054   127.88058522   178.01034375
 H      2   1   3     1.080538481253   123.93727179   119.66174105
 H      3   2   1     1.080174096636   126.52621010   122.31516929
 H      6   4   1     1.080552717162   125.99154078   243.26098022
 O     25  21  19     1.357142854459   175.29921172   337.81399850
 O      1   2   3     2.034148324812   144.92227388   339.53810988
 C     31  25  21     1.233332646770   115.86311103   109.09515471
 C     33  31  25     1.501529479706   120.48557305   171.06387694
 H     34  33  31     1.086668511938   110.76227320    25.36960039
 H     34  33  31     1.091871539408   108.90906885   267.13403944
 H     34  33  31     1.087661188032   111.78543069   148.64070084
 H      4   1   2     1.079921787331   124.28744445   157.57326391
 H      5   2   1     1.080407640438   126.25456358   240.85690245

---------------------------
INTERNAL COORDINATES (A.U.)
---------------------------
 Ir     0   0   0     0.000000000000     0.00000000     0.00000000
 C      1   0   0     4.071009395303     0.00000000     0.00000000
 C      2   1   0     2.726198183829    68.57128297     0.00000000
 C      1   2   3     4.091105074583    64.55309786    81.14675133
 C      2   1   3     2.657199109221    71.25514563   240.80957563
 C      4   1   2     2.656250329218    71.06948378   278.83748318
 N      1   2   3     3.966124624206   100.40680096   242.49409441
 C      7   1   2     2.782847849659   123.07843111    83.89523002
 C      8   7   1     2.873500621712   113.58470687   157.42764639
 H      9   8   7     2.058225466418   108.85038537   190.09297834
 H      9   8   7     2.061877753702   113.00824094    72.01576282
 H      9   8   7     2.060485170000   112.04240803   308.61313456
 C      8   7   1     2.879719988344   109.67462432   283.12615947
 H      8   7   1     2.062346225193   104.73744053    39.46653586
 H     13   8   7     2.057881306643   109.63610412   176.82569232
 H     13   8   7     2.061354027237   111.29494781   295.95835756
 H     13   8   7     2.058125583758   112.11796897    57.83874842
 C      7   1   2     2.415666871499   114.54538096   266.06192209
 C     18   7   1     2.729668695586   116.97967259   350.25079139
 H     18   7   1     2.053289989360   121.84126335   172.65957172
 C     19  18   7     2.624311970486   121.84566103   323.59890113
 C     21  19  18     2.689537063401   110.30995811   175.96083028
 S     19  18   7     3.232068625992   125.04258344   141.29966597
 C     22  21  19     2.572076550326   113.20043477     1.53063229
 H     21  19  18     2.313533245766   120.29160386   332.54428082
 H     22  21  19     2.041673998121   123.82463141   178.04649597
 H     24  22  21     2.040197962272   127.88058522   178.01034375
 H      2   1   3     2.041921806731   123.93727179   119.66174105
 H      3   2   1     2.041233219598   126.52621010   122.31516929
 H      6   4   1     2.041948708701   125.99154078   243.26098022
 O     25  21  19     2.564628319536   175.29921172   337.81399850
 O      1   2   3     3.843983249670   144.92227388   339.53810988
 C     31  25  21     2.330660934420   115.86311103   109.09515471
 C     33  31  25     2.837479498653   120.48557305   171.06387694
 H     34  33  31     2.053505885918   110.76227320    25.36960039
 H     34  33  31     2.063338182904   108.90906885   267.13403944
 H     34  33  31     2.055381771876   111.78543069   148.64070084
 H      4   1   2     2.040756424110   124.28744445   157.57326391
 H      5   2   1     2.041674553423   126.25456358   240.85690245

---------------------
BASIS SET INFORMATION
---------------------
There are 6 groups of distinct atoms

 Group   1 Type Ir  : 7s6p5d1f contracted to 6s3p2d1f pattern {211111/411/41/1}
 Group   2 Type C   : 8s4p1d contracted to 4s2p1d pattern {5111/31/1}
 Group   3 Type N   : 8s4p1d contracted to 4s2p1d pattern {5111/31/1}
 Group   4 Type H   : 4s contracted to 2s pattern {31}
 Group   5 Type S   : 10s7p1d contracted to 4s3p1d pattern {5311/511/1}
 Group   6 Type O   : 8s4p1d contracted to 4s2p1d pattern {5111/31/1}

Atom   0Ir   basis set group =>   1
Atom   1C    basis set group =>   2
Atom   2C    basis set group =>   2
Atom   3C    basis set group =>   2
Atom   4C    basis set group =>   2
Atom   5C    basis set group =>   2
Atom   6N    basis set group =>   3
Atom   7C    basis set group =>   2
Atom   8C    basis set group =>   2
Atom   9H    basis set group =>   4
Atom  10H    basis set group =>   4
Atom  11H    basis set group =>   4
Atom  12C    basis set group =>   2
Atom  13H    basis set group =>   4
Atom  14H    basis set group =>   4
Atom  15H    basis set group =>   4
Atom  16H    basis set group =>   4
Atom  17C    basis set group =>   2
Atom  18C    basis set group =>   2
Atom  19H    basis set group =>   4
Atom  20C    basis set group =>   2
Atom  21C    basis set group =>   2
Atom  22S    basis set group =>   5
Atom  23C    basis set group =>   2
Atom  24H    basis set group =>   4
Atom  25H    basis set group =>   4
Atom  26H    basis set group =>   4
Atom  27H    basis set group =>   4
Atom  28H    basis set group =>   4
Atom  29H    basis set group =>   4
Atom  30O    basis set group =>   6
Atom  31O    basis set group =>   6
Atom  32C    basis set group =>   2
Atom  33C    basis set group =>   2
Atom  34H    basis set group =>   4
Atom  35H    basis set group =>   4
Atom  36H    basis set group =>   4
Atom  37H    basis set group =>   4
Atom  38H    basis set group =>   4
---------------------------------
AUXILIARY/J BASIS SET INFORMATION
---------------------------------
There are 6 groups of distinct atoms

 Group   1 Type Ir  : 11s5p5d3f3g contracted to 8s5p5d2f3g pattern {41111111/11111/11111/21/111}
 Group   2 Type C   : 12s5p4d2f1g contracted to 6s4p3d1f1g pattern {711111/2111/211/2/1}
 Group   3 Type N   : 12s5p4d2f1g contracted to 6s4p3d1f1g pattern {711111/2111/211/2/1}
 Group   4 Type H   : 5s2p1d contracted to 3s1p1d pattern {311/2/1}
 Group   5 Type S   : 14s5p5d2f1g contracted to 8s4p3d1f1g pattern {71111111/2111/311/2/1}
 Group   6 Type O   : 12s5p4d2f1g contracted to 6s4p3d1f1g pattern {711111/2111/211/2/1}

Atom   0Ir   basis set group =>   1
Atom   1C    basis set group =>   2
Atom   2C    basis set group =>   2
Atom   3C    basis set group =>   2
Atom   4C    basis set group =>   2
Atom   5C    basis set group =>   2
Atom   6N    basis set group =>   3
Atom   7C    basis set group =>   2
Atom   8C    basis set group =>   2
Atom   9H    basis set group =>   4
Atom  10H    basis set group =>   4
Atom  11H    basis set group =>   4
Atom  12C    basis set group =>   2
Atom  13H    basis set group =>   4
Atom  14H    basis set group =>   4
Atom  15H    basis set group =>   4
Atom  16H    basis set group =>   4
Atom  17C    basis set group =>   2
Atom  18C    basis set group =>   2
Atom  19H    basis set group =>   4
Atom  20C    basis set group =>   2
Atom  21C    basis set group =>   2
Atom  22S    basis set group =>   5
Atom  23C    basis set group =>   2
Atom  24H    basis set group =>   4
Atom  25H    basis set group =>   4
Atom  26H    basis set group =>   4
Atom  27H    basis set group =>   4
Atom  28H    basis set group =>   4
Atom  29H    basis set group =>   4
Atom  30O    basis set group =>   6
Atom  31O    basis set group =>   6
Atom  32C    basis set group =>   2
Atom  33C    basis set group =>   2
Atom  34H    basis set group =>   4
Atom  35H    basis set group =>   4
Atom  36H    basis set group =>   4
Atom  37H    basis set group =>   4
Atom  38H    basis set group =>   4
-------------------------
ECP PARAMETER INFORMATION
-------------------------

 Group 1, Type Ir ECP Def2-ECP (replacing 60 core electrons, lmax=3)

Atom   0Ir   ECP group =>   1

------------------------------------------------------------------------------
                           ORCA GTO INTEGRAL CALCULATION
                           -- RI-GTO INTEGRALS CHOSEN --
------------------------------------------------------------------------------
------------------------------------------------------------------------------
                   ___                                                        
                  /   \      - P O W E R E D   B Y -                         
                 /     \                                                     
                 |  |  |   _    _      __       _____    __    __             
                 |  |  |  | |  | |    /  \     |  _  \  |  |  /  |          
                  \  \/   | |  | |   /    \    | | | |  |  | /  /          
                 / \  \   | |__| |  /  /\  \   | |_| |  |  |/  /          
                |  |  |   |  __  | /  /__\  \  |    /   |      \           
                |  |  |   | |  | | |   __   |  |    \   |  |\   \          
                \     /   | |  | | |  |  |  |  | |\  \  |  | \   \       
                 \___/    |_|  |_| |__|  |__|  |_| \__\ |__|  \__/        
                                                                              
                      - O R C A' S   B I G   F R I E N D -                    
                                      &                                       
                       - I N T E G R A L  F E E D E R -                       
                                                                              
 v1 FN, 2020, v2 2021                                                         
------------------------------------------------------------------------------


Reading SHARK input file reaction4-IEIP_ts_guess_scan_2-11_orca.SHARKINP.tmp ... ok
----------------------
SHARK INTEGRAL PACKAGE
----------------------

Number of atoms                             ...     39
Number of basis functions                   ...    358
Number of shells                            ...    184
Maximum angular momentum                    ...      3
Integral batch strategy                     ... SHARK/LIBINT Hybrid
RI-J (if used) integral strategy            ... SPLIT-RIJ (Revised 2003 algorithm where possible)
Printlevel                                  ...      1
Contraction scheme used                     ... SEGMENTED contraction
Coulomb Range Separation                    ... NOT USED
Exchange Range Separation                   ... NOT USED
Finite Nucleus Model                        ... NOT USED
Auxiliary Coulomb fitting basis             ... AVAILABLE
   # of basis functions in Aux-J            ...   1231
   # of shells in Aux-J                     ...    405
   Maximum angular momentum in Aux-J        ...      4
Auxiliary J/K fitting basis                 ... NOT available
Auxiliary Correlation fitting basis         ... NOT available
Auxiliary 'external' fitting basis          ... NOT available
Integral threshold                          ...     2.500000e-11
Primitive cut-off                           ...     2.500000e-12
Primitive pair pre-selection threshold      ...     2.500000e-12

Calculating pre-screening integrals         ... done (  0.1 sec) Dimension = 184
Organizing shell pair data                  ... done (  0.1 sec)
Shell pair information
Total number of shell pairs                 ...     17020
Shell pairs after pre-screening             ...     12951
Total number of primitive shell pairs       ...     60705
Primitive shell pairs kept                  ...     29107
          la=0 lb=0:   4963 shell pairs
          la=1 lb=0:   4249 shell pairs
          la=1 lb=1:    856 shell pairs
          la=2 lb=0:   1743 shell pairs
          la=2 lb=1:    785 shell pairs
          la=2 lb=2:    179 shell pairs
          la=3 lb=0:    112 shell pairs
          la=3 lb=1:     42 shell pairs
          la=3 lb=2:     21 shell pairs
          la=3 lb=3:      1 shell pairs

Calculating one electron integrals          ... done (  0.1 sec)
Calculating ECP integrals                   ... done (  1.0 sec)
Calculating RI/J V-Matrix + Cholesky decomp.... done (  0.1 sec)
Calculating Nuclear repulsion               ... done (  0.0 sec) ENN=   2035.763709462017 Eh

SHARK setup successfully completed in   1.7 seconds

Maximum memory used throughout the entire GTOINT-calculation: 90.8 MB
-------------------------------------------------------------------------------
                                 ORCA SCF
-------------------------------------------------------------------------------

------------
SCF SETTINGS
------------
Hamiltonian:
 Density Functional     Method          .... DFT(GTOs)
 Exchange Functional    Exchange        .... PBE
   PBE kappa parameter   XKappa         ....  1.024500
   PBE mue parameter    XMuePBE         ....  0.123457
 Correlation Functional Correlation     .... PBE
   PBE beta parameter  CBetaPBE         ....  0.030000
 LDA part of GGA corr.  LDAOpt          .... PW91-LDA
 Gradients option       PostSCFGGA      .... off
 Hybrid DFT is turned on
   Fraction HF Exchange ScalHFX         ....  0.420000
   Scaling of DF-GGA-X  ScalDFX         ....  0.580000
   Scaling of DF-GGA-C  ScalDFC         ....  1.000000
   Scaling of DF-LDA-C  ScalLDAC        ....  1.000000
   Perturbative correction              ....  0.000000
   Density functional embedding theory  .... OFF
 RI-approximation to the Coulomb term is turned on
   Number of AuxJ basis functions       .... 1231
   RIJ-ON(X) (HFX calculated with O(N)) .... on
   Number of AuxJ basis functions       .... 1231
   RIJ-COSX (HFX calculated with COS-X)).... on


General Settings:
 Integral files         IntName         .... reaction4-IEIP_ts_guess_scan_2-11_orca
 Hartree-Fock type      HFTyp           .... RHF
 Total Charge           Charge          ....    1
 Multiplicity           Mult            ....    1
 Number of Electrons    NEL             ....  164
 Basis Dimension        Dim             ....  358
 Nuclear Repulsion      ENuc            ....   2035.7637094620 Eh

Convergence Acceleration:
 DIIS                   CNVDIIS         .... on
   Start iteration      DIISMaxIt       ....    12
   Startup error        DIISStart       ....  0.200000
   # of expansion vecs  DIISMaxEq       ....     5
   Bias factor          DIISBfac        ....   1.050
   Max. coefficient     DIISMaxC        ....  10.000
 Trust-Rad. Augm. Hess. CNVTRAH         .... auto
   Auto Start mean grad. ratio tolernc. ....  1.125000
   Auto Start start iteration           ....    20
   Auto Start num. interpolation iter.  ....    10
   Max. Number of Micro iterations      ....    16
   Max. Number of Macro iterations      .... Maxiter - #DIIS iter
   Number of Davidson start vectors     ....     2
   Converg. threshold I  (grad. norm)   ....   1.000e-05
   Converg. threshold II (energy diff.) ....   1.000e-08
   Grad. Scal. Fac. for Micro threshold ....   0.100
   Minimum threshold for Micro iter.    ....   0.010
   NR start threshold (gradient norm)   ....   0.001
   Initial trust radius                 ....   0.400
   Minimum AH scaling param. (alpha)    ....   1.000
   Maximum AH scaling param. (alpha)    .... 1000.000
   Orbital update algorithm             .... Taylor
   White noise on init. David. guess    .... on
   Maximum white noise                  ....   0.010
   Quad. conv. algorithm                .... NR
   COSX micro iterations for RIJONX calc.... off
 SOSCF                  CNVSOSCF        .... off
 Level Shifting         CNVShift        .... on
   Level shift para.    LevelShift      ....    0.2500
   Turn off err/grad.   ShiftErr        ....    0.0010
 Zerner damping         CNVZerner       .... off
 Static damping         CNVDamp         .... on
   Fraction old density DampFac         ....    0.7000
   Max. Damping (<1)    DampMax         ....    0.9800
   Min. Damping (>=0)   DampMin         ....    0.0000
   Turn off err/grad.   DampErr         ....    0.1000
 Fernandez-Rico         CNVRico         .... off

SCF Procedure:
 Maximum # iterations   MaxIter         ....   250
 SCF integral mode      SCFMode         .... Direct
   Integral package                     .... SHARK and LIBINT hybrid scheme
 Reset frequency        DirectResetFreq ....    20
 Integral Threshold     Thresh          ....  2.500e-11 Eh
 Primitive CutOff       TCut            ....  2.500e-12 Eh

Convergence Tolerance:
 Convergence Check Mode ConvCheckMode   .... Total+1el-Energy
 Convergence forced     ConvForced      .... 0
 Energy Change          TolE            ....  1.000e-08 Eh
 1-El. energy change                    ....  1.000e-05 Eh
 DIIS Error             TolErr          ....  5.000e-07


Diagonalization of the overlap matrix:
Smallest eigenvalue                        ... 1.121e-03
Time for diagonalization                   ...    0.028 sec
Threshold for overlap eigenvalues          ... 1.000e-08
Number of eigenvalues below threshold      ... 0
Time for construction of square roots      ...    0.009 sec
Total time needed                          ...    0.038 sec

--------------------
INITIAL GUESS: HCORE
--------------------
                      -----------------
                      INTIAL GUESS DONE 
                      -----------------
-------------------
DFT GRID GENERATION
-------------------

General Integration Accuracy     IntAcc      ... 4.159
Radial Grid Type                 RadialGrid  ... OptM3 with GC (2021)
Angular Grid (max. ang.)         AngularGrid ... 3 (Lebedev-194)
Angular grid pruning method      GridPruning ... 4 (adaptive)
Weight generation scheme         WeightScheme... Becke
Basis function cutoff            BFCut       ... 1.0000e-11
Integration weight cutoff        WCut        ... 1.0000e-14
Angular grids for H and He will be reduced by one unit
Partially contracted basis set               ... off
Rotationally invariant grid construction     ... off

Total number of grid points                  ...    93314
Total number of batches                      ...     1480
Average number of points per batch           ...       63
Average number of grid points per atom       ...     2393
Time for grid setup =    1.886 sec

--------------------
COSX GRID GENERATION
--------------------

GRIDX 1
-------
General Integration Accuracy     IntAcc      ... 3.816
Radial Grid Type                 RadialGrid  ... OptM3 with GC (2021)
Angular Grid (max. ang.)         AngularGrid ... 1 (Lebedev-50)
Angular grid pruning method      GridPruning ... 4 (adaptive)
Weight generation scheme         WeightScheme... Becke
Basis function cutoff            BFCut       ... 1.0000e-11
Integration weight cutoff        WCut        ... 1.0000e-14
Angular grids for H and He will be reduced by one unit
Partially contracted basis set               ... on
Rotationally invariant grid construction     ... off

Total number of grid points                  ...    23175
Total number of batches                      ...      382
Average number of points per batch           ...       60
Average number of grid points per atom       ...      594
UseSFitting                                  ... on

GRIDX 2
-------
General Integration Accuracy     IntAcc      ... 4.020
Radial Grid Type                 RadialGrid  ... OptM3 with GC (2021)
Angular Grid (max. ang.)         AngularGrid ... 2 (Lebedev-110)
Angular grid pruning method      GridPruning ... 4 (adaptive)
Weight generation scheme         WeightScheme... Becke
Basis function cutoff            BFCut       ... 1.0000e-11
Integration weight cutoff        WCut        ... 1.0000e-14
Angular grids for H and He will be reduced by one unit
Partially contracted basis set               ... on
Rotationally invariant grid construction     ... off

Total number of grid points                  ...    50320
Total number of batches                      ...      808
Average number of points per batch           ...       62
Average number of grid points per atom       ...     1290
UseSFitting                                  ... on

GRIDX 3
-------
General Integration Accuracy     IntAcc      ... 4.338
Radial Grid Type                 RadialGrid  ... OptM3 with GC (2021)
Angular Grid (max. ang.)         AngularGrid ... 3 (Lebedev-194)
Angular grid pruning method      GridPruning ... 4 (adaptive)
Weight generation scheme         WeightScheme... Becke
Basis function cutoff            BFCut       ... 1.0000e-11
Integration weight cutoff        WCut        ... 1.0000e-14
Angular grids for H and He will be reduced by one unit
Partially contracted basis set               ... on
Rotationally invariant grid construction     ... off

Total number of grid points                  ...   108815
Total number of batches                      ...     1723
Average number of points per batch           ...       63
Average number of grid points per atom       ...     2790
UseSFitting                                  ... on

Time for X-Grid setup             =    5.135 sec

--------------
SCF ITERATIONS
--------------
ITER       Energy         Delta-E        Max-DP      RMS-DP      [F,P]     Damp
               ***  Starting incremental Fock matrix formation  ***
  0   -872.0600223985   0.00000000000019.61113323  0.14966877  2.6923739 0.7000
  1  -1101.8307343633-229.770711964744 9.01070415  0.11378002  1.4879061 0.7000
  2  -1167.6436184863 -65.812884123030 5.40432572  0.06452354  1.0243157 0.7000
  3  -1193.0183728705 -25.374754384228 3.75091962  0.04501265  0.7280679 0.7000
  4  -1210.2994252526 -17.281052382080 2.64980669  0.03551155  0.4479862 0.7000
  5  -1225.7068407105 -15.407415457888 2.17630924  0.03059185  0.3377784 0.7000
  6  -1235.4027763343  -9.695935623793 1.81385373  0.02939228  0.3294307 0.7000
  7  -1242.3497028397  -6.946926505397 1.64427341  0.02630044  0.3291629 0.7000
  8  -1246.5322045720  -4.182501732261 1.61799935  0.02597410  0.3870418 0.7000
  9  -1250.6033440382  -4.071139466257 1.47165468  0.02423248  0.3447948 0.7000
 10  -1254.0356653942  -3.432321355958 1.57023381  0.02615317  0.3685167 0.7000
 11  -1255.4382358071  -1.402570412972 1.50277397  0.02304412  0.3266031 0.7000
                               ***Turning on DIIS***
 12  -1258.9990166833  -3.560780876168 1.46665733  0.02378177  0.3383701 0.7000
 13  -1259.3536331910  -0.354616507682 1.37733335  0.01932126  0.2945880 0.7000
 14  -1268.4603977589  -9.106764567884 0.95967296  0.01368252  0.2109861 0.7000
 15  -1274.7835842589  -6.323186500031 0.66831228  0.00967431  0.1567031 0.7000
 16  -1279.0752416350  -4.291657376108 1.54887618  0.02274440  0.0970498 0.0000
 17  -1288.3491317862  -9.273890151156 0.05841380  0.00090257  0.0543670 0.0000
 18  -1288.4083833432  -0.059251557047 0.05443516  0.00081375  0.0325586 0.0000
 19  -1288.4270681144  -0.018684771219 0.03250799  0.00047987  0.0286518 0.0000
               *** Restarting incremental Fock matrix formation ***
                                   *** Resetting DIIS ***
 20  -1288.4374316405  -0.010363526070 0.01095439  0.00030219  0.0059996 0.0000
 21  -1288.4386874095  -0.001255768952 0.00309976  0.00009212  0.0057986 0.0000
 22  -1288.4391794921  -0.000492082632 0.00305822  0.00006138  0.0013952 0.0000
 23  -1288.4392663303  -0.000086838233 0.00233212  0.00003127  0.0011789 0.0000
 24  -1288.4392961450  -0.000029814661 0.00259425  0.00003297  0.0006429 0.0000
               *** Restarting incremental Fock matrix formation ***
                                   *** Resetting DIIS ***
 25  -1288.4404299104  -0.001133765393 0.00460865  0.00008379  0.0008659 0.0000
 26  -1288.4404416429  -0.000011732504 0.00158631  0.00001628  0.0012884 0.0000
 27  -1288.4404494394  -0.000007796479 0.00043499  0.00000701  0.0003385 0.0000
 28  -1288.4404502763  -0.000000836949 0.00011796  0.00000192  0.0000685 0.0000
 29  -1288.4404503219  -0.000000045606 0.00007400  0.00000113  0.0000480 0.0000
 30  -1288.4404503534  -0.000000031467 0.00004337  0.00000059  0.0000284 0.0000
 31  -1288.4404503595  -0.000000006105 0.00003756  0.00000036  0.0000102 0.0000
 32  -1288.4404503618  -0.000000002357 0.00001944  0.00000021  0.0000063 0.0000
 33  -1288.4404503519   0.000000009926 0.00000796  0.00000009  0.0000018 0.0000
 34  -1288.4404503556  -0.000000003727 0.00000305  0.00000003  0.0000023 0.0000
                            ***DIIS convergence achieved***

               *****************************************************
               *                     SUCCESS                       *
               *           SCF CONVERGED AFTER  35 CYCLES          *
               *****************************************************

Old exchange energy                            =    -59.659988409 Eh
New exchange energy                            =    -59.659950742 Eh
Exchange energy change after final integration =      0.000037667 Eh
Total energy after final integration           =  -1288.440412686 Eh
Final COS-X integration done in                =    58.122 sec

----------------
TOTAL SCF ENERGY
----------------

Total Energy       :        -1288.44041269 Eh          -35060.24606 eV

Components:
Nuclear Repulsion  :         2035.76370946 Eh           55395.94681 eV
Electronic Energy  :        -3324.20412215 Eh          -90456.19287 eV
One Electron Energy:        -5827.02592717 Eh         -158561.43659 eV
Two Electron Energy:         2502.82180502 Eh           68105.24372 eV
Max COSX asymmetry :            0.00001711 Eh               0.00047 eV

Virial components:
Potential Energy   :        -2501.58564997 Eh          -68071.60623 eV
Kinetic Energy     :         1213.14523728 Eh           33011.36017 eV
Virial Ratio       :            2.06206608


DFT components:
N(Alpha)           :       82.000394941984 electrons
N(Beta)            :       82.000394941984 electrons
N(Total)           :      164.000789883969 electrons
E(X)               :      -79.594651571657 Eh       
E(C)               :       -7.454516108721 Eh       
E(XC)              :      -87.049167680378 Eh       
DFET-embed. en.    :        0.000000000000 Eh       

---------------
SCF CONVERGENCE
---------------

  Last Energy change         ...    2.7876e-09  Tolerance :   1.0000e-08
  Last MAX-Density change    ...    0.0000e+00  Tolerance :   1.0000e-07
  Last RMS-Density change    ...    0.0000e+00  Tolerance :   5.0000e-09
  Last DIIS Error            ...    8.4239e-07  Tolerance :   5.0000e-07

             **** THE GBW FILE WAS UPDATED (reaction4-IEIP_ts_guess_scan_2-11_orca.gbw) ****
             **** DENSITY reaction4-IEIP_ts_guess_scan_2-11_orca.scfp WAS UPDATED ****
             **** ENERGY FILE WAS UPDATED (reaction4-IEIP_ts_guess_scan_2-11_orca.en.tmp) ****
             **** THE GBW FILE WAS UPDATED (reaction4-IEIP_ts_guess_scan_2-11_orca.gbw) ****
             **** DENSITY reaction4-IEIP_ts_guess_scan_2-11_orca.scfp WAS UPDATED ****
----------------
ORBITAL ENERGIES
----------------

  NO   OCC          E(Eh)            E(eV) 
   0   2.0000     -89.757270     -2442.4195 
   1   2.0000     -19.627368      -534.0878 
   2   2.0000     -19.594825      -533.2023 
   3   2.0000     -14.838790      -403.7840 
   4   2.0000     -10.686203      -290.7864 
   5   2.0000     -10.659778      -290.0673 
   6   2.0000     -10.637407      -289.4586 
   7   2.0000     -10.634456      -289.3782 
   8   2.0000     -10.633826      -289.3611 
   9   2.0000     -10.632232      -289.3177 
  10   2.0000     -10.631752      -289.3047 
  11   2.0000     -10.626464      -289.1608 
  12   2.0000     -10.615994      -288.8759 
  13   2.0000     -10.606594      -288.6201 
  14   2.0000     -10.579703      -287.8884 
  15   2.0000     -10.576666      -287.8057 
  16   2.0000     -10.556977      -287.2700 
  17   2.0000     -10.551871      -287.1310 
  18   2.0000     -10.536008      -286.6993 
  19   2.0000      -8.396631      -228.4839 
  20   2.0000      -6.286692      -171.0696 
  21   2.0000      -6.283078      -170.9713 
  22   2.0000      -6.281368      -170.9247 
  23   2.0000      -4.030447      -109.6740 
  24   2.0000      -2.349820       -63.9418 
  25   2.0000      -2.315598       -63.0106 
  26   2.0000      -2.313594       -62.9561 
  27   2.0000      -1.313829       -35.7511 
  28   2.0000      -1.216592       -33.1052 
  29   2.0000      -1.211874       -32.9768 
  30   2.0000      -1.174052       -31.9476 
  31   2.0000      -1.121840       -30.5268 
  32   2.0000      -1.025817       -27.9139 
  33   2.0000      -0.989004       -26.9122 
  34   2.0000      -0.978988       -26.6396 
  35   2.0000      -0.961903       -26.1747 
  36   2.0000      -0.955969       -26.0132 
  37   2.0000      -0.931132       -25.3374 
  38   2.0000      -0.902984       -24.5715 
  39   2.0000      -0.871696       -23.7201 
  40   2.0000      -0.796688       -21.6790 
  41   2.0000      -0.789927       -21.4950 
  42   2.0000      -0.788304       -21.4508 
  43   2.0000      -0.779078       -21.1998 
  44   2.0000      -0.772725       -21.0269 
  45   2.0000      -0.761417       -20.7192 
  46   2.0000      -0.743848       -20.2411 
  47   2.0000      -0.723776       -19.6950 
  48   2.0000      -0.693859       -18.8809 
  49   2.0000      -0.675789       -18.3891 
  50   2.0000      -0.664568       -18.0838 
  51   2.0000      -0.652815       -17.7640 
  52   2.0000      -0.650026       -17.6881 
  53   2.0000      -0.640994       -17.4423 
  54   2.0000      -0.639510       -17.4019 
  55   2.0000      -0.633553       -17.2398 
  56   2.0000      -0.623494       -16.9661 
  57   2.0000      -0.610891       -16.6232 
  58   2.0000      -0.609589       -16.5878 
  59   2.0000      -0.607907       -16.5420 
  60   2.0000      -0.595661       -16.2088 
  61   2.0000      -0.586820       -15.9682 
  62   2.0000      -0.575089       -15.6490 
  63   2.0000      -0.568626       -15.4731 
  64   2.0000      -0.562678       -15.3113 
  65   2.0000      -0.556784       -15.1509 
  66   2.0000      -0.552821       -15.0430 
  67   2.0000      -0.548634       -14.9291 
  68   2.0000      -0.540140       -14.6980 
  69   2.0000      -0.534551       -14.5459 
  70   2.0000      -0.527756       -14.3610 
  71   2.0000      -0.520912       -14.1747 
  72   2.0000      -0.516360       -14.0509 
  73   2.0000      -0.507818       -13.8184 
  74   2.0000      -0.492723       -13.4077 
  75   2.0000      -0.480699       -13.0805 
  76   2.0000      -0.463724       -12.6186 
  77   2.0000      -0.451869       -12.2960 
  78   2.0000      -0.442696       -12.0464 
  79   2.0000      -0.420993       -11.4558 
  80   2.0000      -0.416606       -11.3364 
  81   2.0000      -0.402290       -10.9469 
  82   0.0000      -0.198929        -5.4131 
  83   0.0000      -0.163807        -4.4574 
  84   0.0000      -0.140990        -3.8365 
  85   0.0000      -0.096526        -2.6266 
  86   0.0000      -0.075471        -2.0537 
  87   0.0000      -0.068178        -1.8552 
  88   0.0000      -0.058139        -1.5821 
  89   0.0000      -0.055017        -1.4971 
  90   0.0000      -0.043318        -1.1787 
  91   0.0000      -0.035414        -0.9637 
  92   0.0000      -0.004664        -0.1269 
  93   0.0000      -0.002999        -0.0816 
  94   0.0000       0.011030         0.3001 
  95   0.0000       0.021225         0.5776 
  96   0.0000       0.028476         0.7749 
  97   0.0000       0.036773         1.0006 
  98   0.0000       0.044149         1.2014 
  99   0.0000       0.056799         1.5456 
 100   0.0000       0.068898         1.8748 
 101   0.0000       0.071344         1.9414 
 102   0.0000       0.073604         2.0029 
 103   0.0000       0.078181         2.1274 
 104   0.0000       0.082536         2.2459 
 105   0.0000       0.088875         2.4184 
 106   0.0000       0.093898         2.5551 
 107   0.0000       0.100475         2.7341 
 108   0.0000       0.107030         2.9124 
 109   0.0000       0.112976         3.0742 
 110   0.0000       0.115297         3.1374 
 111   0.0000       0.120184         3.2704 
 112   0.0000       0.123127         3.3504 
 113   0.0000       0.125481         3.4145 
 114   0.0000       0.130462         3.5500 
 115   0.0000       0.136319         3.7094 
 116   0.0000       0.141873         3.8606 
 117   0.0000       0.154055         4.1921 
 118   0.0000       0.156726         4.2647 
 119   0.0000       0.158144         4.3033 
 120   0.0000       0.167461         4.5568 
 121   0.0000       0.179681         4.8894 
 122   0.0000       0.189500         5.1566 
 123   0.0000       0.201189         5.4746 
 124   0.0000       0.226070         6.1517 
 125   0.0000       0.232248         6.3198 
 126   0.0000       0.259700         7.0668 
 127   0.0000       0.270444         7.3592 
 128   0.0000       0.280586         7.6351 
 129   0.0000       0.294428         8.0118 
 130   0.0000       0.301801         8.2124 
 131   0.0000       0.310942         8.4612 
 132   0.0000       0.322503         8.7758 
 133   0.0000       0.338772         9.2185 
 134   0.0000       0.343589         9.3495 
 135   0.0000       0.356885         9.7113 
 136   0.0000       0.362195         9.8558 
 137   0.0000       0.373178        10.1547 
 138   0.0000       0.382826        10.4172 
 139   0.0000       0.397855        10.8262 
 140   0.0000       0.401974        10.9383 
 141   0.0000       0.418029        11.3752 
 142   0.0000       0.422282        11.4909 
 143   0.0000       0.436860        11.8876 
 144   0.0000       0.443850        12.0778 
 145   0.0000       0.449250        12.2247 
 146   0.0000       0.456868        12.4320 
 147   0.0000       0.459104        12.4929 
 148   0.0000       0.467397        12.7185 
 149   0.0000       0.479316        13.0429 
 150   0.0000       0.484191        13.1755 
 151   0.0000       0.487840        13.2748 
 152   0.0000       0.493308        13.4236 
 153   0.0000       0.500148        13.6097 
 154   0.0000       0.509587        13.8666 
 155   0.0000       0.516110        14.0441 
 156   0.0000       0.528594        14.3838 
[...]

----------------------
LOEWDIN ATOMIC CHARGES
----------------------
   0 Ir:   -0.215244
   1 C :   -0.041680
   2 C :   -0.062508
   3 C :   -0.053172
   4 C :   -0.050801
   5 C :   -0.024261
   6 N :   -0.013584
   7 C :   -0.068796
   8 C :   -0.363890
   9 H :    0.156732
  10 H :    0.133548
  11 H :    0.146320
  12 C :   -0.343805
  13 H :    0.155241
  14 H :    0.152601
  15 H :    0.137383
  16 H :    0.132849
  17 C :    0.036121
  18 C :   -0.197333
  19 H :    0.161121
  20 C :   -0.200440
  21 C :   -0.145438
  22 S :    0.461702
  23 C :   -0.261127
  24 H :    0.305519
  25 H :    0.160049
  26 H :    0.166984
  27 H :    0.185554
  28 H :    0.185802
  29 H :    0.193204
  30 O :   -0.275516
  31 O :   -0.200247
  32 C :    0.162302
  33 C :   -0.374597
  34 H :    0.161149
  35 H :    0.168822
  36 H :    0.154230
  37 H :    0.187663
  38 H :    0.187539

-------------------------------
LOEWDIN REDUCED ORBITAL CHARGES
-------------------------------
  0 Irs       :     2.454808  s :     2.454808
      pz      :     2.238328  p :     6.743779
      px      :     2.237155
      py      :     2.268297
      dz2     :     1.840797  d :     7.927817
      dxz     :     1.727584
      dyz     :     1.279255
      dx2y2   :     1.643713
      dxy     :     1.436467
      f0      :     0.011288  f :     0.088840
      f+1     :     0.003245
      f-1     :     0.012879
      f+2     :     0.017081
      f-2     :     0.016349
      f+3     :     0.011329
      f-3     :     0.016669
  1 C s       :     2.875177  s :     2.875177
      pz      :     1.048501  p :     3.062156
      px      :     1.086904
      py      :     0.926750
      dz2     :     0.026372  d :     0.104347
      dxz     :     0.026935
      dyz     :     0.017299
      dx2y2   :     0.018612
      dxy     :     0.015128
  2 C s       :     2.874387  s :     2.874387
      pz      :     1.044356  p :     3.085504
      px      :     1.077139
      py      :     0.964010
      dz2     :     0.025495  d :     0.102616
      dxz     :     0.027921
      dyz     :     0.017656
      dx2y2   :     0.018351
      dxy     :     0.013194
  3 C s       :     2.875161  s :     2.875161
      pz      :     1.034320  p :     3.076234
      px      :     1.078832
      py      :     0.963082
      dz2     :     0.023939  d :     0.101777
      dxz     :     0.032229
      dyz     :     0.016032
      dx2y2   :     0.015253
      dxy     :     0.014324
  4 C s       :     2.874569  s :     2.874569
      pz      :     1.091986  p :     3.073754
      px      :     1.036267
      py      :     0.945501
      dz2     :     0.022615  d :     0.102478
      dxz     :     0.031564
      dyz     :     0.012904
      dx2y2   :     0.017856
      dxy     :     0.017538
  5 C s       :     2.877584  s :     2.877584
      pz      :     1.063478  p :     3.042418
      px      :     1.033392
      py      :     0.945549
      dz2     :     0.024822  d :     0.104258
      dxz     :     0.030461
      dyz     :     0.015592
      dx2y2   :     0.015586
      dxy     :     0.017797
  6 N s       :     3.122200  s :     3.122200
      pz      :     1.268617  p :     3.793676
      px      :     1.290900
      py      :     1.234159
      dz2     :     0.030058  d :     0.097708
      dxz     :     0.027599
      dyz     :     0.018566
      dx2y2   :     0.011524
      dxy     :     0.009961
  7 C s       :     2.862446  s :     2.862446
      pz      :     1.063216  p :     3.072100
      px      :     0.934539
      py      :     1.074344
      dz2     :     0.024912  d :     0.134250
      dxz     :     0.027868
      dyz     :     0.018677
      dx2y2   :     0.029697
      dxy     :     0.033097
  8 C s       :     2.953315  s :     2.953315
      pz      :     1.130765  p :     3.343110
      px      :     1.124690
      py      :     1.087655
      dz2     :     0.012424  d :     0.067465
      dxz     :     0.017569
      dyz     :     0.009918
      dx2y2   :     0.009032
      dxy     :     0.018522
  9 H s       :     0.843268  s :     0.843268
 10 H s       :     0.866452  s :     0.866452
 11 H s       :     0.853680  s :     0.853680
 12 C s       :     2.953048  s :     2.953048
      pz      :     1.140605  p :     3.322798
      px      :     1.111218
      py      :     1.070975
      dz2     :     0.010802  d :     0.067958
      dxz     :     0.013037
      dyz     :     0.015088
      dx2y2   :     0.011399
      dxy     :     0.017631
 13 H s       :     0.844759  s :     0.844759
 14 H s       :     0.847399  s :     0.847399
 15 H s       :     0.862617  s :     0.862617
 16 H s       :     0.867151  s :     0.867151
 17 C s       :     2.878365  s :     2.878365
      pz      :     1.021007  p :     2.944608
      px      :     1.067616
      py      :     0.855985
      dz2     :     0.040370  d :     0.140906
      dxz     :     0.051595
      dyz     :     0.024698
      dx2y2   :     0.011637
      dxy     :     0.012607
 18 C s       :     2.895631  s :     2.895631
      pz      :     1.042452  p :     3.189907
      px      :     1.089376
      py      :     1.058079
      dz2     :     0.031727  d :     0.111794
      dxz     :     0.030137
      dyz     :     0.016667
      dx2y2   :     0.020396
      dxy     :     0.012867
 19 H s       :     0.838879  s :     0.838879
 20 C s       :     2.929663  s :     2.929663
      pz      :     1.113257  p :     3.182825
      px      :     1.047088
      py      :     1.022480
      dz2     :     0.010625  d :     0.087953
      dxz     :     0.033712
      dyz     :     0.008665
      dx2y2   :     0.016580
      dxy     :     0.018370
 21 C s       :     2.898964  s :     2.898964
      pz      :     1.069492  p :     3.152054
      px      :     1.090937
      py      :     0.991626
      dz2     :     0.025576  d :     0.094420
      dxz     :     0.028806
      dyz     :     0.014362
      dx2y2   :     0.016212
      dxy     :     0.009465
 22 S s       :     5.505401  s :     5.505401
      pz      :     3.276584  p :     9.880439
      px      :     3.086773
      py      :     3.517082
      dz2     :     0.042364  d :     0.152457
      dxz     :     0.030793
      dyz     :     0.022369
      dx2y2   :     0.032323
      dxy     :     0.024608
 23 C s       :     2.965756  s :     2.965756
      pz      :     1.118239  p :     3.209322
      px      :     1.022695
      py      :     1.068388
      dz2     :     0.021626  d :     0.086050
      dxz     :     0.027565
      dyz     :     0.012171
      dx2y2   :     0.013697
      dxy     :     0.010991
 24 H s       :     0.694481  s :     0.694481
 25 H s       :     0.839951  s :     0.839951
 26 H s       :     0.833016  s :     0.833016
 27 H s       :     0.814446  s :     0.814446
 28 H s       :     0.814198  s :     0.814198
 29 H s       :     0.806796  s :     0.806796
 30 O s       :     3.504480  s :     3.504480
      pz      :     1.452964  p :     4.716104
      px      :     1.542729
      py      :     1.720410
      dz2     :     0.017387  d :     0.054932
      dxz     :     0.013037
      dyz     :     0.016680
      dx2y2   :     0.004451
      dxy     :     0.003377
 31 O s       :     3.443580  s :     3.443580
      pz      :     1.696995  p :     4.697272
      px      :     1.617792
      py      :     1.382485
      dz2     :     0.009257  d :     0.059394
      dxz     :     0.003767
      dyz     :     0.016418
      dx2y2   :     0.015287
      dxy     :     0.014665
 32 C s       :     2.812738  s :     2.812738
      pz      :     0.995288  p :     2.703208
      px      :     0.754420
      py      :     0.953500
      dz2     :     0.075337  d :     0.321752
      dxz     :     0.046480
      dyz     :     0.106669
      dx2y2   :     0.045272
      dxy     :     0.047995
 33 C s       :     2.959189  s :     2.959189
      pz      :     1.097968  p :     3.352725
      px      :     1.150718
      py      :     1.104039
      dz2     :     0.005281  d :     0.062683
      dxz     :     0.017109
      dyz     :     0.019885
      dx2y2   :     0.018221
      dxy     :     0.002186
 34 H s       :     0.838851  s :     0.838851
 35 H s       :     0.831178  s :     0.831178
 36 H s       :     0.845770  s :     0.845770
 37 H s       :     0.812337  s :     0.812337
 38 H s       :     0.812461  s :     0.812461


                      *****************************
                      * MAYER POPULATION ANALYSIS *
                      *****************************

  NA   - Mulliken gross atomic population
  ZA   - Total nuclear charge
  QA   - Mulliken gross atomic charge
  VA   - Mayer's total valence
  BVA  - Mayer's bonded valence
  FA   - Mayer's free valence

  ATOM       NA         ZA         QA         VA         BVA        FA
  0 Ir    16.3819    17.0000     0.6181     3.7542     3.7542    -0.0000
  1 C      6.2114     6.0000    -0.2114     3.6978     3.6978     0.0000
  2 C      6.2935     6.0000    -0.2935     3.7418     3.7418    -0.0000
  3 C      6.2348     6.0000    -0.2348     3.7314     3.7314    -0.0000
  4 C      6.2420     6.0000    -0.2420     3.7234     3.7234    -0.0000
  5 C      6.1671     6.0000    -0.1671     3.6911     3.6911    -0.0000
  6 N      7.4358     7.0000    -0.4358     3.2153     3.2153     0.0000
  7 C      6.1221     6.0000    -0.1221     3.7018     3.7018     0.0000
  8 C      6.6897     6.0000    -0.6897     3.6874     3.6874     0.0000
  9 H      0.7290     1.0000     0.2710     0.8969     0.8969    -0.0000
 10 H      0.7742     1.0000     0.2258     0.9099     0.9099    -0.0000
 11 H      0.7404     1.0000     0.2596     0.8980     0.8980     0.0000
 12 C      6.6367     6.0000    -0.6367     3.6736     3.6736    -0.0000
 13 H      0.7203     1.0000     0.2797     0.8751     0.8751     0.0000
 14 H      0.7365     1.0000     0.2635     0.8969     0.8969    -0.0000
 15 H      0.7687     1.0000     0.2313     0.9095     0.9095     0.0000
 16 H      0.7695     1.0000     0.2305     0.9062     0.9062    -0.0000
 17 C      5.9308     6.0000     0.0692     3.6439     3.6439     0.0000
 18 C      6.1978     6.0000    -0.1978     3.7138     3.7138    -0.0000
 19 H      0.7117     1.0000     0.2883     0.8869     0.8869    -0.0000
 20 C      6.4215     6.0000    -0.4215     3.4590     3.4590    -0.0000
 21 C      6.1477     6.0000    -0.1477     3.7648     3.7648     0.0000
 22 S     15.6980    16.0000     0.3020     2.5646     2.5646    -0.0000
 23 C      6.4261     6.0000    -0.4261     3.7470     3.7470     0.0000
 24 H      0.4995     1.0000     0.5005     0.7265     0.7265    -0.0000
 25 H      0.7374     1.0000     0.2626     0.9044     0.9044     0.0000
 26 H      0.7047     1.0000     0.2953     0.8982     0.8982     0.0000
 27 H      0.7079     1.0000     0.2921     0.9017     0.9017     0.0000
 28 H      0.7072     1.0000     0.2928     0.9047     0.9047     0.0000
 29 H      0.6941     1.0000     0.3059     0.8921     0.8921    -0.0000
 30 O      8.4918     8.0000    -0.4918     2.1004     2.1004    -0.0000
 31 O      8.5348     8.0000    -0.5348     2.0837     2.0837    -0.0000
 32 C      5.3764     6.0000     0.6236     3.9068     3.9068    -0.0000
 33 C      6.7459     6.0000    -0.7459     3.6654     3.6654    -0.0000
 34 H      0.7289     1.0000     0.2711     0.8946     0.8946    -0.0000
 35 H      0.7312     1.0000     0.2688     0.8943     0.8943     0.0000
 36 H      0.7444     1.0000     0.2556     0.9000     0.9000     0.0000
 37 H      0.7052     1.0000     0.2948     0.9005     0.9005     0.0000
 38 H      0.7031     1.0000     0.2969     0.9012     0.9012    -0.0000

  Mayer bond orders larger than 0.100000
B(  0-Ir,  1-C ) :   0.4231 B(  0-Ir,  2-C ) :   0.5431 B(  0-Ir,  3-C ) :   0.4599 
B(  0-Ir,  4-C ) :   0.4559 B(  0-Ir,  5-C ) :   0.4039 B(  0-Ir,  6-N ) :   0.4700 
B(  0-Ir, 20-C ) :   0.2520 B(  0-Ir, 31-O ) :   0.5679 B(  1-C ,  2-C ) :   1.1151 
B(  1-C ,  4-C ) :   1.2419 B(  1-C , 27-H ) :   0.9031 B(  2-C ,  5-C ) :   1.1321 
B(  2-C , 28-H ) :   0.9071 B(  3-C ,  4-C ) :   1.1065 B(  3-C ,  5-C ) :   1.2337 
B(  3-C , 37-H ) :   0.9042 B(  4-C , 38-H ) :   0.8996 B(  5-C , 29-H ) :   0.8980 
B(  6-N ,  7-C ) :   0.8915 B(  6-N , 17-C ) :   1.6774 B(  7-C ,  8-C ) :   0.9920 
B(  7-C , 12-C ) :   0.9689 B(  7-C , 13-H ) :   0.8747 B(  8-C ,  9-H ) :   0.9039 
B(  8-C , 10-H ) :   0.9127 B(  8-C , 11-H ) :   0.9090 B( 12-C , 14-H ) :   0.9066 
B( 12-C , 15-H ) :   0.9155 B( 12-C , 16-H ) :   0.9123 B( 17-C , 18-C ) :   1.0729 
B( 17-C , 19-H ) :   0.8747 B( 18-C , 20-C ) :   1.3014 B( 18-C , 22-S ) :   1.2111 
B( 20-C , 21-C ) :   1.2821 B( 20-C , 24-H ) :   0.4396 B( 21-C , 23-C ) :   1.5401 
B( 21-C , 25-H ) :   0.9056 B( 22-S , 23-C ) :   1.2106 B( 23-C , 26-H ) :   0.8927 
B( 24-H , 30-O ) :   0.2570 B( 30-O , 32-C ) :   1.6497 B( 31-O , 32-C ) :   1.3034 
B( 32-C , 33-C ) :   0.9485 B( 33-C , 34-H ) :   0.9037 B( 33-C , 35-H ) :   0.8969 
B( 33-C , 36-H ) :   0.9088 


------------------
HIRSHFELD ANALYSIS
------------------

Total integrated alpha density =     82.000218631
Total integrated beta density  =     82.000218631

  ATOM     CHARGE      SPIN    
   0 Ir   0.204067    0.000000
   1 C    0.006884    0.000000
   2 C    0.000547    0.000000
   3 C    0.002268    0.000000
   4 C   -0.000609    0.000000
   5 C    0.018623    0.000000
   6 N   -0.071803    0.000000
   7 C    0.053309    0.000000
   8 C   -0.071175    0.000000
   9 H    0.053509    0.000000
  10 H    0.037882    0.000000
  11 H    0.043331    0.000000
  12 C   -0.070893    0.000000
  13 H    0.045765    0.000000
  14 H    0.051214    0.000000
  15 H    0.036751    0.000000
  16 H    0.030152    0.000000
  17 C    0.100020    0.000000
  18 C   -0.014017    0.000000
  19 H    0.076650    0.000000
  20 C   -0.074982    0.000000
  21 C   -0.037291    0.000000
  22 S    0.115975    0.000000
  23 C   -0.027015    0.000000
  24 H    0.067139    0.000000
  25 H    0.067305    0.000000
  26 H    0.076912    0.000000
  27 H    0.084271    0.000000
  28 H    0.085247    0.000000
  29 H    0.094592    0.000000
  30 O   -0.243993    0.000000
  31 O   -0.254446    0.000000
  32 C    0.247315    0.000000
  33 C   -0.066346    0.000000
  34 H    0.055566    0.000000
  35 H    0.060753    0.000000
  36 H    0.049281    0.000000
  37 H    0.086588    0.000000
  38 H    0.080218    0.000000

  TOTAL   0.999563    0.000000

-------
TIMINGS
-------

Total SCF time: 0 days 0 hours 4 min 20 sec 

Total time                  ....     260.230 sec
Sum of individual times     ....     259.738 sec  ( 99.8%)

Fock matrix formation       ....     252.478 sec  ( 97.0%)
  Split-RI-J                ....      18.771 sec  (  7.4% of F)
  Chain of spheres X        ....     222.441 sec  ( 88.1% of F)
  XC integration            ....      11.272 sec  (  4.5% of F)
    Basis function eval.    ....       5.260 sec  ( 46.7% of XC)
    Density eval.           ....       2.919 sec  ( 25.9% of XC)
    XC-Functional eval.     ....       0.832 sec  (  7.4% of XC)
    XC-Potential eval.      ....       1.816 sec  ( 16.1% of XC)
Diagonalization             ....       0.172 sec  (  0.1%)
Density matrix formation    ....       0.028 sec  (  0.0%)
Population analysis         ....       1.120 sec  (  0.4%)
Initial guess               ....       0.024 sec  (  0.0%)
Orbital Transformation      ....       0.000 sec  (  0.0%)
Orbital Orthonormalization  ....       0.018 sec  (  0.0%)
DIIS solution               ....       0.069 sec  (  0.0%)
Grid generation             ....       5.846 sec  (  2.2%)

Maximum memory used throughout the entire SCF-calculation: 172.9 MB


-------------------------------------------------------------------------------
                          DFT DISPERSION CORRECTION                            
                                                                               
                              DFTD3 V3.1  Rev 1                                
                          USING Becke-Johnson damping                          
-------------------------------------------------------------------------------
The PBEh-3c composite method is recognized
Using three-body term ABC
Active option DFTDOPT                   ...         4   

molecular C6(AA) [au] = 19571.513040 


            DFT-D V3
 parameters
 s6 scaling factor         :     1.0000 
 a1 scaling factor         :     0.4860 
 s8 scaling factor         :     0.0000 
 a2 scaling factor         :     4.5000 
 Damping factor alpha9(ATM):    16.0000 
 ad hoc parameters k1-k3   :    16.0000     1.3333    -4.0000 

 Edisp/kcal,au: -19.216216496251  -0.030622986968 
 E6   /kcal   : -19.560217365 
 E8   /kcal   :  -0.000000000 
 E6(ABC)      :   0.344000869 
 % E8         :   0.000000000 
 % E6(ABC)    :  -1.790159209 

-------------------------   ----------------
Dispersion correction           -0.030622987
-------------------------   ----------------

 ** NOTE ** -> element ir will be treated as co
NOTIFICATION: Different basis set in ORCA and otool_gcp:
ORCA: 358  gCP: 357 
If you are NOT using ECPs, check your basis set inputs!
------------------   -----------------
gCP correction             0.077333637
------------------   -----------------

-------------------------   --------------------
FINAL SINGLE POINT ENERGY     -1288.394253279448
-------------------------   --------------------

                                *** OPTIMIZATION RUN DONE ***

                            ***************************************
                            *     ORCA property calculations      *
                            ***************************************

                                    ---------------------
                                    Active property flags
                                    ---------------------
   (+) Dipole Moment


------------------------------------------------------------------------------
                       ORCA ELECTRIC PROPERTIES CALCULATION
------------------------------------------------------------------------------

Dipole Moment Calculation                       ... on
Quadrupole Moment Calculation                   ... off
Polarizability Calculation                      ... off
GBWName                                         ... reaction4-IEIP_ts_guess_scan_2-11_orca.gbw
Electron density                                ... reaction4-IEIP_ts_guess_scan_2-11_orca.scfp
The origin for moment calculation is the CENTER OF MASS  = ( 0.839744, -0.628851 -0.098966)

-------------
DIPOLE MOMENT
-------------
                                X             Y             Z
Electronic contribution:     34.13559     -70.08099      78.83143
Nuclear contribution   :    -34.75873      68.98636     -78.93168
                        -----------------------------------------
Total Dipole Moment    :     -0.62314      -1.09463      -0.10025
                        -----------------------------------------
Magnitude (a.u.)       :      1.26355
Magnitude (Debye)      :      3.21169



--------------------
Rotational spectrum 
--------------------
 
Rotational constants in cm-1:     0.010575     0.008892     0.008140 
Rotational constants in MHz :   317.035647   266.590271   244.038105 

 Dipole components along the rotational axes: 
x,y,z [a.u.] :     0.039441     0.465651    -1.173957 
x,y,z [Debye]:     0.100250     1.183591    -2.983962 

 

Timings for individual modules:

Sum of individual times         ...     5650.198 sec (=  94.170 min)
GTO integral calculation        ...       20.127 sec (=   0.335 min)   0.4 %
SCF iterations                  ...     4459.062 sec (=  74.318 min)  78.9 %
SCF Gradient evaluation         ...     1168.235 sec (=  19.471 min)  20.7 %
Geometry relaxation             ...        2.774 sec (=   0.046 min)   0.0 %
                             ****ORCA TERMINATED NORMALLY****
TOTAL RUN TIME: 0 days 1 hours 34 minutes 14 seconds 838 msec
