
                                 *****************
                                 * O   R   C   A *
                                 *****************

                                            #,                                       
                                            ###                                      
                                            ####                                     
                                            #####                                    
                                            ######                                   
                                           ########,                                 
                                     ,,################,,,,,                         
                               ,,#################################,,                 
                          ,,##########################################,,             
                       ,#########################################, ''#####,          
                    ,#############################################,,   '####,        
                  ,##################################################,,,,####,       
                ,###########''''           ''''###############################       
              ,#####''   ,,,,##########,,,,          '''####'''          '####       
            ,##' ,,,,###########################,,,                        '##       
           ' ,,###''''                  '''############,,,                           
         ,,##''                                '''############,,,,        ,,,,,,###''
      ,#''                                            '''#######################'''  
     '                                                          ''''####''''         
             ,#######,   #######,   ,#######,      ##                                
            ,#'     '#,  ##    ##  ,#'     '#,    #''#        ######   ,####,        
            ##       ##  ##   ,#'  ##            #'  '#       #        #'  '#        
            ##       ##  #######   ##           ,######,      #####,   #    #        
            '#,     ,#'  ##    ##  '#,     ,#' ,#      #,         ##   #,  ,#        
             '#######'   ##     ##  '#######'  #'      '#     #####' # '####'        



                  #######################################################
                  #                        -***-                        #
                  #          Department of theory and spectroscopy      #
                  #    Directorship and core code : Frank Neese         #
                  #        Max Planck Institute fuer Kohlenforschung    #
                  #                Kaiser Wilhelm Platz 1               #
                  #                 D-45470 Muelheim/Ruhr               #
                  #                      Germany                        #
                  #                                                     #
                  #                  All rights reserved                #
                  #                        -***-                        #
                  #######################################################


                         Program Version 5.0.3 -  RELEASE  -


 With contributions from (in alphabetic order):
   Daniel Aravena         : Magnetic Suceptibility
   Michael Atanasov       : Ab Initio Ligand Field Theory (pilot matlab implementation)
   Alexander A. Auer      : GIAO ZORA, VPT2 properties, NMR spectrum
   Ute Becker             : Parallelization
   Giovanni Bistoni       : ED, misc. LED, open-shell LED, HFLD
   Martin Brehm           : Molecular dynamics
   Dmytro Bykov           : SCF Hessian
   Vijay G. Chilkuri      : MRCI spin determinant printing, contributions to CSF-ICE
   Dipayan Datta          : RHF DLPNO-CCSD density
   Achintya Kumar Dutta   : EOM-CC, STEOM-CC
   Dmitry Ganyushin       : Spin-Orbit,Spin-Spin,Magnetic field MRCI
   Miquel Garcia          : C-PCM and meta-GGA Hessian, CC/C-PCM, Gaussian charge scheme
   Yang Guo               : DLPNO-NEVPT2, F12-NEVPT2, CIM, IAO-localization
   Andreas Hansen         : Spin unrestricted coupled pair/coupled cluster methods
   Benjamin Helmich-Paris : MC-RPA, TRAH-SCF, COSX integrals
   Lee Huntington         : MR-EOM, pCC
   Robert Izsak           : Overlap fitted RIJCOSX, COSX-SCS-MP3, EOM
   Marcus Kettner         : VPT2
   Christian Kollmar      : KDIIS, OOCD, Brueckner-CCSD(T), CCSD density, CASPT2, CASPT2-K
   Simone Kossmann        : Meta GGA functionals, TD-DFT gradient, OOMP2, MP2 Hessian
   Martin Krupicka        : Initial AUTO-CI
   Lucas Lang             : DCDCAS
   Marvin Lechner         : AUTO-CI (C++ implementation), FIC-MRCC
   Dagmar Lenk            : GEPOL surface, SMD
   Dimitrios Liakos       : Extrapolation schemes; Compound Job, initial MDCI parallelization
   Dimitrios Manganas     : Further ROCIS development; embedding schemes
   Dimitrios Pantazis     : SARC Basis sets
   Anastasios Papadopoulos: AUTO-CI, single reference methods and gradients
   Taras Petrenko         : DFT Hessian,TD-DFT gradient, ASA, ECA, R-Raman, ABS, FL, XAS/XES, NRVS
   Peter Pinski           : DLPNO-MP2, DLPNO-MP2 Gradient
   Christoph Reimann      : Effective Core Potentials
   Marius Retegan         : Local ZFS, SOC
   Christoph Riplinger    : Optimizer, TS searches, QM/MM, DLPNO-CCSD(T), (RO)-DLPNO pert. Triples
   Tobias Risthaus        : Range-separated hybrids, TD-DFT gradient, RPA, STAB
   Michael Roemelt        : Original ROCIS implementation
   Masaaki Saitow         : Open-shell DLPNO-CCSD energy and density
   Barbara Sandhoefer     : DKH picture change effects
   Avijit Sen             : IP-ROCIS
   Kantharuban Sivalingam : CASSCF convergence, NEVPT2, FIC-MRCI
   Bernardo de Souza      : ESD, SOC TD-DFT
   Georgi Stoychev        : AutoAux, RI-MP2 NMR, DLPNO-MP2 response
   Willem Van den Heuvel  : Paramagnetic NMR
   Boris Wezisla          : Elementary symmetry handling
   Frank Wennmohs         : Technical directorship


 We gratefully acknowledge several colleagues who have allowed us to
 interface, adapt or use parts of their codes:
   Stefan Grimme, W. Hujo, H. Kruse, P. Pracht,  : VdW corrections, initial TS optimization,
                  C. Bannwarth, S. Ehlert          DFT functionals, gCP, sTDA/sTD-DF
   Ed Valeev, F. Pavosevic, A. Kumar             : LibInt (2-el integral package), F12 methods
   Garnet Chan, S. Sharma, J. Yang, R. Olivares  : DMRG
   Ulf Ekstrom                                   : XCFun DFT Library
   Mihaly Kallay                                 : mrcc  (arbitrary order and MRCC methods)
   Jiri Pittner, Ondrej Demel                    : Mk-CCSD
   Frank Weinhold                                : gennbo (NPA and NBO analysis)
   Christopher J. Cramer and Donald G. Truhlar   : smd solvation model
   Lars Goerigk                                  : TD-DFT with DH, B97 family of functionals
   V. Asgeirsson, H. Jonsson                     : NEB implementation
   FAccTs GmbH                                   : IRC, NEB, NEB-TS, DLPNO-Multilevel, CI-OPT
                                                   MM, QMMM, 2- and 3-layer-ONIOM, Crystal-QMMM,
                                                   LR-CPCM, SF, NACMEs, symmetry and pop. for TD-DFT,
                                                   nearIR, NL-DFT gradient (VV10), updates on ESD,
                                                   ML-optimized integration grids
   S Lehtola, MJT Oliveira, MAL Marques          : LibXC Library
   Liviu Ungur et al                             : ANISO software


 Your calculation uses the libint2 library for the computation of 2-el integrals
 For citations please refer to: http://libint.valeyev.net

 Your ORCA version has been built with support for libXC version: 5.1.0
 For citations please refer to: https://tddft.org/programs/libxc/

 This ORCA versions uses:
   CBLAS   interface :  Fast vector & matrix operations
   LAPACKE interface :  Fast linear algebra routines
   SCALAPACK package :  Parallel linear algebra routines
   Shared memory     :  Shared parallel matrices
   BLAS/LAPACK       :  OpenBLAS 0.3.15  USE64BITINT DYNAMIC_ARCH NO_AFFINITY SkylakeX SINGLE_THREADED
        Core in use  :  SkylakeX
   Copyright (c) 2011-2014, The OpenBLAS Project


Your calculation utilizes the geometrical counterpoise correction gCP
Please cite in your paper:
H.Kruse, S. Grimme J.Chem.Phys., 136, (2012), 154101 
   

Your calculation utilizes the atom-pairwise dispersion correction
with the Becke-Johnson damping scheme (D3BJ)
Cite in your paper:
S.Grimme, S.Ehrlich, L.Goerigk, J Comput Chem, (2011), 32, 1456–1465 
S.Grimme, J.Antony, S.Ehrlich and H.Krieg, J.Chem.Phys., 132, (2010), 154104 
   

Your calculation employs the composite approach PBEh-3c.
Please cite in your paper:
S. Grimme, J. G. Brandenburg, C. Bannwarth, A. Hansen J.Chem.Phys., 143, (2015), 054107 
   

================================================================================

cite the ECPs for Ir [Def2-ECP] as follows:
Ce-Yb(ecp-28): M. Dolg, H. Stoll, H.Preuss, J. Chem. Phys., 1989, 90, 1730-1734.
Y-Cd(ecp-28), Hf-Hg(ecp-46): D. Andrae,U. Haeussermann, M. Dolg, H. Stoll, H. Preuss, Theor. Chim. Acta, 1990, 77, 123-141.
In-Sb(ecp-28), Tl-Bi(ecp-46): B. Metz, H. Stoll, M. Dolg, J. Chem. Phys., 2000, 113, 2563-2569.
Te-Xe(ecp-28), Po-Rn(ecp-46): K. A. Peterson, D. Figgen, E. Goll, H. Stoll, M. Dolg, J. Chem. Phys., 2003, 119, 11113-11123.
Rb(ecp-28), Cs(ecp-46): T. Leininger, A. Nicklass, W. Kuechle, H. Stoll, M. Dolg, A. Bergner, Chem. Phys. Lett., 1996, 255, 274-280.
Sr(ecp-28), Ba(ecp-46): M. Kaupp, P. V. Schleyer, H. Stoll and H. Preuss, J. Chem. Phys., 1991, 94, 1360-1366.
La(ecp-46): M. Dolg, H. Stoll, A. Savin, H. Preuss, Theor. Chim. Acta, 1989, 75, 173-194.
Lu(ecp-28): X. Cao, M. Dolg, J. Chem. Phys., 2001, 115, 7348-7355.

ECP parameters for Ir [Def2-ECP] have been obtained from:
TURBOMOLE (7.0.2)

----- Orbital basis set information -----
Your calculation utilizes the basis: def2-mSVP

----- AuxJ basis set information -----
Your calculation utilizes the auxiliary basis: def2/J
   F. Weigend, Phys. Chem. Chem. Phys. 8, 1057 (2006).

================================================================================
                                        WARNINGS
                       Please study these warnings very carefully!
================================================================================


WARNING: Geometry Optimization
  ===> : Switching off AutoStart
         For restart on a previous wavefunction, please use MOREAD

WARNING: No Hueckel Guess possible with ECP basis!
  ===> : Switching to HCORE guess!

INFO   : the flag for use of the SHARK integral package has been found!

================================================================================
                                       INPUT FILE
================================================================================
NAME = reaction4-IEIP_ts_guess_scan_6-5_orca.inp
|  1> ! Opt PBEh-3c
|  2> %geom Constraints
|  3> { B 0 20 2.342857142857143 C }
|  4> { B 24 30 1.4285714285714286 C }
|  5>     end
|  6> end
|  7> %output 
|  8> xyzfile=True 
|  9> end 
| 10> %scf 
| 11> maxiter 250 
| 12> end
| 13> %output
| 14> Print[P_Hirshfeld] = 1
| 15> end
| 16> % maxcore
| 17> 4000
| 18> *xyz 1 1
| 19> Ir   0.60042306  -0.71733752   0.45314156 
| 20> C    0.05038522  -2.80548467   0.36003888 
| 21> C    0.09282397  -2.34812183   1.72528167 
| 22> C    2.20381661  -2.12437473   0.82521352 
| 23> C    1.33113014  -2.64711720  -0.20146387 
| 24> C    1.44798995  -1.97462461   2.00342207 
| 25> N   -1.04543047   0.15541364  -0.52182000 
| 26> C   -2.31707640   0.45886006   0.15363595 
| 27> C   -3.11693588   1.56125066  -0.52242554 
| 28> H   -3.94460975   1.84441096   0.12646140 
| 29> H   -3.55922956   1.24718813  -1.46912832 
| 30> H   -2.51726155   2.45582564  -0.69266224 
| 31> C   -3.13385462  -0.81935093   0.30182731 
| 32> H   -2.02736157   0.80364774   1.14746970 
| 33> H   -4.04743983  -0.60735409   0.85528739 
| 34> H   -3.41931827  -1.22218251  -0.67081054 
| 35> H   -2.59338162  -1.58878077   0.85111954 
| 36> C   -0.86091427   0.37923194  -1.76666342 
| 37> C    0.48274809   0.17512002  -2.25149619 
| 38> H   -1.65334457   0.74007796  -2.41577559 
| 39> C    1.57381601   0.39912218  -1.41706071 
| 40> C    2.78252633   0.02273241  -2.07147201 
| 41> S    0.92319113  -0.44446733  -3.77444945 
| 42> C    2.58256380  -0.44226700  -3.33380370 
| 43> H    1.52966850   1.31615987  -0.63968696 
| 44> H    3.76439571   0.14606827  -1.63810303 
| 45> H    3.32480271  -0.76351344  -4.04885058 
| 46> H   -0.82318223  -3.17611412  -0.15681223 
| 47> H   -0.71601635  -2.37751972   2.44016135 
| 48> H    1.80753406  -1.56931488   2.93839779 
| 49> O    1.37252640   2.43894152   0.22949890 
| 50> O    0.53368496   0.93618609   1.64615857 
| 51> C    0.93895208   2.11858563   1.33729830 
| 52> C    0.88466107   3.11883634   2.45706795 
| 53> H    0.85774438   4.13285681   2.06767098 
| 54> H    1.78545800   3.01878949   3.06579778 
| 55> H    0.03215414   2.94605839   3.11040197 
| 56> H    3.25450576  -1.90257253   0.71318993 
| 57> H    1.61722495  -2.88567590  -1.21531809 
| 58> *
| 59> 
| 60>                          ****END OF INPUT****
================================================================================

                       *****************************
                       * Geometry Optimization Run *
                       *****************************

Geometry optimization settings:
Update method            Update   .... BFGS
Choice of coordinates    CoordSys .... Z-matrix Internals
Initial Hessian          InHess   .... Almoef's Model

Convergence Tolerances:
Energy Change            TolE     ....  5.0000e-06 Eh
Max. Gradient            TolMAXG  ....  3.0000e-04 Eh/bohr
RMS Gradient             TolRMSG  ....  1.0000e-04 Eh/bohr
Max. Displacement        TolMAXD  ....  4.0000e-03 bohr
RMS Displacement         TolRMSD  ....  2.0000e-03 bohr
Strict Convergence                ....  False
------------------------------------------------------------------------------
                        ORCA OPTIMIZATION COORDINATE SETUP
------------------------------------------------------------------------------

The optimization will be done in new redundant internal coordinates
Making redundant internal coordinates   ...  (new redundants) done
Evaluating the initial hessian          ...  (Almloef) done
Evaluating the coordinates              ...  done
Calculating the B-matrix                .... done
Calculating the G-matrix                .... done
Diagonalizing the G-matrix              .... done
Imposing constraints:
 Iter   0:  RMS(Cart)=    0.0231989684 RMS(Int)=    0.0025347214
 Iter   1:  RMS(Cart)=    0.0010283795 RMS(Int)=    0.0001180101
 Iter   2:  RMS(Cart)=    0.0000471521 RMS(Int)=    0.0000053321
 Iter   3:  RMS(Cart)=    0.0000020419 RMS(Int)=    0.0000002289
 Iter   4:  RMS(Cart)=    0.0000000837 RMS(Int)=    0.0000000093
CONVERGED
Small eigenvalue found = 1.282e-02
Small eigenvalue found = 1.637e-02
Small eigenvalue found = 2.256e-02
Small eigenvalue found = 2.324e-02
Small eigenvalue found = 2.840e-02
The first mode is                       ....  227
The number of degrees of freedom        ....  111
Storing new coordinates                 .... done

    -----------------------------------------------------------------
                    Redundant Internal Coordinates


    -----------------------------------------------------------------
         Definition                    Initial Value    Approx d2E/dq
    -----------------------------------------------------------------
      1. B(C   1,Ir  0)                  2.1614         0.085507   
      2. B(C   2,C   1)                  1.4405         0.519115   
      3. B(C   2,Ir  0)                  2.1297         0.096074   
      4. B(C   3,Ir  0)                  2.1654         0.084246   
      5. B(C   4,Ir  0)                  2.1648         0.084430   
      6. B(C   4,C   3)                  1.4453         0.509920   
      7. B(C   4,C   1)                  1.4075         0.586186   
      8. B(C   5,Ir  0)                  2.1686         0.083291   
      9. B(C   5,C   2)                  1.4330         0.533604   
     10. B(C   5,C   3)                  1.4078         0.585268   
     11. B(N   6,Ir  0)                  2.1022         0.095030   
     12. B(C   7,N   6)                  1.4715         0.414761   
     13. B(C   8,C   7)                  1.5206         0.386759   
     14. B(H   9,C   8)                  1.0892         0.361208   
     15. B(H  10,C   8)                  1.0911         0.358644   
     16. B(H  11,C   8)                  1.0903         0.359643   
     17. B(C  12,C   7)                  1.5241         0.381746   
     18. B(H  13,C   7)                  1.0911         0.358636   
     19. B(H  14,C  12)                  1.0890         0.361439   
     20. B(H  15,C  12)                  1.0908         0.359078   
     21. B(H  16,C  12)                  1.0890         0.361465   
     22. B(C  17,N   6)                  1.2766         0.843834   
     23. B(C  18,C  17)                  1.4421         0.514320   
     24. B(H  19,C  17)                  1.0861         0.365365   
     25. B(C  20,C  18)                  1.3916         0.620858   
     26. B(C  20,Ir  0)                  2.3429         0.037505 C 
     27. B(C  21,C  20)                  1.4252         0.549215   
     28. B(S  22,C  18)                  1.7021         0.535198   
     29. B(C  23,C  21)                  1.3602         0.697507   
     30. B(C  23,S  22)                  1.7171         0.506971   
     31. B(H  24,C  20)                  1.2025         0.237757   
     32. B(H  25,C  21)                  1.0804         0.373138   
     33. B(H  26,C  23)                  1.0796         0.374204   
     34. B(H  27,C   1)                  1.0806         0.372800   
     35. B(H  28,C   2)                  1.0799         0.373740   
     36. B(H  29,C   5)                  1.0806         0.372732   
     37. B(O  30,H  24)                  1.4286         0.092980 C 
     38. B(O  31,Ir  0)                  2.0405         0.119586   
     39. B(C  32,O  30)                  1.2319         0.999880   
     40. B(C  32,O  31)                  1.2878         0.815413   
     41. B(C  33,C  32)                  1.5025         0.413375   
     42. B(H  34,C  33)                  1.0866         0.364692   
     43. B(H  35,C  33)                  1.0918         0.357745   
     44. B(H  36,C  33)                  1.0879         0.362926   
     45. B(H  37,C   3)                  1.0797         0.374024   
     46. B(H  38,C   4)                  1.0801         0.373409   
     47. A(C   2,Ir  0,O  31)          105.2688         0.262986   
     48. A(C   1,Ir  0,O  31)          143.1136         0.258457   
     49. A(C   5,Ir  0,N   6)          151.4095         0.248914   
     50. A(C   1,Ir  0,C   3)           64.4128         0.246668   
     51. A(C   1,Ir  0,C   5)           64.5418         0.246262   
     52. A(C   3,Ir  0,O  31)          116.7632         0.257888   
     53. A(C   3,Ir  0,N   6)          158.2770         0.249327   
     54. A(C   2,Ir  0,C   5)           38.9357         0.250465   
     55. A(C   3,Ir  0,C   4)           38.9960         0.246217   
     56. A(C   2,Ir  0,C   4)           65.0725         0.250962   
     57. A(C   5,Ir  0,O  31)           93.6968         0.257453   
     58. A(C   4,Ir  0,N   6)          119.6052         0.249406   
     59. A(C   1,Ir  0,C   2)           39.2213         0.251427   
     60. A(C   4,Ir  0,C   5)           64.3701         0.245812   
     61. A(C   4,Ir  0,O  31)          155.5534         0.257972   
     62. A(C   1,Ir  0,N   6)          100.4747         0.249867   
     63. A(C   2,Ir  0,C   3)           64.9322         0.250882   
     64. A(C   2,Ir  0,N   6)          114.0926         0.254166   
     65. A(C   1,Ir  0,C   4)           37.9720         0.246746   
     66. A(N   6,Ir  0,O  31)           84.7908         0.261314   
     67. A(C   3,Ir  0,C   5)           37.9111         0.245734   
     68. A(Ir  0,C   1,H  27)          123.8974         0.269099   
     69. A(C   2,C   1,C   4)          108.3968         0.416290   
     70. A(Ir  0,C   1,C   4)           71.1474         0.319696   
     71. A(C   4,C   1,H  27)          125.6958         0.351632   
     72. A(Ir  0,C   1,C   2)           69.2022         0.313438   
     73. A(C   2,C   1,H  27)          125.8778         0.344508   
     74. A(C   5,C   2,H  28)          125.9406         0.346251   
     75. A(Ir  0,C   2,C   5)           71.9983         0.320877   
     76. A(C   1,C   2,C   5)          107.1333         0.409401   
     77. A(Ir  0,C   2,C   1)           71.5765         0.319436   
     78. A(Ir  0,C   2,H  28)          126.5003         0.274018   
     79. A(C   1,C   2,H  28)          126.6363         0.344653   
     80. A(Ir  0,C   3,H  37)          124.6999         0.268628   
     81. A(C   4,C   3,C   5)          107.9889         0.414853   
     82. A(C   4,C   3,H  37)          126.0279         0.343665   
     83. A(Ir  0,C   3,C   4)           70.4787         0.311782   
     84. A(Ir  0,C   3,C   5)           71.1644         0.318840   
     85. A(C   5,C   3,H  37)          125.9765         0.351734   
     86. A(Ir  0,C   4,C   1)           70.8806         0.319036   
     87. A(Ir  0,C   4,H  38)          124.7586         0.268650   
     88. A(C   1,C   4,H  38)          126.2082         0.351730   
     89. A(C   3,C   4,H  38)          125.9241         0.343570   
     90. A(Ir  0,C   4,C   3)           70.5254         0.311892   
     91. A(C   1,C   4,C   3)          107.8629         0.414969   
     92. A(Ir  0,C   5,H  29)          122.0837         0.268025   
     93. A(C   3,C   5,H  29)          125.8306         0.351529   
     94. A(C   2,C   5,H  29)          125.4757         0.346094   
     95. A(Ir  0,C   5,C   3)           70.9245         0.318248   
     96. A(C   2,C   5,C   3)          108.5166         0.418219   
     97. A(Ir  0,C   5,C   2)           69.0660         0.313503   
     98. A(Ir  0,N   6,C  17)          113.8273         0.341654   
     99. A(C   7,N   6,C  17)          122.6158         0.421282   
    100. A(Ir  0,N   6,C   7)          123.5434         0.304134   
    101. A(N   6,C   7,C   8)          113.5777         0.369807   
    102. A(N   6,C   7,C  12)          109.5606         0.368979   
    103. A(C   8,C   7,C  12)          111.6753         0.366871   
    104. A(N   6,C   7,H  13)          104.7024         0.327753   
    105. A(C   8,C   7,H  13)          108.3945         0.325955   
    106. A(C  12,C   7,H  13)          108.5871         0.325256   
    107. A(C   7,C   8,H  11)          112.0197         0.326105   
    108. A(H   9,C   8,H  11)          107.3174         0.290922   
    109. A(H  10,C   8,H  11)          108.8828         0.290596   
    110. A(C   7,C   8,H   9)          108.8646         0.326338   
    111. A(C   7,C   8,H  10)          112.9749         0.325956   
    112. A(H   9,C   8,H  10)          106.4817         0.290795   
    113. A(C   7,C  12,H  14)          109.6177         0.325673   
    114. A(C   7,C  12,H  15)          111.3013         0.325322   
    115. A(H  14,C  12,H  15)          107.7899         0.290879   
    116. A(C   7,C  12,H  16)          112.0635         0.325677   
    117. A(H  14,C  12,H  16)          107.3112         0.291182   
    118. A(H  15,C  12,H  16)          108.5866         0.290882   
    119. A(N   6,C  17,C  18)          115.4031         0.440758   
    120. A(N   6,C  17,H  19)          122.5848         0.370573   
    121. A(C  18,C  17,H  19)          121.9672         0.342812   
    122. A(C  17,C  18,C  20)          120.2091         0.419879   
    123. A(C  17,C  18,S  22)          126.4960         0.431406   
    124. A(C  20,C  18,S  22)          113.1390         0.446311   
    125. A(C  18,C  20,C  21)          110.2795         0.424832   
    126. A(C  18,C  20,H  24)          118.7847         0.329317   
    127. A(C  21,C  20,H  24)          121.9641         0.322739   
    128. A(C  20,C  21,H  25)          123.8145         0.347841   
    129. A(C  23,C  21,H  25)          123.0225         0.362230   
    130. A(C  20,C  21,C  23)          113.0695         0.433798   
    131. A(C  18,S  22,C  23)           91.1171         0.454252   
    132. A(C  21,C  23,H  26)          127.9782         0.362407   
    133. A(S  22,C  23,H  26)          119.6102         0.361216   
    134. A(C  21,C  23,S  22)          112.3890         0.451379   
    135. A(Ir  0,O  31,C  32)          126.6377         0.353089   
    136. A(O  30,C  32,O  31)          124.4950         0.491378   
    137. A(O  30,C  32,C  33)          120.6125         0.436893   
    138. A(O  31,C  32,C  33)          114.8747         0.421199   
    139. A(C  32,C  33,H  34)          110.7990         0.330465   
    140. A(C  32,C  33,H  35)          108.9474         0.329416   
    141. A(H  34,C  33,H  35)          107.8065         0.291119   
    142. A(C  32,C  33,H  36)          111.7283         0.330199   
    143. A(H  34,C  33,H  36)          110.1225         0.291778   
    144. A(H  35,C  33,H  36)          107.2866         0.290897   
    145. D(C   2,C   1,Ir  0,C   4)    119.1057         0.001701   
    146. D(C   2,C   1,Ir  0,C   5)     38.8157         0.001701   
    147. D(H  27,C   1,Ir  0,O  31)     99.8463         0.001701   
    148. D(C   4,C   1,Ir  0,C   2)   -119.1057         0.001701   
    149. D(C   2,C   1,Ir  0,O  31)    -20.1586         0.001701   
    150. D(H  27,C   1,Ir  0,C   3)   -158.9840         0.001701   
    151. D(C   4,C   1,Ir  0,O  31)   -139.2642         0.001701   
    152. D(H  27,C   1,Ir  0,C   2)    120.0049         0.001701   
    153. D(C   4,C   1,Ir  0,C   3)    -38.0945         0.001701   
    154. D(H  27,C   1,Ir  0,N   6)      4.5368         0.001701   
    155. D(C   2,C   1,Ir  0,C   3)     81.0112         0.001701   
    156. D(C   4,C   1,Ir  0,N   6)    125.4263         0.001701   
    157. D(H  27,C   1,Ir  0,C   4)   -120.8894         0.001701   
    158. D(H  27,C   1,Ir  0,C   5)    158.8206         0.001701   
    159. D(C   4,C   1,Ir  0,C   5)    -80.2899         0.001701   
    160. D(C   2,C   1,Ir  0,N   6)   -115.4681         0.001701   
    161. D(Ir  0,C   2,C   1,H  27)   -117.4875         0.021384   
    162. D(C   1,C   2,Ir  0,C   5)   -115.7687         0.001753   
    163. D(C   1,C   2,Ir  0,C   4)    -36.3564         0.001753   
    164. D(H  28,C   2,C   1,H  27)      4.7615         0.021384   
    165. D(H  28,C   2,C   1,Ir  0)    122.2490         0.021384   
    166. D(C   5,C   2,C   1,H  27)    178.8436         0.021384   
    167. D(C   1,C   2,Ir  0,C   3)    -79.5742         0.001753   
    168. D(H  28,C   2,Ir  0,C   4)   -158.7649         0.001753   
    169. D(H  28,C   2,Ir  0,C   5)    121.8228         0.001753   
    170. D(C   5,C   2,Ir  0,C   3)     36.1945         0.001753   
    171. D(C   5,C   2,Ir  0,C   1)    115.7687         0.001753   
    172. D(H  28,C   2,C   1,C   4)   -177.1310         0.021384   
    173. D(C   5,C   2,Ir  0,C   4)     79.4123         0.001753   
    174. D(C   5,C   2,C   1,Ir  0)    -63.6688         0.021384   
    175. D(H  28,C   2,Ir  0,N   6)    -45.8772         0.001753   
    176. D(H  28,C   2,Ir  0,O  31)     45.2100         0.001753   
    177. D(Ir  0,C   2,C   1,C   4)     60.6199         0.021384   
    178. D(C   5,C   2,C   1,C   4)     -3.0489         0.021384   
    179. D(C   1,C   2,Ir  0,N   6)     76.5313         0.001753   
    180. D(C   5,C   2,Ir  0,O  31)    -76.6128         0.001753   
    181. D(H  28,C   2,Ir  0,C   1)   -122.4085         0.001753   
    182. D(C   1,C   2,Ir  0,O  31)    167.6185         0.001753   
    183. D(H  28,C   2,Ir  0,C   3)    158.0173         0.001753   
    184. D(C   5,C   2,Ir  0,N   6)   -167.7000         0.001753   
    185. D(C   4,C   3,Ir  0,C   5)    117.8494         0.001695   
    186. D(C   4,C   3,Ir  0,C   1)     37.1026         0.001695   
    187. D(C   4,C   3,Ir  0,O  31)    175.8401         0.001695   
    188. D(C   4,C   3,Ir  0,C   2)     80.6929         0.001695   
    189. D(C   5,C   3,Ir  0,O  31)     57.9907         0.001695   
    190. D(C   5,C   3,Ir  0,C   2)    -37.1564         0.001695   
    191. D(C   4,C   3,Ir  0,N   6)    -11.8049         0.001695   
    192. D(H  37,C   3,Ir  0,C   4)    120.9013         0.001695   
    193. D(H  37,C   3,Ir  0,C   1)    158.0039         0.001695   
    194. D(C   5,C   3,Ir  0,C   1)    -80.7467         0.001695   
    195. D(C   5,C   3,Ir  0,C   4)   -117.8494         0.001695   
    196. D(C   5,C   3,Ir  0,N   6)   -129.6543         0.001695   
    197. D(H  37,C   3,Ir  0,C   5)   -121.2494         0.001695   
    198. D(H  37,C   3,Ir  0,N   6)    109.0964         0.001695   
    199. D(H  37,C   3,Ir  0,O  31)    -63.2586         0.001695   
    200. D(H  37,C   3,Ir  0,C   2)   -158.4058         0.001695   
    201. D(C   1,C   4,Ir  0,C   3)    117.8355         0.001696   
    202. D(H  38,C   4,C   3,H  37)      0.1020         0.020610   
    203. D(C   1,C   4,Ir  0,C   5)     80.7820         0.001696   
    204. D(C   1,C   4,Ir  0,N   6)    -67.1607         0.001696   
    205. D(C   1,C   4,Ir  0,O  31)    108.8313         0.001696   
    206. D(C   1,C   4,Ir  0,C   2)     37.5335         0.001696   
    207. D(C   3,C   4,Ir  0,C   1)   -117.8355         0.001696   
    208. D(H  38,C   4,C   3,C   5)   -179.0004         0.020610   
    209. D(C   3,C   4,Ir  0,C   5)    -37.0535         0.001696   
    210. D(C   3,C   4,Ir  0,N   6)    175.0039         0.001696   
    211. D(C   3,C   4,Ir  0,O  31)     -9.0042         0.001696   
    212. D(Ir  0,C   4,C   1,C   2)    -59.4046         0.027575   
    213. D(H  38,C   4,Ir  0,C   2)    158.8951         0.001696   
    214. D(H  38,C   4,Ir  0,C   3)   -120.8029         0.001696   
    215. D(H  38,C   4,C   1,C   2)   -179.0109         0.027575   
    216. D(H  38,C   4,Ir  0,N   6)     54.2010         0.001696   
    217. D(H  38,C   4,Ir  0,O  31)   -129.8071         0.001696   
    218. D(Ir  0,C   4,C   1,H  27)    118.7072         0.027575   
    219. D(C   3,C   4,C   1,Ir  0)     61.1548         0.027575   
    220. D(C   3,C   4,C   1,H  27)    179.8620         0.027575   
    221. D(H  38,C   4,C   1,Ir  0)   -119.6063         0.027575   
    222. D(H  38,C   4,Ir  0,C   5)   -157.8564         0.001696   
    223. D(H  38,C   4,C   1,H  27)     -0.8991         0.027575   
    224. D(Ir  0,C   4,C   3,C   5)     61.6230         0.020610   
    225. D(Ir  0,C   4,C   3,H  37)   -119.2746         0.020610   
    226. D(C   3,C   4,C   1,C   2)      1.7502         0.027575   
    227. D(C   1,C   4,C   3,C   5)      0.2413         0.020610   
    228. D(C   1,C   4,C   3,H  37)    179.3436         0.020610   
    229. D(H  38,C   4,C   3,Ir  0)    119.3766         0.020610   
    230. D(H  38,C   4,Ir  0,C   1)    121.3616         0.001696   
    231. D(C   1,C   4,C   3,Ir  0)    -61.3817         0.020610   
    232. D(C   3,C   4,Ir  0,C   2)    -80.3020         0.001696   
    233. D(C   2,C   5,Ir  0,C   1)    -39.1000         0.001691   
    234. D(H  29,C   5,C   3,C   4)   -177.5145         0.027484   
    235. D(C   2,C   5,Ir  0,C   4)    -81.3715         0.001691   
    236. D(C   2,C   5,Ir  0,N   6)     23.9778         0.001691   
    237. D(C   2,C   5,Ir  0,O  31)    109.8737         0.001691   
    238. D(C   3,C   5,Ir  0,C   1)     80.3763         0.001691   
    239. D(C   3,C   5,Ir  0,C   2)    119.4763         0.001691   
    240. D(C   3,C   5,Ir  0,C   4)     38.1048         0.001691   
    241. D(H  29,C   5,C   2,C   1)    178.5859         0.022639   
    242. D(C   3,C   5,Ir  0,O  31)   -130.6500         0.001691   
    243. D(H  29,C   5,Ir  0,C   1)   -158.6750         0.001691   
    244. D(C   3,C   5,C   2,Ir  0)    -60.1894         0.022639   
    245. D(H  29,C   5,Ir  0,C   3)    120.9487         0.001691   
    246. D(H  29,C   5,Ir  0,C   4)    159.0535         0.001691   
    247. D(H  29,C   5,Ir  0,N   6)    -95.5972         0.001691   
    248. D(H  29,C   5,Ir  0,O  31)     -9.7013         0.001691   
    249. D(Ir  0,C   5,C   2,C   1)     63.3902         0.022639   
    250. D(H  29,C   5,Ir  0,C   2)   -119.5750         0.001691   
    251. D(Ir  0,C   5,C   2,H  28)   -122.4750         0.022639   
    252. D(C   3,C   5,C   2,C   1)      3.2007         0.022639   
    253. D(C   3,C   5,C   2,H  28)    177.3355         0.022639   
    254. D(C   3,C   5,Ir  0,N   6)    143.4542         0.001691   
    255. D(H  29,C   5,C   2,Ir  0)    115.1957         0.022639   
    256. D(H  29,C   5,C   2,H  28)     -7.2793         0.022639   
    257. D(Ir  0,C   5,C   3,C   4)    -61.1855         0.027484   
    258. D(Ir  0,C   5,C   3,H  37)    119.7116         0.027484   
    259. D(C   2,C   5,C   3,Ir  0)     59.0355         0.027484   
    260. D(C   2,C   5,C   3,C   4)     -2.1500         0.027484   
    261. D(C   2,C   5,C   3,H  37)    178.7471         0.027484   
    262. D(C   2,C   5,Ir  0,C   3)   -119.4763         0.001691   
    263. D(H  29,C   5,C   3,Ir  0)   -116.3290         0.027484   
    264. D(H  29,C   5,C   3,H  37)      3.3825         0.027484   
    265. D(C  17,N   6,Ir  0,C   1)    -95.7059         0.001767   
    266. D(C   7,N   6,Ir  0,C   2)     44.2797         0.001767   
    267. D(C   7,N   6,Ir  0,C   3)    126.7172         0.001767   
    268. D(C   7,N   6,Ir  0,C   4)    118.2024         0.001767   
    269. D(C   7,N   6,Ir  0,C   5)     28.0337         0.001767   
    270. D(C   7,N   6,Ir  0,C   1)     82.9874         0.001767   
    271. D(C   7,N   6,Ir  0,O  31)    -60.1332         0.001767   
    272. D(C  17,N   6,Ir  0,C   2)   -134.4136         0.001767   
    273. D(C  17,N   6,Ir  0,C   3)    -51.9761         0.001767   
    274. D(C  17,N   6,Ir  0,C   4)    -60.4909         0.001767   
    275. D(C  17,N   6,Ir  0,C   5)   -150.6595         0.001767   
    276. D(C  17,N   6,Ir  0,O  31)    121.1736         0.001767   
    277. D(C   8,C   7,N   6,Ir  0)    155.8885         0.014672   
    278. D(C   8,C   7,N   6,C  17)    -25.5307         0.014672   
    279. D(C  12,C   7,N   6,Ir  0)    -78.4682         0.014672   
    280. D(C  12,C   7,N   6,C  17)    100.1126         0.014672   
    281. D(H  13,C   7,N   6,Ir  0)     37.8239         0.014672   
    282. D(H  13,C   7,N   6,C  17)   -143.5954         0.014672   
    283. D(H   9,C   8,C   7,N   6)   -170.1254         0.011901   
    284. D(H   9,C   8,C   7,C  12)     65.3645         0.011901   
    285. D(H   9,C   8,C   7,H  13)    -54.2154         0.011901   
    286. D(H  10,C   8,C   7,N   6)     71.8074         0.011901   
    287. D(H  10,C   8,C   7,C  12)    -52.7026         0.011901   
    288. D(H  10,C   8,C   7,H  13)   -172.2826         0.011901   
    289. D(H  11,C   8,C   7,N   6)    -51.6032         0.011901   
    290. D(H  11,C   8,C   7,C  12)   -176.1133         0.011901   
    291. D(H  11,C   8,C   7,H  13)     64.3068         0.011901   
    292. D(H  14,C  12,C   7,N   6)    176.5639         0.011609   
    293. D(H  14,C  12,C   7,C   8)    -56.7089         0.011609   
    294. D(H  14,C  12,C   7,H  13)     62.7574         0.011609   
    295. D(H  15,C  12,C   7,N   6)    -64.2850         0.011609   
    296. D(H  15,C  12,C   7,C   8)     62.4422         0.011609   
    297. D(H  15,C  12,C   7,H  13)   -178.0915         0.011609   
    298. D(H  16,C  12,C   7,N   6)     57.5300         0.011609   
    299. D(H  16,C  12,C   7,C   8)   -175.7428         0.011609   
    300. D(H  16,C  12,C   7,H  13)    -56.2766         0.011609   
    301. D(C  18,C  17,N   6,Ir  0)     -8.0676         0.061532   
    302. D(C  18,C  17,N   6,C   7)    173.2254         0.061532   
    303. D(H  19,C  17,N   6,Ir  0)    174.3273         0.061532   
    304. D(H  19,C  17,N   6,C   7)     -4.3796         0.061532   
    305. D(C  20,C  18,C  17,N   6)    -31.0917         0.018032   
    306. D(C  20,C  18,C  17,H  19)    146.5296         0.018032   
    307. D(S  22,C  18,C  17,N   6)    144.0452         0.018032   
    308. D(S  22,C  18,C  17,H  19)    -38.3335         0.018032   
    309. D(C  21,C  20,C  18,C  17)    174.9144         0.028990   
    310. D(C  21,C  20,C  18,S  22)     -0.8354         0.028990   
    311. D(H  24,C  20,C  18,C  17)    -37.2043         0.028990   
    312. D(H  24,C  20,C  18,S  22)    147.0459         0.028990   
    313. D(C  23,C  21,C  20,C  18)      0.6139         0.022390   
    314. D(C  23,C  21,C  20,H  24)   -146.0700         0.022390   
    315. D(H  25,C  21,C  20,C  18)    177.1877         0.022390   
    316. D(H  25,C  21,C  20,H  24)     30.5038         0.022390   
    317. D(C  23,S  22,C  18,C  17)   -174.7729         0.005775   
    318. D(C  23,S  22,C  18,C  20)      0.6574         0.005775   
    319. D(S  22,C  23,C  21,C  20)     -0.1336         0.034245   
    320. D(S  22,C  23,C  21,H  25)   -176.7385         0.034245   
    321. D(H  26,C  23,C  21,C  20)    178.1078         0.034245   
    322. D(H  26,C  23,C  21,H  25)      1.5029         0.034245   
    323. D(C  21,C  23,S  22,C  18)     -0.2930         0.005315   
    324. D(H  26,C  23,S  22,C  18)   -178.6986         0.005315   
    325. D(C  32,O  31,Ir  0,C   1)   -176.6556         0.001900   
    326. D(C  32,O  31,Ir  0,C   2)    170.2897         0.001900   
    327. D(C  32,O  31,Ir  0,C   3)    101.0349         0.001900   
    328. D(C  32,O  31,Ir  0,C   4)    107.3676         0.001900   
    329. D(C  32,O  31,Ir  0,C   5)    132.5086         0.001900   
    330. D(C  32,O  31,Ir  0,N   6)    -76.1311         0.001900   
    331. D(O  30,C  32,O  31,Ir  0)      3.8765         0.051481   
    332. D(C  33,C  32,O  31,Ir  0)   -174.5891         0.051481   
    333. D(H  34,C  33,C  32,O  30)     23.5547         0.012648   
    334. D(H  34,C  33,C  32,O  31)   -157.9147         0.012648   
    335. D(H  35,C  33,C  32,O  30)    -94.8869         0.012648   
    336. D(H  35,C  33,C  32,O  31)     83.6437         0.012648   
    337. D(H  36,C  33,C  32,O  30)    146.7527         0.012648   
    338. D(H  36,C  33,C  32,O  31)    -34.7167         0.012648   
    -----------------------------------------------------------------

Number of atoms                         .... 39
Number of degrees of freedom            .... 338

         *************************************************************
         *                GEOMETRY OPTIMIZATION CYCLE   1            *
         *************************************************************
---------------------------------
CARTESIAN COORDINATES (ANGSTROEM)
---------------------------------
  Ir     0.601504   -0.711845    0.438040
  C      0.054903   -2.800922    0.346095
  C      0.105148   -2.344994    1.711608
  C      2.210005   -2.116145    0.798362
  C      1.331841   -2.639426   -0.223395
  C      1.461362   -1.969174    1.981554
  N     -1.051881    0.158548   -0.525172
  C     -2.321763    0.461530    0.153813
  C     -3.124312    1.563024   -0.520529
  H     -3.950286    1.845997    0.130608
  H     -3.569150    1.248152   -1.465774
  H     -2.525720    2.457899   -0.692999
  C     -3.137271   -0.817137    0.305079
  H     -2.029387    0.807053    1.146615
  H     -4.049387   -0.605436    0.861078
  H     -3.425297   -1.220689   -0.666508
  H     -2.594697   -1.585910    0.853223
  C     -0.866594    0.379928   -1.768738
  C      0.479541    0.168598   -2.240880
  H     -1.655062    0.741460   -2.422308
  C      1.561407    0.389096   -1.393761
  C      2.775927    0.005896   -2.033582
  S      0.934026   -0.456481   -3.757403
  C      2.588368   -0.460711   -3.297444
  H      1.512315    1.307338   -0.618818
  H      3.753367    0.125495   -1.589114
  H      3.337430   -0.786830   -4.003219
  H     -0.821242   -3.172660   -0.165605
  H     -0.699086   -2.376749    2.431603
  H      1.826052   -1.564202    2.914697
  O      1.365285    2.454214    0.220155
  O      0.539097    0.940407    1.633866
  C      0.938852    2.125815    1.328223
  C      0.887234    3.119958    2.453577
  H      0.854678    4.135944    2.069688
  H      1.791711    3.019809    3.056845
  H      0.038903    2.940778    3.110667
  H      3.259551   -1.892166    0.679925
  H      1.611995   -2.876272   -1.239328

----------------------------
CARTESIAN COORDINATES (A.U.)
----------------------------
  NO LB      ZA    FRAG     MASS         X           Y           Z
   0 Ir   17.0000*   0   192.220    1.136678   -1.345193    0.827776
   1 C     6.0000    0    12.011    0.103752   -5.292975    0.654025
   2 C     6.0000    0    12.011    0.198701   -4.431396    3.234470
   3 C     6.0000    0    12.011    4.176304   -3.998935    1.508685
   4 C     6.0000    0    12.011    2.516816   -4.987793   -0.422154
   5 C     6.0000    0    12.011    2.761573   -3.721200    3.744594
   6 N     7.0000    0    14.007   -1.987767    0.299612   -0.992432
   7 C     6.0000    0    12.011   -4.387497    0.872165    0.290664
   8 C     6.0000    0    12.011   -5.904093    2.953687   -0.983658
   9 H     1.0000    0     1.008   -7.464958    3.488428    0.246813
  10 H     1.0000    0     1.008   -6.744716    2.358665   -2.769912
  11 H     1.0000    0     1.008   -4.772918    4.644757   -1.309579
  12 C     6.0000    0    12.011   -5.928583   -1.544164    0.576515
  13 H     1.0000    0     1.008   -3.834985    1.525109    2.166789
  14 H     1.0000    0     1.008   -7.652233   -1.144109    1.627201
  15 H     1.0000    0     1.008   -6.472873   -2.306768   -1.259518
  16 H     1.0000    0     1.008   -4.903266   -2.996936    1.612357
  17 C     6.0000    0    12.011   -1.637626    0.717960   -3.342431
  18 C     6.0000    0    12.011    0.906202    0.318604   -4.234650
  19 H     1.0000    0     1.008   -3.127613    1.401156   -4.577498
  20 C     6.0000    0    12.011    2.950631    0.735284   -2.633826
  21 C     6.0000    0    12.011    5.245742    0.011142   -3.842913
  22 S    16.0000    0    32.060    1.765052   -0.862624   -7.100464
  23 C     6.0000    0    12.011    4.891307   -0.870617   -6.231266
  24 H     1.0000    0     1.008    2.857861    2.470511   -1.169397
  25 H     1.0000    0     1.008    7.092836    0.237151   -3.002990
  26 H     1.0000    0     1.008    6.306829   -1.486893   -7.564987
  27 H     1.0000    0     1.008   -1.551922   -5.995458   -0.312949
  28 H     1.0000    0     1.008   -1.321080   -4.491404    4.595063
  29 H     1.0000    0     1.008    3.450739   -2.955914    5.507979
  30 O     8.0000    0    15.999    2.580015    4.637792    0.416032
  31 O     8.0000    0    15.999    1.018745    1.777112    3.087560
  32 C     6.0000    0    12.011    1.774172    4.017208    2.509977
  33 C     6.0000    0    12.011    1.676630    5.895867    4.636589
  34 H     1.0000    0     1.008    1.615108    7.815802    3.911144
  35 H     1.0000    0     1.008    3.385844    5.706611    5.776599
  36 H     1.0000    0     1.008    0.073517    5.557265    5.878309
  37 H     1.0000    0     1.008    6.159658   -3.575675    1.284872
  38 H     1.0000    0     1.008    3.046230   -5.435366   -2.341991
* core charge reduced due to ECP

--------------------------------
INTERNAL COORDINATES (ANGSTROEM)
--------------------------------
 Ir     0   0   0     0.000000000000     0.00000000     0.00000000
 C      1   0   0     2.161381098860     0.00000000     0.00000000
 C      2   1   0     1.440440797312    69.20152875     0.00000000
 C      1   2   3     2.165424237863    64.41033303    81.01182602
 C      2   1   3     1.407363898897    71.14842762   240.89385665
 C      4   1   2     1.407790618558    71.16430091   279.25324811
 N      1   2   3     2.102636077159   100.47682368   244.52984797
 C      7   1   2     1.471531121481   123.31117002    82.95543957
 C      8   7   1     1.520558897569   113.57775608   155.89965264
 H      9   8   7     1.089163923144   108.86477679   189.87461630
 H      9   8   7     1.091102710920   112.97471535    71.80741380
 H      9   8   7     1.090345922600   112.01986294   308.39670636
 C      8   7   1     1.524109797489   109.56037153   281.54298565
 H      8   7   1     1.091108954065   104.70246694    37.83514244
 H     13   8   7     1.088989741115   109.61742331   176.56391263
 H     13   8   7     1.090773654142   111.30138753   295.71504855
 H     13   8   7     1.088969832617   112.06365652    57.52991673
 C      7   1   2     1.278192473689   114.28480589   264.29033787
 C     18   7   1     1.442966745436   115.90524429   351.77276848
 H     18   7   1     1.086048912227   122.33974292   174.19324495
 C     19  18   7     1.391721503757   120.38421426   328.77261320
 C     21  19  18     1.425097907585   110.30978840   174.94984873
 S     19  18   7     1.702135478718   126.37503997   143.99588320
 C     22  21  19     1.360033367342   113.06748433     0.63222109
 H     21  19  18     1.203003356067   118.77441374   322.83856402
 H     22  21  19     1.080318419064   123.81440091   177.19853671
 H     24  22  21     1.079541530155   127.98335721   178.09983780
 H      2   1   3     1.080565291324   123.89772513   120.00544830
 H      3   2   1     1.079879556280   126.63594850   122.24925080
 H      6   4   1     1.080614427656   125.83041254   243.67254714
 O     25  21  19     1.428571430623   175.08342270   352.79798377
 O      1   2   3     2.040069579443   143.12297678   339.83709674
 C     31  25  21     1.232004098151   112.42255612   101.44096666
 C     33  31  25     1.502442366843   120.64819175   171.35727663
 H     34  33  31     1.086550515174   110.79986012    23.55682096
 H     34  33  31     1.091785916388   108.94887498   265.11602171
 H     34  33  31     1.087872063891   111.72670063   146.75488144
 H      4   1   2     1.079672723824   124.69870788   158.00340976
 H      5   2   1     1.080120767816   126.20575580   240.39268586

---------------------------
INTERNAL COORDINATES (A.U.)
---------------------------
 Ir     0   0   0     0.000000000000     0.00000000     0.00000000
 C      1   0   0     4.084418347879     0.00000000     0.00000000
 C      2   1   0     2.722038619047    69.20152875     0.00000000
 C      1   2   3     4.092058773316    64.41033303    81.01182602
 C      2   1   3     2.659532339682    71.14842762   240.89385665
 C      4   1   2     2.660338722978    71.16430091   279.25324811
 N      1   2   3     3.973406345134   100.47682368   244.52984797
 C      7   1   2     2.780790817141   123.31117002    82.95543957
 C      8   7   1     2.873439886902   113.57775608   155.89965264
 H      9   8   7     2.058221529690   108.86477679   189.87461630
 H      9   8   7     2.061885307618   112.97471535    71.80741380
 H      9   8   7     2.060455184951   112.01986294   308.39670636
 C      8   7   1     2.880150115280   109.56037153   281.54298565
 H      8   7   1     2.061897105452   104.70246694    37.83514244
 H     13   8   7     2.057892373358   109.61742331   176.56391263
 H     13   8   7     2.061263480424   111.30138753   295.71504855
 H     13   8   7     2.057854751748   112.06365652    57.52991673
 C      7   1   2     2.415433721711   114.28480589   264.29033787
 C     18   7   1     2.726811969229   115.90524429   351.77276848
 H     18   7   1     2.052335012153   122.33974292   174.19324495
 C     19  18   7     2.629972496790   120.38421426   328.77261320
 C     21  19  18     2.693044759360   110.30978840   174.94984873
 S     19  18   7     3.216569897607   126.37503997   143.99588320
 C     22  21  19     2.570090597270   113.06748433     0.63222109
 H     21  19  18     2.273346881155   118.77441374   322.83856402
 H     22  21  19     2.041505949462   123.81440091   177.19853671
 H     24  22  21     2.040037842186   127.98335721   178.09983780
 H      2   1   3     2.041972470424   123.89772513   120.00544830
 H      3   2   1     2.040676618989   126.63594850   122.24925080
 H      6   4   1     2.042065324634   125.83041254   243.67254714
 O     25  21  19     2.699608766622   175.08342270   352.79798377
 O      1   2   3     3.855172799291   143.12297678   339.83709674
 C     31  25  21     2.328150341375   112.42255612   101.44096666
 C     33  31  25     2.839204605333   120.64819175   171.35727663
 H     34  33  31     2.053282904350   110.79986012    23.55682096
 H     34  33  31     2.063176378846   108.94887498   265.11602171
 H     34  33  31     2.055780269497   111.72670063   146.75488144
 H      4   1   2     2.040285762292   124.69870788   158.00340976
 H      5   2   1     2.041132442732   126.20575580   240.39268586

---------------------
BASIS SET INFORMATION
---------------------
There are 6 groups of distinct atoms

 Group   1 Type Ir  : 7s6p5d1f contracted to 6s3p2d1f pattern {211111/411/41/1}
 Group   2 Type C   : 8s4p1d contracted to 4s2p1d pattern {5111/31/1}
 Group   3 Type N   : 8s4p1d contracted to 4s2p1d pattern {5111/31/1}
 Group   4 Type H   : 4s contracted to 2s pattern {31}
 Group   5 Type S   : 10s7p1d contracted to 4s3p1d pattern {5311/511/1}
 Group   6 Type O   : 8s4p1d contracted to 4s2p1d pattern {5111/31/1}

Atom   0Ir   basis set group =>   1
Atom   1C    basis set group =>   2
Atom   2C    basis set group =>   2
Atom   3C    basis set group =>   2
Atom   4C    basis set group =>   2
Atom   5C    basis set group =>   2
Atom   6N    basis set group =>   3
Atom   7C    basis set group =>   2
Atom   8C    basis set group =>   2
Atom   9H    basis set group =>   4
Atom  10H    basis set group =>   4
Atom  11H    basis set group =>   4
Atom  12C    basis set group =>   2
Atom  13H    basis set group =>   4
Atom  14H    basis set group =>   4
Atom  15H    basis set group =>   4
Atom  16H    basis set group =>   4
Atom  17C    basis set group =>   2
Atom  18C    basis set group =>   2
Atom  19H    basis set group =>   4
Atom  20C    basis set group =>   2
Atom  21C    basis set group =>   2
Atom  22S    basis set group =>   5
Atom  23C    basis set group =>   2
Atom  24H    basis set group =>   4
Atom  25H    basis set group =>   4
Atom  26H    basis set group =>   4
Atom  27H    basis set group =>   4
Atom  28H    basis set group =>   4
Atom  29H    basis set group =>   4
Atom  30O    basis set group =>   6
Atom  31O    basis set group =>   6
Atom  32C    basis set group =>   2
Atom  33C    basis set group =>   2
Atom  34H    basis set group =>   4
Atom  35H    basis set group =>   4
Atom  36H    basis set group =>   4
Atom  37H    basis set group =>   4
Atom  38H    basis set group =>   4
---------------------------------
AUXILIARY/J BASIS SET INFORMATION
---------------------------------
There are 6 groups of distinct atoms

 Group   1 Type Ir  : 11s5p5d3f3g contracted to 8s5p5d2f3g pattern {41111111/11111/11111/21/111}
 Group   2 Type C   : 12s5p4d2f1g contracted to 6s4p3d1f1g pattern {711111/2111/211/2/1}
 Group   3 Type N   : 12s5p4d2f1g contracted to 6s4p3d1f1g pattern {711111/2111/211/2/1}
 Group   4 Type H   : 5s2p1d contracted to 3s1p1d pattern {311/2/1}
 Group   5 Type S   : 14s5p5d2f1g contracted to 8s4p3d1f1g pattern {71111111/2111/311/2/1}
 Group   6 Type O   : 12s5p4d2f1g contracted to 6s4p3d1f1g pattern {711111/2111/211/2/1}

Atom   0Ir   basis set group =>   1
Atom   1C    basis set group =>   2
Atom   2C    basis set group =>   2
Atom   3C    basis set group =>   2
Atom   4C    basis set group =>   2
Atom   5C    basis set group =>   2
Atom   6N    basis set group =>   3
Atom   7C    basis set group =>   2
Atom   8C    basis set group =>   2
Atom   9H    basis set group =>   4
Atom  10H    basis set group =>   4
Atom  11H    basis set group =>   4
Atom  12C    basis set group =>   2
Atom  13H    basis set group =>   4
Atom  14H    basis set group =>   4
Atom  15H    basis set group =>   4
Atom  16H    basis set group =>   4
Atom  17C    basis set group =>   2
Atom  18C    basis set group =>   2
Atom  19H    basis set group =>   4
Atom  20C    basis set group =>   2
Atom  21C    basis set group =>   2
Atom  22S    basis set group =>   5
Atom  23C    basis set group =>   2
Atom  24H    basis set group =>   4
Atom  25H    basis set group =>   4
Atom  26H    basis set group =>   4
Atom  27H    basis set group =>   4
Atom  28H    basis set group =>   4
Atom  29H    basis set group =>   4
Atom  30O    basis set group =>   6
Atom  31O    basis set group =>   6
Atom  32C    basis set group =>   2
Atom  33C    basis set group =>   2
Atom  34H    basis set group =>   4
Atom  35H    basis set group =>   4
Atom  36H    basis set group =>   4
Atom  37H    basis set group =>   4
Atom  38H    basis set group =>   4
-------------------------
ECP PARAMETER INFORMATION
-------------------------

 Group 1, Type Ir ECP Def2-ECP (replacing 60 core electrons, lmax=3)

Atom   0Ir   ECP group =>   1

------------------------------------------------------------------------------
                           ORCA GTO INTEGRAL CALCULATION
                           -- RI-GTO INTEGRALS CHOSEN --
------------------------------------------------------------------------------
------------------------------------------------------------------------------
                   ___                                                        
                  /   \      - P O W E R E D   B Y -                         
                 /     \                                                     
                 |  |  |   _    _      __       _____    __    __             
                 |  |  |  | |  | |    /  \     |  _  \  |  |  /  |          
                  \  \/   | |  | |   /    \    | | | |  |  | /  /          
                 / \  \   | |__| |  /  /\  \   | |_| |  |  |/  /          
                |  |  |   |  __  | /  /__\  \  |    /   |      \           
                |  |  |   | |  | | |   __   |  |    \   |  |\   \          
                \     /   | |  | | |  |  |  |  | |\  \  |  | \   \       
                 \___/    |_|  |_| |__|  |__|  |_| \__\ |__|  \__/        
                                                                              
                      - O R C A' S   B I G   F R I E N D -                    
                                      &                                       
                       - I N T E G R A L  F E E D E R -                       
                                                                              
 v1 FN, 2020, v2 2021                                                         
------------------------------------------------------------------------------


Reading SHARK input file reaction4-IEIP_ts_guess_scan_6-5_orca.SHARKINP.tmp ... ok
----------------------
SHARK INTEGRAL PACKAGE
----------------------

Number of atoms                             ...     39
Number of basis functions                   ...    358
Number of shells                            ...    184
Maximum angular momentum                    ...      3
Integral batch strategy                     ... SHARK/LIBINT Hybrid
RI-J (if used) integral strategy            ... SPLIT-RIJ (Revised 2003 algorithm where possible)
Printlevel                                  ...      1
Contraction scheme used                     ... SEGMENTED contraction
Coulomb Range Separation                    ... NOT USED
Exchange Range Separation                   ... NOT USED
Finite Nucleus Model                        ... NOT USED
Auxiliary Coulomb fitting basis             ... AVAILABLE
   # of basis functions in Aux-J            ...   1231
   # of shells in Aux-J                     ...    405
   Maximum angular momentum in Aux-J        ...      4
Auxiliary J/K fitting basis                 ... NOT available
Auxiliary Correlation fitting basis         ... NOT available
Auxiliary 'external' fitting basis          ... NOT available
Integral threshold                          ...     2.500000e-11
Primitive cut-off                           ...     2.500000e-12
Primitive pair pre-selection threshold      ...     2.500000e-12

Calculating pre-screening integrals         ... done (  0.1 sec) Dimension = 184
Organizing shell pair data                  ... done (  0.1 sec)
Shell pair information
Total number of shell pairs                 ...     17020
Shell pairs after pre-screening             ...     12993
Total number of primitive shell pairs       ...     60705
Primitive shell pairs kept                  ...     29223
          la=0 lb=0:   4979 shell pairs
          la=1 lb=0:   4255 shell pairs
          la=1 lb=1:    856 shell pairs
          la=2 lb=0:   1755 shell pairs
          la=2 lb=1:    791 shell pairs
          la=2 lb=2:    180 shell pairs
          la=3 lb=0:    113 shell pairs
          la=3 lb=1:     42 shell pairs
          la=3 lb=2:     21 shell pairs
          la=3 lb=3:      1 shell pairs

Calculating one electron integrals          ... done (  0.1 sec)
Calculating ECP integrals                   ... done (  0.7 sec)
Calculating RI/J V-Matrix + Cholesky decomp.... done (  0.1 sec)
Calculating Nuclear repulsion               ... done (  0.0 sec) ENN=   2040.341917531667 Eh

SHARK setup successfully completed in   1.4 seconds

Maximum memory used throughout the entire GTOINT-calculation: 91.0 MB
-------------------------------------------------------------------------------
                                 ORCA SCF
-------------------------------------------------------------------------------

------------
SCF SETTINGS
------------
Hamiltonian:
 Density Functional     Method          .... DFT(GTOs)
 Exchange Functional    Exchange        .... PBE
   PBE kappa parameter   XKappa         ....  1.024500
   PBE mue parameter    XMuePBE         ....  0.123457
 Correlation Functional Correlation     .... PBE
   PBE beta parameter  CBetaPBE         ....  0.030000
 LDA part of GGA corr.  LDAOpt          .... PW91-LDA
 Gradients option       PostSCFGGA      .... off
 Hybrid DFT is turned on
   Fraction HF Exchange ScalHFX         ....  0.420000
   Scaling of DF-GGA-X  ScalDFX         ....  0.580000
   Scaling of DF-GGA-C  ScalDFC         ....  1.000000
   Scaling of DF-LDA-C  ScalLDAC        ....  1.000000
   Perturbative correction              ....  0.000000
   Density functional embedding theory  .... OFF
 RI-approximation to the Coulomb term is turned on
   Number of AuxJ basis functions       .... 1231
   RIJ-ON(X) (HFX calculated with O(N)) .... on
   Number of AuxJ basis functions       .... 1231
   RIJ-COSX (HFX calculated with COS-X)).... on


General Settings:
 Integral files         IntName         .... reaction4-IEIP_ts_guess_scan_6-5_orca
 Hartree-Fock type      HFTyp           .... RHF
 Total Charge           Charge          ....    1
 Multiplicity           Mult            ....    1
 Number of Electrons    NEL             ....  164
 Basis Dimension        Dim             ....  358
 Nuclear Repulsion      ENuc            ....   2040.3419175317 Eh

Convergence Acceleration:
 DIIS                   CNVDIIS         .... on
   Start iteration      DIISMaxIt       ....    12
   Startup error        DIISStart       ....  0.200000
   # of expansion vecs  DIISMaxEq       ....     5
   Bias factor          DIISBfac        ....   1.050
   Max. coefficient     DIISMaxC        ....  10.000
 Trust-Rad. Augm. Hess. CNVTRAH         .... auto
   Auto Start mean grad. ratio tolernc. ....  1.125000
   Auto Start start iteration           ....    20
   Auto Start num. interpolation iter.  ....    10
   Max. Number of Micro iterations      ....    16
   Max. Number of Macro iterations      .... Maxiter - #DIIS iter
   Number of Davidson start vectors     ....     2
   Converg. threshold I  (grad. norm)   ....   1.000e-05
   Converg. threshold II (energy diff.) ....   1.000e-08
   Grad. Scal. Fac. for Micro threshold ....   0.100
   Minimum threshold for Micro iter.    ....   0.010
   NR start threshold (gradient norm)   ....   0.001
   Initial trust radius                 ....   0.400
   Minimum AH scaling param. (alpha)    ....   1.000
   Maximum AH scaling param. (alpha)    .... 1000.000
   Orbital update algorithm             .... Taylor
   White noise on init. David. guess    .... on
   Maximum white noise                  ....   0.010
   Quad. conv. algorithm                .... NR
   COSX micro iterations for RIJONX calc.... off
 SOSCF                  CNVSOSCF        .... off
 Level Shifting         CNVShift        .... on
   Level shift para.    LevelShift      ....    0.2500
   Turn off err/grad.   ShiftErr        ....    0.0010
 Zerner damping         CNVZerner       .... off
 Static damping         CNVDamp         .... on
   Fraction old density DampFac         ....    0.7000
   Max. Damping (<1)    DampMax         ....    0.9800
   Min. Damping (>=0)   DampMin         ....    0.0000
   Turn off err/grad.   DampErr         ....    0.1000
 Fernandez-Rico         CNVRico         .... off

SCF Procedure:
 Maximum # iterations   MaxIter         ....   250
 SCF integral mode      SCFMode         .... Direct
   Integral package                     .... SHARK and LIBINT hybrid scheme
 Reset frequency        DirectResetFreq ....    20
 Integral Threshold     Thresh          ....  2.500e-11 Eh
 Primitive CutOff       TCut            ....  2.500e-12 Eh

Convergence Tolerance:
 Convergence Check Mode ConvCheckMode   .... Total+1el-Energy
 Convergence forced     ConvForced      .... 0
 Energy Change          TolE            ....  1.000e-08 Eh
 1-El. energy change                    ....  1.000e-05 Eh
 DIIS Error             TolErr          ....  5.000e-07


Diagonalization of the overlap matrix:
Smallest eigenvalue                        ... 1.205e-03
Time for diagonalization                   ...    0.036 sec
Threshold for overlap eigenvalues          ... 1.000e-08
Number of eigenvalues below threshold      ... 0
Time for construction of square roots      ...    0.011 sec
Total time needed                          ...    0.048 sec

--------------------
INITIAL GUESS: HCORE
--------------------
                      -----------------
                      INTIAL GUESS DONE 
                      -----------------
-------------------
DFT GRID GENERATION
-------------------

General Integration Accuracy     IntAcc      ... 4.159
Radial Grid Type                 RadialGrid  ... OptM3 with GC (2021)
Angular Grid (max. ang.)         AngularGrid ... 3 (Lebedev-194)
Angular grid pruning method      GridPruning ... 4 (adaptive)
Weight generation scheme         WeightScheme... Becke
Basis function cutoff            BFCut       ... 1.0000e-11
Integration weight cutoff        WCut        ... 1.0000e-14
Angular grids for H and He will be reduced by one unit
Partially contracted basis set               ... off
Rotationally invariant grid construction     ... off

Total number of grid points                  ...    93259
Total number of batches                      ...     1479
Average number of points per batch           ...       63
Average number of grid points per atom       ...     2391
Time for grid setup =    1.663 sec

--------------------
COSX GRID GENERATION
--------------------

GRIDX 1
-------
General Integration Accuracy     IntAcc      ... 3.816
Radial Grid Type                 RadialGrid  ... OptM3 with GC (2021)
Angular Grid (max. ang.)         AngularGrid ... 1 (Lebedev-50)
Angular grid pruning method      GridPruning ... 4 (adaptive)
Weight generation scheme         WeightScheme... Becke
Basis function cutoff            BFCut       ... 1.0000e-11
Integration weight cutoff        WCut        ... 1.0000e-14
Angular grids for H and He will be reduced by one unit
Partially contracted basis set               ... on
Rotationally invariant grid construction     ... off

Total number of grid points                  ...    23159
Total number of batches                      ...      381
Average number of points per batch           ...       60
Average number of grid points per atom       ...      594
UseSFitting                                  ... on

GRIDX 2
-------
General Integration Accuracy     IntAcc      ... 4.020
Radial Grid Type                 RadialGrid  ... OptM3 with GC (2021)
Angular Grid (max. ang.)         AngularGrid ... 2 (Lebedev-110)
Angular grid pruning method      GridPruning ... 4 (adaptive)
Weight generation scheme         WeightScheme... Becke
Basis function cutoff            BFCut       ... 1.0000e-11
Integration weight cutoff        WCut        ... 1.0000e-14
Angular grids for H and He will be reduced by one unit
Partially contracted basis set               ... on
Rotationally invariant grid construction     ... off

Total number of grid points                  ...    50300
Total number of batches                      ...      805
Average number of points per batch           ...       62
Average number of grid points per atom       ...     1290
UseSFitting                                  ... on

GRIDX 3
-------
General Integration Accuracy     IntAcc      ... 4.338
Radial Grid Type                 RadialGrid  ... OptM3 with GC (2021)
Angular Grid (max. ang.)         AngularGrid ... 3 (Lebedev-194)
Angular grid pruning method      GridPruning ... 4 (adaptive)
Weight generation scheme         WeightScheme... Becke
Basis function cutoff            BFCut       ... 1.0000e-11
Integration weight cutoff        WCut        ... 1.0000e-14
Angular grids for H and He will be reduced by one unit
Partially contracted basis set               ... on
Rotationally invariant grid construction     ... off

Total number of grid points                  ...   108720
Total number of batches                      ...     1717
Average number of points per batch           ...       63
Average number of grid points per atom       ...     2788
UseSFitting                                  ... on

Time for X-Grid setup             =    4.212 sec

--------------
SCF ITERATIONS
--------------
ITER       Energy         Delta-E        Max-DP      RMS-DP      [F,P]     Damp
               ***  Starting incremental Fock matrix formation  ***
  0   -856.7377501427   0.00000000000020.11178023  0.14888558  2.9037929 0.7000
  1  -1092.8844763975-236.14672625476210.62982312  0.12857175  1.4762218 0.7000
  2  -1161.3962565287 -68.511780131213 5.52767867  0.06754738  1.0605790 0.7000
  3  -1188.1622560438 -26.765999515133 3.84665972  0.04557613  0.7732948 0.7000
  4  -1206.3285863657 -18.166330321898 2.70262001  0.03676173  0.4588921 0.7000
  5  -1222.9674458280 -16.638859462269 2.46779551  0.03067025  0.3692968 0.7000
  6  -1233.9246953933 -10.957249565285 1.75592375  0.02943001  0.3200446 0.7000
  7  -1240.9886379772  -7.063942583929 2.02773569  0.02543006  0.3407197 0.7000
  8  -1245.8435308337  -4.854892856527 1.56826710  0.02487705  0.4104019 0.7000
  9  -1249.9647852241  -4.121254390386 1.72363428  0.02415106  0.3658940 0.7000
 10  -1252.7278907609  -2.763105536845 1.59054760  0.02444644  0.4232835 0.7000
 11  -1254.4790905274  -1.751199766423 1.61624794  0.02372250  0.3764421 0.7000
                               ***Turning on DIIS***
 12  -1255.8387802411  -1.359689713710 1.55033190  0.02390078  0.4426911 0.7000
 13  -1256.7259984570  -0.887218215946 1.45007657  0.02040023  0.3807494 0.7000
 14  -1267.5252219271 -10.799223470069 1.00285120  0.01440850  0.2509629 0.7000
 15  -1273.9775960643  -6.452374137205 0.69800626  0.01022477  0.1562685 0.7000
 16  -1278.0633151276  -4.085719063351 0.48693011  0.00723003  0.1213112 0.7000
 17  -1280.8304667881  -2.767151660442 0.33713246  0.00512423  0.1569040 0.7000
 18  -1282.8727648218  -2.042298033661 0.23422159  0.00365278  0.1562732 0.7000
 19  -1284.3789436582  -1.506178836418 0.15943316  0.00271157  0.1479667 0.7000
               *** Restarting incremental Fock matrix formation ***
                                   *** Resetting DIIS ***
 20  -1285.5303871208  -1.151443462642 0.12585278  0.00243195  0.1284084 0.7000
 21  -1286.4348763188  -0.904489197979 0.28812478  0.00549447  0.0472223 0.0000
 22  -1288.4086473561  -1.973771037293 0.03372790  0.00084166  0.0454274 0.0000
 23  -1288.4402516586  -0.031604302536 0.03333755  0.00057333  0.0150402 0.0000
 24  -1288.4441690734  -0.003917414804 0.01931531  0.00022770  0.0148799 0.0000
 25  -1288.4463214071  -0.002152333695 0.00546277  0.00009851  0.0027493 0.0000
 26  -1288.4466540015  -0.000332594401 0.00298531  0.00005291  0.0016242 0.0000
 27  -1288.4467694721  -0.000115470585 0.00426903  0.00007682  0.0009455 0.0000
               *** Restarting incremental Fock matrix formation ***
                                   *** Resetting DIIS ***
 28  -1288.4479825340  -0.001213061901 0.00385292  0.00008315  0.0006643 0.0000
 29  -1288.4480001387  -0.000017604702 0.00097355  0.00001205  0.0010577 0.0000
 30  -1288.4480040322  -0.000003893529 0.00084408  0.00000826  0.0003416 0.0000
 31  -1288.4480052149  -0.000001182661 0.00037452  0.00000313  0.0001538 0.0000
 32  -1288.4480054104  -0.000000195468 0.00030965  0.00000252  0.0001303 0.0000
 33  -1288.4480055314  -0.000000121069 0.00013864  0.00000129  0.0000389 0.0000
 34  -1288.4480055707  -0.000000039306 0.00005912  0.00000062  0.0000192 0.0000
 35  -1288.4480055647   0.000000005991 0.00003757  0.00000034  0.0000092 0.0000
                 **** Energy Check signals convergence ****

               *****************************************************
               *                     SUCCESS                       *
               *           SCF CONVERGED AFTER  36 CYCLES          *
               *****************************************************

Old exchange energy                            =    -59.657446671 Eh
New exchange energy                            =    -59.657378667 Eh
Exchange energy change after final integration =      0.000068004 Eh
Total energy after final integration           =  -1288.447937564 Eh
Final COS-X integration done in                =    57.384 sec

----------------
TOTAL SCF ENERGY
----------------

Total Energy       :        -1288.44793756 Eh          -35060.45082 eV

Components:
Nuclear Repulsion  :         2040.34191753 Eh           55520.52619 eV
Electronic Energy  :        -3328.78985510 Eh          -90580.97701 eV
One Electron Energy:        -5836.15271197 Eh         -158809.78903 eV
Two Electron Energy:         2507.36285687 Eh           68228.81202 eV
Max COSX asymmetry :            0.00002111 Eh               0.00057 eV

Virial components:
Potential Energy   :        -2501.55630078 Eh          -68070.80760 eV
Kinetic Energy     :         1213.10836322 Eh           33010.35678 eV
Virial Ratio       :            2.06210457


DFT components:
N(Alpha)           :       82.000654894018 electrons
N(Beta)            :       82.000654894018 electrons
N(Total)           :      164.001309788036 electrons
E(X)               :      -79.593309356366 Eh       
E(C)               :       -7.456428084630 Eh       
E(XC)              :      -87.049737440996 Eh       
DFET-embed. en.    :        0.000000000000 Eh       

---------------
SCF CONVERGENCE
---------------

  Last Energy change         ...   -3.0341e-09  Tolerance :   1.0000e-08
  Last MAX-Density change    ...    0.0000e+00  Tolerance :   1.0000e-07
  Last RMS-Density change    ...    0.0000e+00  Tolerance :   5.0000e-09
  Last DIIS Error            ...    3.5954e-06  Tolerance :   5.0000e-07

             **** THE GBW FILE WAS UPDATED (reaction4-IEIP_ts_guess_scan_6-5_orca.gbw) ****
             **** DENSITY reaction4-IEIP_ts_guess_scan_6-5_orca.scfp WAS UPDATED ****
             **** ENERGY FILE WAS UPDATED (reaction4-IEIP_ts_guess_scan_6-5_orca.en.tmp) ****
             **** THE GBW FILE WAS UPDATED (reaction4-IEIP_ts_guess_scan_6-5_orca.gbw) ****
             **** DENSITY reaction4-IEIP_ts_guess_scan_6-5_orca.scfp WAS UPDATED ****
----------------
ORBITAL ENERGIES
----------------

  NO   OCC          E(Eh)            E(eV) 
   0   2.0000     -89.765046     -2442.6311 
   1   2.0000     -19.623804      -533.9909 
   2   2.0000     -19.592609      -533.1420 
   3   2.0000     -14.840407      -403.8280 
   4   2.0000     -10.681894      -290.6691 
   5   2.0000     -10.661347      -290.1100 
   6   2.0000     -10.634939      -289.3914 
   7   2.0000     -10.633465      -289.3513 
   8   2.0000     -10.632049      -289.3128 
   9   2.0000     -10.628620      -289.2195 
  10   2.0000     -10.628289      -289.2105 
  11   2.0000     -10.627921      -289.2004 
  12   2.0000     -10.615601      -288.8652 
  13   2.0000     -10.611406      -288.7510 
  14   2.0000     -10.587314      -288.0955 
  15   2.0000     -10.584788      -288.0267 
  16   2.0000     -10.556598      -287.2596 
  17   2.0000     -10.551839      -287.1301 
  18   2.0000     -10.533782      -286.6388 
  19   2.0000      -8.404396      -228.6952 
  20   2.0000      -6.294387      -171.2790 
  21   2.0000      -6.290753      -171.1801 
  22   2.0000      -6.289249      -171.1392 
  23   2.0000      -4.027721      -109.5999 
  24   2.0000      -2.346470       -63.8507 
  25   2.0000      -2.312759       -62.9334 
  26   2.0000      -2.311342       -62.8948 
  27   2.0000      -1.307388       -35.5758 
  28   2.0000      -1.214087       -33.0370 
  29   2.0000      -1.209845       -32.9216 
  30   2.0000      -1.170659       -31.8552 
  31   2.0000      -1.128871       -30.7181 
  32   2.0000      -1.027615       -27.9628 
  33   2.0000      -0.985141       -26.8070 
  34   2.0000      -0.975841       -26.5540 
  35   2.0000      -0.968124       -26.3440 
  36   2.0000      -0.961544       -26.1649 
  37   2.0000      -0.927830       -25.2475 
  38   2.0000      -0.902906       -24.5693 
  39   2.0000      -0.874728       -23.8026 
  40   2.0000      -0.799421       -21.7534 
  41   2.0000      -0.786726       -21.4079 
  42   2.0000      -0.785831       -21.3836 
  43   2.0000      -0.782499       -21.2929 
  44   2.0000      -0.770673       -20.9711 
  45   2.0000      -0.756343       -20.5811 
  46   2.0000      -0.744321       -20.2540 
  47   2.0000      -0.724223       -19.7071 
  48   2.0000      -0.693246       -18.8642 
  49   2.0000      -0.675503       -18.3814 
  50   2.0000      -0.665597       -18.1118 
  51   2.0000      -0.650851       -17.7106 
  52   2.0000      -0.647975       -17.6323 
  53   2.0000      -0.638926       -17.3861 
  54   2.0000      -0.636251       -17.3133 
  55   2.0000      -0.630104       -17.1460 
  56   2.0000      -0.623012       -16.9530 
  57   2.0000      -0.612798       -16.6751 
  58   2.0000      -0.606474       -16.5030 
  59   2.0000      -0.605737       -16.4829 
  60   2.0000      -0.599055       -16.3011 
  61   2.0000      -0.590366       -16.0647 
  62   2.0000      -0.580044       -15.7838 
  63   2.0000      -0.572941       -15.5905 
  64   2.0000      -0.564293       -15.3552 
  65   2.0000      -0.556537       -15.1442 
  66   2.0000      -0.552367       -15.0307 
  67   2.0000      -0.548600       -14.9282 
  68   2.0000      -0.540087       -14.6965 
  69   2.0000      -0.536634       -14.6025 
  70   2.0000      -0.528295       -14.3756 
  71   2.0000      -0.520092       -14.1524 
  72   2.0000      -0.515859       -14.0372 
  73   2.0000      -0.503949       -13.7132 
  74   2.0000      -0.489294       -13.3144 
  75   2.0000      -0.481716       -13.1082 
  76   2.0000      -0.470764       -12.8101 
  77   2.0000      -0.448377       -12.2010 
  78   2.0000      -0.442835       -12.0501 
  79   2.0000      -0.423645       -11.5280 
  80   2.0000      -0.416907       -11.3446 
  81   2.0000      -0.401645       -10.9293 
  82   0.0000      -0.202418        -5.5081 
  83   0.0000      -0.156704        -4.2641 
  84   0.0000      -0.141362        -3.8466 
  85   0.0000      -0.097520        -2.6537 
  86   0.0000      -0.076620        -2.0849 
  87   0.0000      -0.067306        -1.8315 
  88   0.0000      -0.059576        -1.6212 
  89   0.0000      -0.053452        -1.4545 
  90   0.0000      -0.045938        -1.2500 
  91   0.0000      -0.033609        -0.9145 
  92   0.0000      -0.005098        -0.1387 
  93   0.0000      -0.002712        -0.0738 
  94   0.0000       0.013100         0.3565 
  95   0.0000       0.021652         0.5892 
  96   0.0000       0.023084         0.6282 
  97   0.0000       0.034867         0.9488 
  98   0.0000       0.045629         1.2416 
  99   0.0000       0.059883         1.6295 
 100   0.0000       0.068939         1.8759 
 101   0.0000       0.071700         1.9511 
 102   0.0000       0.072477         1.9722 
 103   0.0000       0.080509         2.1908 
 104   0.0000       0.084330         2.2947 
 105   0.0000       0.091271         2.4836 
 106   0.0000       0.094324         2.5667 
 107   0.0000       0.101349         2.7578 
 108   0.0000       0.107263         2.9188 
 109   0.0000       0.112494         3.0611 
 110   0.0000       0.114720         3.1217 
 111   0.0000       0.121767         3.3135 
 112   0.0000       0.122668         3.3380 
 113   0.0000       0.125821         3.4238 
 114   0.0000       0.130301         3.5457 
 115   0.0000       0.137320         3.7367 
 116   0.0000       0.143486         3.9044 
 117   0.0000       0.154143         4.1945 
 118   0.0000       0.159525         4.3409 
 119   0.0000       0.160174         4.3586 
 120   0.0000       0.167400         4.5552 
 121   0.0000       0.182880         4.9764 
 122   0.0000       0.190942         5.1958 
 123   0.0000       0.198859         5.4112 
 124   0.0000       0.223963         6.0943 
 125   0.0000       0.233815         6.3624 
 126   0.0000       0.254584         6.9276 
 127   0.0000       0.260622         7.0919 
 128   0.0000       0.275949         7.5090 
 129   0.0000       0.290910         7.9161 
 130   0.0000       0.304504         8.2860 
 131   0.0000       0.311513         8.4767 
 132   0.0000       0.321295         8.7429 
 133   0.0000       0.336463         9.1556 
 134   0.0000       0.339253         9.2315 
 135   0.0000       0.353719         9.6252 
 136   0.0000       0.358404         9.7527 
 137   0.0000       0.370729        10.0881 
 138   0.0000       0.382133        10.3984 
 139   0.0000       0.397790        10.8244 
 140   0.0000       0.403265        10.9734 
 141   0.0000       0.418829        11.3969 
 142   0.0000       0.425435        11.5767 
 143   0.0000       0.436628        11.8813 
 144   0.0000       0.442887        12.0516 
 145   0.0000       0.450456        12.2575 
 146   0.0000       0.456149        12.4124 
 147   0.0000       0.462092        12.5742 
 148   0.0000       0.468158        12.7392 
 149   0.0000       0.479524        13.0485 
 150   0.0000       0.483301        13.1513 
 151   0.0000       0.489768        13.3273 
 152   0.0000       0.491975        13.3873 
 153   0.0000       0.499201        13.5840 
 154   0.0000       0.506511        13.7829 
 155   0.0000       0.515367        14.0238 
 156   0.0000       0.525921        14.3110 
 157   0.0000       0.531894        14.4736 
 158   0.0000       0.542172        14.7533 
 159   0.0000       0.547202        14.8901 
 160   0.0000       0.557578        15.1725 
 161   0.0000       0.562919        15.3178 
 162   0.0000       0.570092        15.5130 
 163   0.0000       0.586067        15.9477 
 164   0.0000       0.587947        15.9989 
 165   0.0000       0.597057        16.2468 
 166   0.0000       0.614107        16.7107 
 167   0.0000       0.620571        16.8866 
 168   0.0000       0.630455        17.1556 
[...]

----------------------
LOEWDIN ATOMIC CHARGES
----------------------
   0 Ir:   -0.235077
   1 C :   -0.043598
   2 C :   -0.073162
   3 C :   -0.064430
   4 C :   -0.053476
   5 C :   -0.019512
   6 N :   -0.003253
   7 C :   -0.069703
   8 C :   -0.363413
   9 H :    0.156961
  10 H :    0.133065
  11 H :    0.146564
  12 C :   -0.343480
  13 H :    0.156624
  14 H :    0.152583
  15 H :    0.137217
  16 H :    0.133371
  17 C :    0.033504
  18 C :   -0.179478
  19 H :    0.162232
  20 C :   -0.203017
  21 C :   -0.130291
  22 S :    0.481620
  23 C :   -0.262774
  24 H :    0.304999
  25 H :    0.162737
  26 H :    0.168569
  27 H :    0.184135
  28 H :    0.184293
  29 H :    0.192612
  30 O :   -0.273652
  31 O :   -0.203862
  32 C :    0.154447
  33 C :   -0.375306
  34 H :    0.160005
  35 H :    0.167600
  36 H :    0.153454
  37 H :    0.185398
  38 H :    0.185497

-------------------------------
LOEWDIN REDUCED ORBITAL CHARGES
-------------------------------
  0 Irs       :     2.449161  s :     2.449161
      pz      :     2.244336  p :     6.756123
      px      :     2.243357
      py      :     2.268430
      dz2     :     1.828743  d :     7.940280
      dxz     :     1.717572
      dyz     :     1.302186
      dx2y2   :     1.627417
      dxy     :     1.464363
      f0      :     0.011296  f :     0.089512
      f+1     :     0.003606
      f-1     :     0.013687
      f+2     :     0.016709
      f-2     :     0.016506
      f+3     :     0.011107
      f-3     :     0.016600
  1 C s       :     2.875261  s :     2.875261
      pz      :     1.049180  p :     3.064127
      px      :     1.085206
      py      :     0.929741
      dz2     :     0.026287  d :     0.104210
      dxz     :     0.026749
      dyz     :     0.017348
      dx2y2   :     0.018577
      dxy     :     0.015250
  2 C s       :     2.874495  s :     2.874495
      pz      :     1.043980  p :     3.097497
      px      :     1.078765
      py      :     0.974752
      dz2     :     0.025188  d :     0.101171
      dxz     :     0.027743
      dyz     :     0.017316
      dx2y2   :     0.017953
      dxy     :     0.012971
  3 C s       :     2.873540  s :     2.873540
      pz      :     1.033216  p :     3.089729
      px      :     1.079659
      py      :     0.976853
      dz2     :     0.023607  d :     0.101162
      dxz     :     0.031909
      dyz     :     0.015783
      dx2y2   :     0.015534
      dxy     :     0.014328
  4 C s       :     2.874297  s :     2.874297
      pz      :     1.090111  p :     3.076796
      px      :     1.037753
      py      :     0.948932
      dz2     :     0.022420  d :     0.102382
      dxz     :     0.031077
      dyz     :     0.012998
      dx2y2   :     0.018056
      dxy     :     0.017833
  5 C s       :     2.877893  s :     2.877893
      pz      :     1.059538  p :     3.036875
      px      :     1.034627
      py      :     0.942711
      dz2     :     0.024276  d :     0.104745
      dxz     :     0.030501
      dyz     :     0.015869
      dx2y2   :     0.015649
      dxy     :     0.018449
  6 N s       :     3.123297  s :     3.123297
      pz      :     1.263015  p :     3.781477
      px      :     1.292467
      py      :     1.225995
      dz2     :     0.030536  d :     0.098480
      dxz     :     0.027629
      dyz     :     0.018925
      dx2y2   :     0.011496
      dxy     :     0.009893
  7 C s       :     2.862485  s :     2.862485
      pz      :     1.060854  p :     3.072955
      px      :     0.937522
      py      :     1.074579
      dz2     :     0.025231  d :     0.134263
      dxz     :     0.028910
      dyz     :     0.017512
      dx2y2   :     0.029514
      dxy     :     0.033096
  8 C s       :     2.953289  s :     2.953289
      pz      :     1.132681  p :     3.342678
      px      :     1.124374
      py      :     1.085623
      dz2     :     0.012771  d :     0.067446
      dxz     :     0.017711
      dyz     :     0.008924
      dx2y2   :     0.009287
      dxy     :     0.018754
  9 H s       :     0.843039  s :     0.843039
 10 H s       :     0.866935  s :     0.866935
 11 H s       :     0.853436  s :     0.853436
 12 C s       :     2.953219  s :     2.953219
      pz      :     1.142066  p :     3.322315
      px      :     1.110235
      py      :     1.070014
      dz2     :     0.011396  d :     0.067946
      dxz     :     0.013767
      dyz     :     0.013461
      dx2y2   :     0.011302
      dxy     :     0.018021
 13 H s       :     0.843376  s :     0.843376
 14 H s       :     0.847417  s :     0.847417
 15 H s       :     0.862783  s :     0.862783
 16 H s       :     0.866629  s :     0.866629
 17 C s       :     2.877747  s :     2.877747
      pz      :     1.019467  p :     2.948485
      px      :     1.062541
      py      :     0.866477
      dz2     :     0.040395  d :     0.140264
      dxz     :     0.050808
      dyz     :     0.024897
      dx2y2   :     0.011773
      dxy     :     0.012391
 18 C s       :     2.895543  s :     2.895543
      pz      :     1.044845  p :     3.171675
      px      :     1.090200
      py      :     1.036630
      dz2     :     0.031993  d :     0.112260
      dxz     :     0.031377
      dyz     :     0.017325
      dx2y2   :     0.018918
      dxy     :     0.012647
 19 H s       :     0.837768  s :     0.837768
 20 C s       :     2.908759  s :     2.908759
      pz      :     1.112093  p :     3.203330
      px      :     1.050355
      py      :     1.040882
      dz2     :     0.011129  d :     0.090929
      dxz     :     0.034774
      dyz     :     0.009945
      dx2y2   :     0.017717
      dxy     :     0.017364
 21 C s       :     2.897725  s :     2.897725
      pz      :     1.071594  p :     3.138253
      px      :     1.088856
      py      :     0.977804
      dz2     :     0.026191  d :     0.094313
      dxz     :     0.029662
      dyz     :     0.014185
      dx2y2   :     0.015430
      dxy     :     0.008845
 22 S s       :     5.502467  s :     5.502467
      pz      :     3.277689  p :     9.862111
      px      :     3.084140
      py      :     3.500282
      dz2     :     0.042410  d :     0.153802
      dxz     :     0.033247
      dyz     :     0.021933
      dx2y2   :     0.031810
      dxy     :     0.024402
 23 C s       :     2.964573  s :     2.964573
      pz      :     1.117385  p :     3.212581
      px      :     1.021532
      py      :     1.073664
      dz2     :     0.021816  d :     0.085621
      dxz     :     0.028617
      dyz     :     0.012379
      dx2y2   :     0.012832
      dxy     :     0.009978
 24 H s       :     0.695001  s :     0.695001
 25 H s       :     0.837263  s :     0.837263
 26 H s       :     0.831431  s :     0.831431
 27 H s       :     0.815865  s :     0.815865
 28 H s       :     0.815707  s :     0.815707
 29 H s       :     0.807388  s :     0.807388
 30 O s       :     3.508863  s :     3.508863
      pz      :     1.461505  p :     4.710192
      px      :     1.533500
      py      :     1.715188
      dz2     :     0.017772  d :     0.054597
      dxz     :     0.013325
      dyz     :     0.015871
      dx2y2   :     0.004248
      dxy     :     0.003379
 31 O s       :     3.445909  s :     3.445909
      pz      :     1.694767  p :     4.698704
      px      :     1.624658
      py      :     1.379280
      dz2     :     0.009322  d :     0.059249
      dxz     :     0.003618
      dyz     :     0.016182
      dx2y2   :     0.015517
      dxy     :     0.014610
 32 C s       :     2.813737  s :     2.813737
      pz      :     1.000178  p :     2.709831
      px      :     0.756811
      py      :     0.952841
      dz2     :     0.075706  d :     0.321985
      dxz     :     0.045624
      dyz     :     0.106792
      dx2y2   :     0.045454
      dxy     :     0.048409
 33 C s       :     2.959600  s :     2.959600
      pz      :     1.097278  p :     3.353021
      px      :     1.149973
      py      :     1.105770
      dz2     :     0.005449  d :     0.062686
      dxz     :     0.017292
      dyz     :     0.019489
      dx2y2   :     0.018225
      dxy     :     0.002231
 34 H s       :     0.839995  s :     0.839995
 35 H s       :     0.832400  s :     0.832400
 36 H s       :     0.846546  s :     0.846546
 37 H s       :     0.814602  s :     0.814602
 38 H s       :     0.814503  s :     0.814503


                      *****************************
                      * MAYER POPULATION ANALYSIS *
                      *****************************

  NA   - Mulliken gross atomic population
  ZA   - Total nuclear charge
  QA   - Mulliken gross atomic charge
  VA   - Mayer's total valence
  BVA  - Mayer's bonded valence
  FA   - Mayer's free valence

  ATOM       NA         ZA         QA         VA         BVA        FA
  0 Ir    16.3902    17.0000     0.6098     3.7416     3.7416     0.0000
  1 C      6.2152     6.0000    -0.2152     3.7050     3.7050    -0.0000
  2 C      6.2829     6.0000    -0.2829     3.7404     3.7404    -0.0000
  3 C      6.2441     6.0000    -0.2441     3.7365     3.7365    -0.0000
  4 C      6.2422     6.0000    -0.2422     3.7224     3.7224    -0.0000
  5 C      6.1629     6.0000    -0.1629     3.6948     3.6948     0.0000
  6 N      7.4273     7.0000    -0.4273     3.2165     3.2165     0.0000
  7 C      6.1254     6.0000    -0.1254     3.6998     3.6998     0.0000
  8 C      6.6875     6.0000    -0.6875     3.6861     3.6861    -0.0000
  9 H      0.7290     1.0000     0.2710     0.8969     0.8969     0.0000
 10 H      0.7755     1.0000     0.2245     0.9104     0.9104    -0.0000
 11 H      0.7399     1.0000     0.2601     0.8979     0.8979    -0.0000
 12 C      6.6359     6.0000    -0.6359     3.6728     3.6728     0.0000
 13 H      0.7175     1.0000     0.2825     0.8746     0.8746     0.0000
 14 H      0.7369     1.0000     0.2631     0.8972     0.8972     0.0000
 15 H      0.7690     1.0000     0.2310     0.9097     0.9097     0.0000
 16 H      0.7681     1.0000     0.2319     0.9061     0.9061     0.0000
 17 C      5.9287     6.0000     0.0713     3.6408     3.6408     0.0000
 18 C      6.1659     6.0000    -0.1659     3.7113     3.7113     0.0000
 19 H      0.7102     1.0000     0.2898     0.8864     0.8864     0.0000
 20 C      6.4880     6.0000    -0.4880     3.4764     3.4764    -0.0000
 21 C      6.1208     6.0000    -0.1208     3.7489     3.7489     0.0000
 22 S     15.6821    16.0000     0.3179     2.5878     2.5878    -0.0000
 23 C      6.4320     6.0000    -0.4320     3.7476     3.7476     0.0000
 24 H      0.5054     1.0000     0.4946     0.7394     0.7394    -0.0000
 25 H      0.7334     1.0000     0.2666     0.9032     0.9032     0.0000
 26 H      0.7018     1.0000     0.2982     0.8971     0.8971     0.0000
 27 H      0.7105     1.0000     0.2895     0.9028     0.9028     0.0000
 28 H      0.7102     1.0000     0.2898     0.9062     0.9062     0.0000
 29 H      0.6950     1.0000     0.3050     0.8923     0.8923    -0.0000
 30 O      8.4789     8.0000    -0.4789     2.1297     2.1297    -0.0000
 31 O      8.5352     8.0000    -0.5352     2.0796     2.0796    -0.0000
 32 C      5.3818     6.0000     0.6182     3.9160     3.9160    -0.0000
 33 C      6.7448     6.0000    -0.7448     3.6677     3.6677     0.0000
 34 H      0.7304     1.0000     0.2696     0.8952     0.8952     0.0000
 35 H      0.7329     1.0000     0.2671     0.8950     0.8950    -0.0000
 36 H      0.7463     1.0000     0.2537     0.9008     0.9008    -0.0000
 37 H      0.7100     1.0000     0.2900     0.9039     0.9039    -0.0000
 38 H      0.7064     1.0000     0.2936     0.9031     0.9031    -0.0000

  Mayer bond orders larger than 0.100000
B(  0-Ir,  1-C ) :   0.4184 B(  0-Ir,  2-C ) :   0.5035 B(  0-Ir,  3-C ) :   0.4618 
B(  0-Ir,  4-C ) :   0.4466 B(  0-Ir,  5-C ) :   0.3994 B(  0-Ir,  6-N ) :   0.4629 
B(  0-Ir, 20-C ) :   0.3085 B(  0-Ir, 31-O ) :   0.5700 B(  1-C ,  2-C ) :   1.1228 
B(  1-C ,  4-C ) :   1.2439 B(  1-C , 27-H ) :   0.9044 B(  2-C ,  5-C ) :   1.1469 
B(  2-C , 28-H ) :   0.9085 B(  3-C ,  4-C ) :   1.1096 B(  3-C ,  5-C ) :   1.2240 
B(  3-C , 37-H ) :   0.9072 B(  4-C , 38-H ) :   0.9003 B(  5-C , 29-H ) :   0.8982 
B(  6-N ,  7-C ) :   0.8919 B(  6-N , 17-C ) :   1.6793 B(  7-C ,  8-C ) :   0.9912 
B(  7-C , 12-C ) :   0.9679 B(  7-C , 13-H ) :   0.8731 B(  8-C ,  9-H ) :   0.9040 
B(  8-C , 10-H ) :   0.9130 B(  8-C , 11-H ) :   0.9089 B( 12-C , 14-H ) :   0.9068 
B( 12-C , 15-H ) :   0.9155 B( 12-C , 16-H ) :   0.9121 B( 17-C , 18-C ) :   1.0713 
B( 17-C , 19-H ) :   0.8750 B( 18-C , 20-C ) :   1.2721 B( 18-C , 22-S ) :   1.2414 
B( 20-C , 21-C ) :   1.2639 B( 20-C , 24-H ) :   0.4478 B( 21-C , 23-C ) :   1.5500 
B( 21-C , 25-H ) :   0.9041 B( 22-S , 23-C ) :   1.2045 B( 23-C , 26-H ) :   0.8916 
B( 24-H , 30-O ) :   0.2611 B( 30-O , 32-C ) :   1.6730 B( 31-O , 32-C ) :   1.2923 
B( 32-C , 33-C ) :   0.9460 B( 33-C , 34-H ) :   0.9046 B( 33-C , 35-H ) :   0.8982 
B( 33-C , 36-H ) :   0.9094 


------------------
HIRSHFELD ANALYSIS
------------------

Total integrated alpha density =     82.000453391
Total integrated beta density  =     82.000453391

  ATOM     CHARGE      SPIN    
   0 Ir   0.194993    0.000000
   1 C    0.005110    0.000000
   2 C   -0.004450    0.000000
   3 C   -0.004288    0.000000
   4 C   -0.003166    0.000000
   5 C    0.019877    0.000000
   6 N   -0.065982    0.000000
   7 C    0.053420    0.000000
   8 C   -0.071160    0.000000
   9 H    0.053753    0.000000
  10 H    0.037571    0.000000
  11 H    0.043444    0.000000
  12 C   -0.070613    0.000000
  13 H    0.046282    0.000000
  14 H    0.051312    0.000000
  15 H    0.036674    0.000000
  16 H    0.030540    0.000000
  17 C    0.099717    0.000000
  18 C   -0.002009    0.000000
  19 H    0.078467    0.000000
  20 C   -0.073588    0.000000
  21 C   -0.027881    0.000000
  22 S    0.133098    0.000000
  23 C   -0.026657    0.000000
  24 H    0.068405    0.000000
  25 H    0.070166    0.000000
  26 H    0.078256    0.000000
  27 H    0.083040    0.000000
  28 H    0.083667    0.000000
  29 H    0.094062    0.000000
  30 O   -0.255712    0.000000
  31 O   -0.257299    0.000000
  32 C    0.242316    0.000000
  33 C   -0.067012    0.000000
  34 H    0.054589    0.000000
  35 H    0.059656    0.000000
  36 H    0.048488    0.000000
  37 H    0.084220    0.000000
  38 H    0.077786    0.000000

  TOTAL   0.999093    0.000000

-------
TIMINGS
-------

Total SCF time: 0 days 0 hours 4 min 31 sec 

Total time                  ....     271.274 sec
Sum of individual times     ....     270.792 sec  ( 99.8%)

Fock matrix formation       ....     263.356 sec  ( 97.1%)
  Split-RI-J                ....      20.599 sec  (  7.8% of F)
  Chain of spheres X        ....     229.929 sec  ( 87.3% of F)
  XC integration            ....      12.631 sec  (  4.8% of F)
    Basis function eval.    ....       5.881 sec  ( 46.6% of XC)
    Density eval.           ....       3.414 sec  ( 27.0% of XC)
    XC-Functional eval.     ....       0.941 sec  (  7.5% of XC)
    XC-Potential eval.      ....       1.894 sec  ( 15.0% of XC)
Diagonalization             ....       0.210 sec  (  0.1%)
Density matrix formation    ....       0.034 sec  (  0.0%)
Population analysis         ....       1.169 sec  (  0.4%)
Initial guess               ....       0.024 sec  (  0.0%)
Orbital Transformation      ....       0.000 sec  (  0.0%)
Orbital Orthonormalization  ....       0.018 sec  (  0.0%)
DIIS solution               ....       0.093 sec  (  0.0%)
Grid generation             ....       5.906 sec  (  2.2%)

Maximum memory used throughout the entire SCF-calculation: 173.6 MB


-------------------------------------------------------------------------------
                          DFT DISPERSION CORRECTION                            
                                                                               
                              DFTD3 V3.1  Rev 1                                
                          USING Becke-Johnson damping                          
-------------------------------------------------------------------------------
The PBEh-3c composite method is recognized
Using three-body term ABC
Active option DFTDOPT                   ...         4   

molecular C6(AA) [au] = 19551.127904 


            DFT-D V3
 parameters
 s6 scaling factor         :     1.0000 
 a1 scaling factor         :     0.4860 
 s8 scaling factor         :     0.0000 
 a2 scaling factor         :     4.5000 
 Damping factor alpha9(ATM):    16.0000 
 ad hoc parameters k1-k3   :    16.0000     1.3333    -4.0000 

 Edisp/kcal,au: -19.351667792344  -0.030838842325 
 E6   /kcal   : -19.698564354 
 E8   /kcal   :  -0.000000000 
 E6(ABC)      :   0.346896561 
 % E8         :   0.000000000 
 % E6(ABC)    :  -1.792592583 

-------------------------   ----------------
Dispersion correction           -0.030838842
-------------------------   ----------------

 ** NOTE ** -> element ir will be treated as co
NOTIFICATION: Different basis set in ORCA and otool_gcp:
ORCA: 358  gCP: 357 
If you are NOT using ECPs, check your basis set inputs!
------------------   -----------------
gCP correction             0.079086816
------------------   -----------------

-------------------------   --------------------
FINAL SINGLE POINT ENERGY     -1288.399897796080
-------------------------   --------------------

                                *** OPTIMIZATION RUN DONE ***

                            ***************************************
                            *     ORCA property calculations      *
                            ***************************************

                                    ---------------------
                                    Active property flags
                                    ---------------------
   (+) Dipole Moment


------------------------------------------------------------------------------
                       ORCA ELECTRIC PROPERTIES CALCULATION
------------------------------------------------------------------------------

Dipole Moment Calculation                       ... on
Quadrupole Moment Calculation                   ... off
Polarizability Calculation                      ... off
GBWName                                         ... reaction4-IEIP_ts_guess_scan_6-5_orca.gbw
Electron density                                ... reaction4-IEIP_ts_guess_scan_6-5_orca.scfp
The origin for moment calculation is the CENTER OF MASS  = ( 0.861300, -0.606056 -0.150329)

-------------
DIPOLE MOMENT
-------------
                                X             Y             Z
Electronic contribution:     37.31410     -68.44916      73.10872
Nuclear contribution   :    -37.94194      67.34935     -73.44312
                        -----------------------------------------
Total Dipole Moment    :     -0.62784      -1.09981      -0.33440
                        -----------------------------------------
Magnitude (a.u.)       :      1.30980
Magnitude (Debye)      :      3.32926



--------------------
Rotational spectrum 
--------------------
 
Rotational constants in cm-1:     0.010624     0.009078     0.008218 
Rotational constants in MHz :   318.502564   272.166342   246.373300 

 Dipole components along the rotational axes: 
x,y,z [a.u.] :    -0.226724    -0.368801     1.236191 
x,y,z [Debye]:    -0.576287    -0.937419     3.142148 

 

Timings for individual modules:

Sum of individual times         ...     7111.406 sec (= 118.523 min)
GTO integral calculation        ...       22.517 sec (=   0.375 min)   0.3 %
SCF iterations                  ...     5608.877 sec (=  93.481 min)  78.9 %
SCF Gradient evaluation         ...     1476.406 sec (=  24.607 min)  20.8 %
Geometry relaxation             ...        3.606 sec (=   0.060 min)   0.1 %
                             ****ORCA TERMINATED NORMALLY****
TOTAL RUN TIME: 0 days 1 hours 58 minutes 36 seconds 616 msec
