
                                 *****************
                                 * O   R   C   A *
                                 *****************

                                            #,                                       
                                            ###                                      
                                            ####                                     
                                            #####                                    
                                            ######                                   
                                           ########,                                 
                                     ,,################,,,,,                         
                               ,,#################################,,                 
                          ,,##########################################,,             
                       ,#########################################, ''#####,          
                    ,#############################################,,   '####,        
                  ,##################################################,,,,####,       
                ,###########''''           ''''###############################       
              ,#####''   ,,,,##########,,,,          '''####'''          '####       
            ,##' ,,,,###########################,,,                        '##       
           ' ,,###''''                  '''############,,,                           
         ,,##''                                '''############,,,,        ,,,,,,###''
      ,#''                                            '''#######################'''  
     '                                                          ''''####''''         
             ,#######,   #######,   ,#######,      ##                                
            ,#'     '#,  ##    ##  ,#'     '#,    #''#        ######   ,####,        
            ##       ##  ##   ,#'  ##            #'  '#       #        #'  '#        
            ##       ##  #######   ##           ,######,      #####,   #    #        
            '#,     ,#'  ##    ##  '#,     ,#' ,#      #,         ##   #,  ,#        
             '#######'   ##     ##  '#######'  #'      '#     #####' # '####'        



                  #######################################################
                  #                        -***-                        #
                  #          Department of theory and spectroscopy      #
                  #    Directorship and core code : Frank Neese         #
                  #        Max Planck Institute fuer Kohlenforschung    #
                  #                Kaiser Wilhelm Platz 1               #
                  #                 D-45470 Muelheim/Ruhr               #
                  #                      Germany                        #
                  #                                                     #
                  #                  All rights reserved                #
                  #                        -***-                        #
                  #######################################################


                         Program Version 5.0.3 -  RELEASE  -


 With contributions from (in alphabetic order):
   Daniel Aravena         : Magnetic Suceptibility
   Michael Atanasov       : Ab Initio Ligand Field Theory (pilot matlab implementation)
   Alexander A. Auer      : GIAO ZORA, VPT2 properties, NMR spectrum
   Ute Becker             : Parallelization
   Giovanni Bistoni       : ED, misc. LED, open-shell LED, HFLD
   Martin Brehm           : Molecular dynamics
   Dmytro Bykov           : SCF Hessian
   Vijay G. Chilkuri      : MRCI spin determinant printing, contributions to CSF-ICE
   Dipayan Datta          : RHF DLPNO-CCSD density
   Achintya Kumar Dutta   : EOM-CC, STEOM-CC
   Dmitry Ganyushin       : Spin-Orbit,Spin-Spin,Magnetic field MRCI
   Miquel Garcia          : C-PCM and meta-GGA Hessian, CC/C-PCM, Gaussian charge scheme
   Yang Guo               : DLPNO-NEVPT2, F12-NEVPT2, CIM, IAO-localization
   Andreas Hansen         : Spin unrestricted coupled pair/coupled cluster methods
   Benjamin Helmich-Paris : MC-RPA, TRAH-SCF, COSX integrals
   Lee Huntington         : MR-EOM, pCC
   Robert Izsak           : Overlap fitted RIJCOSX, COSX-SCS-MP3, EOM
   Marcus Kettner         : VPT2
   Christian Kollmar      : KDIIS, OOCD, Brueckner-CCSD(T), CCSD density, CASPT2, CASPT2-K
   Simone Kossmann        : Meta GGA functionals, TD-DFT gradient, OOMP2, MP2 Hessian
   Martin Krupicka        : Initial AUTO-CI
   Lucas Lang             : DCDCAS
   Marvin Lechner         : AUTO-CI (C++ implementation), FIC-MRCC
   Dagmar Lenk            : GEPOL surface, SMD
   Dimitrios Liakos       : Extrapolation schemes; Compound Job, initial MDCI parallelization
   Dimitrios Manganas     : Further ROCIS development; embedding schemes
   Dimitrios Pantazis     : SARC Basis sets
   Anastasios Papadopoulos: AUTO-CI, single reference methods and gradients
   Taras Petrenko         : DFT Hessian,TD-DFT gradient, ASA, ECA, R-Raman, ABS, FL, XAS/XES, NRVS
   Peter Pinski           : DLPNO-MP2, DLPNO-MP2 Gradient
   Christoph Reimann      : Effective Core Potentials
   Marius Retegan         : Local ZFS, SOC
   Christoph Riplinger    : Optimizer, TS searches, QM/MM, DLPNO-CCSD(T), (RO)-DLPNO pert. Triples
   Tobias Risthaus        : Range-separated hybrids, TD-DFT gradient, RPA, STAB
   Michael Roemelt        : Original ROCIS implementation
   Masaaki Saitow         : Open-shell DLPNO-CCSD energy and density
   Barbara Sandhoefer     : DKH picture change effects
   Avijit Sen             : IP-ROCIS
   Kantharuban Sivalingam : CASSCF convergence, NEVPT2, FIC-MRCI
   Bernardo de Souza      : ESD, SOC TD-DFT
   Georgi Stoychev        : AutoAux, RI-MP2 NMR, DLPNO-MP2 response
   Willem Van den Heuvel  : Paramagnetic NMR
   Boris Wezisla          : Elementary symmetry handling
   Frank Wennmohs         : Technical directorship


 We gratefully acknowledge several colleagues who have allowed us to
 interface, adapt or use parts of their codes:
   Stefan Grimme, W. Hujo, H. Kruse, P. Pracht,  : VdW corrections, initial TS optimization,
                  C. Bannwarth, S. Ehlert          DFT functionals, gCP, sTDA/sTD-DF
   Ed Valeev, F. Pavosevic, A. Kumar             : LibInt (2-el integral package), F12 methods
   Garnet Chan, S. Sharma, J. Yang, R. Olivares  : DMRG
   Ulf Ekstrom                                   : XCFun DFT Library
   Mihaly Kallay                                 : mrcc  (arbitrary order and MRCC methods)
   Jiri Pittner, Ondrej Demel                    : Mk-CCSD
   Frank Weinhold                                : gennbo (NPA and NBO analysis)
   Christopher J. Cramer and Donald G. Truhlar   : smd solvation model
   Lars Goerigk                                  : TD-DFT with DH, B97 family of functionals
   V. Asgeirsson, H. Jonsson                     : NEB implementation
   FAccTs GmbH                                   : IRC, NEB, NEB-TS, DLPNO-Multilevel, CI-OPT
                                                   MM, QMMM, 2- and 3-layer-ONIOM, Crystal-QMMM,
                                                   LR-CPCM, SF, NACMEs, symmetry and pop. for TD-DFT,
                                                   nearIR, NL-DFT gradient (VV10), updates on ESD,
                                                   ML-optimized integration grids
   S Lehtola, MJT Oliveira, MAL Marques          : LibXC Library
   Liviu Ungur et al                             : ANISO software


 Your calculation uses the libint2 library for the computation of 2-el integrals
 For citations please refer to: http://libint.valeyev.net

 Your ORCA version has been built with support for libXC version: 5.1.0
 For citations please refer to: https://tddft.org/programs/libxc/

 This ORCA versions uses:
   CBLAS   interface :  Fast vector & matrix operations
   LAPACKE interface :  Fast linear algebra routines
   SCALAPACK package :  Parallel linear algebra routines
   Shared memory     :  Shared parallel matrices
   BLAS/LAPACK       :  OpenBLAS 0.3.15  USE64BITINT DYNAMIC_ARCH NO_AFFINITY SkylakeX SINGLE_THREADED
        Core in use  :  SkylakeX
   Copyright (c) 2011-2014, The OpenBLAS Project


Your calculation utilizes the geometrical counterpoise correction gCP
Please cite in your paper:
H.Kruse, S. Grimme J.Chem.Phys., 136, (2012), 154101 
   

Your calculation utilizes the atom-pairwise dispersion correction
with the Becke-Johnson damping scheme (D3BJ)
Cite in your paper:
S.Grimme, S.Ehrlich, L.Goerigk, J Comput Chem, (2011), 32, 1456–1465 
S.Grimme, J.Antony, S.Ehrlich and H.Krieg, J.Chem.Phys., 132, (2010), 154104 
   

Your calculation employs the composite approach PBEh-3c.
Please cite in your paper:
S. Grimme, J. G. Brandenburg, C. Bannwarth, A. Hansen J.Chem.Phys., 143, (2015), 054107 
   

================================================================================

cite the ECPs for Ir [Def2-ECP] as follows:
Ce-Yb(ecp-28): M. Dolg, H. Stoll, H.Preuss, J. Chem. Phys., 1989, 90, 1730-1734.
Y-Cd(ecp-28), Hf-Hg(ecp-46): D. Andrae,U. Haeussermann, M. Dolg, H. Stoll, H. Preuss, Theor. Chim. Acta, 1990, 77, 123-141.
In-Sb(ecp-28), Tl-Bi(ecp-46): B. Metz, H. Stoll, M. Dolg, J. Chem. Phys., 2000, 113, 2563-2569.
Te-Xe(ecp-28), Po-Rn(ecp-46): K. A. Peterson, D. Figgen, E. Goll, H. Stoll, M. Dolg, J. Chem. Phys., 2003, 119, 11113-11123.
Rb(ecp-28), Cs(ecp-46): T. Leininger, A. Nicklass, W. Kuechle, H. Stoll, M. Dolg, A. Bergner, Chem. Phys. Lett., 1996, 255, 274-280.
Sr(ecp-28), Ba(ecp-46): M. Kaupp, P. V. Schleyer, H. Stoll and H. Preuss, J. Chem. Phys., 1991, 94, 1360-1366.
La(ecp-46): M. Dolg, H. Stoll, A. Savin, H. Preuss, Theor. Chim. Acta, 1989, 75, 173-194.
Lu(ecp-28): X. Cao, M. Dolg, J. Chem. Phys., 2001, 115, 7348-7355.

ECP parameters for Ir [Def2-ECP] have been obtained from:
TURBOMOLE (7.0.2)

----- Orbital basis set information -----
Your calculation utilizes the basis: def2-mSVP

----- AuxJ basis set information -----
Your calculation utilizes the auxiliary basis: def2/J
   F. Weigend, Phys. Chem. Chem. Phys. 8, 1057 (2006).

================================================================================
                                        WARNINGS
                       Please study these warnings very carefully!
================================================================================


WARNING: Geometry Optimization
  ===> : Switching off AutoStart
         For restart on a previous wavefunction, please use MOREAD

WARNING: No Hueckel Guess possible with ECP basis!
  ===> : Switching to HCORE guess!

INFO   : the flag for use of the SHARK integral package has been found!

================================================================================
                                       INPUT FILE
================================================================================
NAME = reaction4-IEIP_ts_guess_scan_11-8_orca.inp
|  1> ! Opt PBEh-3c
|  2> %geom Constraints
|  3> { B 0 20 2.1285714285714286 C }
|  4> { B 24 30 1.3857142857142857 C }
|  5>     end
|  6> end
|  7> %output 
|  8> xyzfile=True 
|  9> end 
| 10> %scf 
| 11> maxiter 250 
| 12> end
| 13> %output
| 14> Print[P_Hirshfeld] = 1
| 15> end
| 16> % maxcore
| 17> 4000
| 18> *xyz 1 1
| 19> Ir   0.61440176  -0.72534433   0.43358213 
| 20> C    0.12892803  -2.83763261   0.34323349 
| 21> C   -0.05529193  -2.37597875   1.69458029 
| 22> C    2.16652401  -2.07725794   1.12450276 
| 23> C    1.48494621  -2.65801575  -0.00245231 
| 24> C    1.21064144  -1.93471903   2.16238352 
| 25> N   -1.06200888   0.12444923  -0.51019437 
| 26> C   -2.33554741   0.33723363   0.19483951 
| 27> C   -3.13030356   1.52855218  -0.32084045 
| 28> H   -3.96070016   1.71760771   0.35769669 
| 29> H   -3.56683617   1.35338164  -1.30507461 
| 30> H   -2.52696891   2.43575741  -0.35996311 
| 31> C   -3.15959870  -0.94475495   0.14627015 
| 32> H   -2.05575524   0.53747297   1.23009846 
| 33> H   -4.06726788  -0.82461333   0.73631039 
| 34> H   -3.45566098  -1.18330128  -0.87608397 
| 35> H   -2.61629776  -1.79700042   0.55109486 
| 36> C   -0.90769137   0.45553644  -1.73884853 
| 37> C    0.41236868   0.28065505  -2.26896463 
| 38> H   -1.71715350   0.87153755  -2.33033933 
| 39> C    1.46949664   0.12141074  -1.37388038 
| 40> C    2.67499554  -0.14607853  -2.09130710 
| 41> S    0.87432504   0.13149404  -3.89480829 
| 42> C    2.50002627  -0.16361970  -3.44152167 
| 43> H    1.62441037   1.13758144  -0.61235998 
| 44> H    3.64276981  -0.25944888  -1.62467055 
| 45> H    3.24907410  -0.31329737  -4.20418951 
| 46> H   -0.63289228  -3.26035985  -0.29547488 
| 47> H   -0.96455176  -2.42053088   2.27453229 
| 48> H    1.40007159  -1.49300978   3.13059152 
| 49> O    1.71889712   2.30556569   0.15372424 
| 50> O    0.55177098   1.01457763   1.54028087 
| 51> C    1.11482667   2.11371694   1.22257414 
| 52> C    1.05031798   3.21913287   2.23562966 
| 53> H    0.94007969   4.18221578   1.74248622 
| 54> H    1.99069942   3.24607092   2.78876696 
| 55> H    0.24282241   3.06786408   2.94653879 
| 56> H    3.22007814  -1.85502590   1.19455690 
| 57> H    1.93142454  -2.91263477  -0.95256011 
| 58> *
| 59> 
| 60>                          ****END OF INPUT****
================================================================================

                       *****************************
                       * Geometry Optimization Run *
                       *****************************

Geometry optimization settings:
Update method            Update   .... BFGS
Choice of coordinates    CoordSys .... Z-matrix Internals
Initial Hessian          InHess   .... Almoef's Model

Convergence Tolerances:
Energy Change            TolE     ....  5.0000e-06 Eh
Max. Gradient            TolMAXG  ....  3.0000e-04 Eh/bohr
RMS Gradient             TolRMSG  ....  1.0000e-04 Eh/bohr
Max. Displacement        TolMAXD  ....  4.0000e-03 bohr
RMS Displacement         TolRMSD  ....  2.0000e-03 bohr
Strict Convergence                ....  False
------------------------------------------------------------------------------
                        ORCA OPTIMIZATION COORDINATE SETUP
------------------------------------------------------------------------------

The optimization will be done in new redundant internal coordinates
Making redundant internal coordinates   ...  (new redundants) done
Evaluating the initial hessian          ...  (Almloef) done
Evaluating the coordinates              ...  done
Calculating the B-matrix                .... done
Calculating the G-matrix                .... done
Diagonalizing the G-matrix              .... done
Imposing constraints:
 Iter   0:  RMS(Cart)=    0.0183359210 RMS(Int)=    0.0068714152
 Iter   1:  RMS(Cart)=    0.0021060802 RMS(Int)=    0.0008231934
 Iter   2:  RMS(Cart)=    0.0002517361 RMS(Int)=    0.0000981906
 Iter   3:  RMS(Cart)=    0.0000299738 RMS(Int)=    0.0000116561
 Iter   4:  RMS(Cart)=    0.0000035553 RMS(Int)=    0.0000013806
 Iter   5:  RMS(Cart)=    0.0000004210 RMS(Int)=    0.0000001634
 Iter   6:  RMS(Cart)=    0.0000000498 RMS(Int)=    0.0000000193
CONVERGED
Small eigenvalue found = 1.416e-02
Small eigenvalue found = 2.181e-02
The first mode is                       ....  280
The number of degrees of freedom        ....  111
Storing new coordinates                 .... done

    -----------------------------------------------------------------
                    Redundant Internal Coordinates


    -----------------------------------------------------------------
         Definition                    Initial Value    Approx d2E/dq
    -----------------------------------------------------------------
      1. B(C   1,Ir  0)                  2.1691         0.083073   
      2. B(C   2,C   1)                  1.4397         0.520222   
      3. B(C   2,Ir  0)                  2.1822         0.079131   
      4. B(C   3,Ir  0)                  2.1710         0.082476   
      5. B(C   4,C   3)                  1.4392         0.521115   
      6. B(C   4,Ir  0)                  2.1639         0.084667   
      7. B(C   4,C   1)                  1.4112         0.578690   
      8. B(C   5,Ir  0)                  2.1920         0.076283   
      9. B(C   5,C   2)                  1.4209         0.559787   
     10. B(C   5,C   3)                  1.4192         0.563358   
     11. B(N   6,Ir  0)                  2.1036         0.094853   
     12. B(C   7,N   6)                  1.4711         0.415359   
     13. B(C   8,C   7)                  1.5221         0.384569   
     14. B(H   9,C   8)                  1.0889         0.361552   
     15. B(H  10,C   8)                  1.0909         0.358972   
     16. B(H  11,C   8)                  1.0902         0.359818   
     17. B(C  12,C   7)                  1.5248         0.380826   
     18. B(H  13,C   7)                  1.0909         0.358864   
     19. B(H  14,C  12)                  1.0892         0.361106   
     20. B(H  15,C  12)                  1.0908         0.359091   
     21. B(H  16,C  12)                  1.0888         0.361755   
     22. B(C  17,N   6)                  1.2768         0.832710   
     23. B(C  18,C  17)                  1.4284         0.533038   
     24. B(H  19,C  17)                  1.0854         0.366203   
     25. B(C  20,Ir  0)                  2.1286         0.082408 C 
     26. B(C  20,C  18)                  1.3951         0.615019   
     27. B(C  21,C  20)                  1.4288         0.543184   
     28. B(S  22,C  18)                  1.6967         0.545856   
     29. B(C  23,C  21)                  1.3615         0.693460   
     30. B(C  23,S  22)                  1.7125         0.513653   
     31. B(H  24,C  20)                  1.2797         0.179666   
     32. B(H  25,C  21)                  1.0804         0.373074   
     33. B(H  26,C  23)                  1.0795         0.374377   
     34. B(H  27,C   1)                  1.0803         0.373183   
     35. B(H  28,C   2)                  1.0794         0.374413   
     36. B(H  29,C   5)                  1.0809         0.372296   
     37. B(O  30,H  24)                  1.3857         0.103270 C 
     38. B(O  31,Ir  0)                  2.0626         0.109919   
     39. B(C  32,O  30)                  1.2428         0.961576   
     40. B(C  32,O  31)                  1.2749         0.853234   
     41. B(C  33,C  32)                  1.5008         0.415883   
     42. B(H  34,C  33)                  1.0876         0.363290   
     43. B(H  35,C  33)                  1.0913         0.358343   
     44. B(H  36,C  33)                  1.0864         0.364858   
     45. B(H  37,C   3)                  1.0790         0.374930   
     46. B(H  38,C   4)                  1.0802         0.373271   
     47. A(C   1,Ir  0,N   6)          101.2853         0.248751   
     48. A(C   1,Ir  0,C   3)           64.3610         0.244890   
     49. A(C   2,Ir  0,N   6)          108.5945         0.247003   
     50. A(C   2,Ir  0,C   5)           37.9112         0.240484   
     51. A(N   6,Ir  0,O  31)           82.8465         0.257987   
     52. A(C  20,Ir  0,O  31)           97.4614         0.253871   
     53. A(C   2,Ir  0,C  20)          153.6913         0.243155   
     54. A(C   2,Ir  0,O  31)          108.5918         0.252364   
     55. A(C   1,Ir  0,C   5)           63.7005         0.242160   
     56. A(C   3,Ir  0,C   4)           38.7798         0.245562   
     57. A(C   2,Ir  0,C   3)           64.2430         0.243184   
     58. A(C   3,Ir  0,C  20)          102.9458         0.244607   
     59. A(C   4,Ir  0,N   6)          126.2357         0.249440   
     60. A(C   1,Ir  0,O  31)          146.8172         0.254171   
     61. A(C   5,Ir  0,O  31)           92.8932         0.251015   
     62. A(C   5,Ir  0,C  20)          139.7559         0.241882   
     63. A(C   4,Ir  0,C  20)           91.1904         0.245533   
     64. A(C   2,Ir  0,C   4)           64.2009         0.244102   
     65. A(C   1,Ir  0,C  20)          115.6431         0.244861   
     66. A(C   3,Ir  0,N   6)          164.6180         0.248491   
     67. A(C   1,Ir  0,C   4)           38.0152         0.245818   
     68. A(C   4,Ir  0,O  31)          150.8827         0.254883   
     69. A(C   1,Ir  0,C   2)           38.6422         0.243436   
     70. A(C   3,Ir  0,O  31)          112.1109         0.253902   
     71. A(C   5,Ir  0,N   6)          142.4514         0.245698   
     72. A(C   3,Ir  0,C   5)           37.9629         0.241911   
     73. A(N   6,Ir  0,C  20)           77.6134         0.248461   
     74. A(C   4,Ir  0,C   5)           63.7169         0.242821   
     75. A(C   2,C   1,H  27)          126.1510         0.344690   
     76. A(Ir  0,C   1,C   2)           71.1725         0.312083   
     77. A(C   2,C   1,C   4)          108.2102         0.415495   
     78. A(C   4,C   1,H  27)          125.6350         0.350929   
     79. A(Ir  0,C   1,H  27)          124.3071         0.267968   
     80. A(Ir  0,C   1,C   4)           70.7941         0.317527   
     81. A(Ir  0,C   2,C   1)           70.1854         0.309642   
     82. A(Ir  0,C   2,C   5)           71.4157         0.313333   
     83. A(C   1,C   2,C   5)          107.1232         0.413050   
     84. A(Ir  0,C   2,H  28)          126.8898         0.266141   
     85. A(C   5,C   2,H  28)          125.9575         0.349162   
     86. A(C   1,C   2,H  28)          126.7818         0.344881   
     87. A(C   4,C   3,C   5)          107.0991         0.413643   
     88. A(Ir  0,C   3,C   4)           70.3452         0.311806   
     89. A(Ir  0,C   3,C   5)           71.8198         0.315772   
     90. A(Ir  0,C   3,H  37)          126.1972         0.267865   
     91. A(C   5,C   3,H  37)          126.1735         0.349618   
     92. A(C   4,C   3,H  37)          126.6015         0.345060   
     93. A(Ir  0,C   4,C   1)           71.1907         0.318512   
     94. A(Ir  0,C   4,H  38)          123.6513         0.268749   
     95. A(Ir  0,C   4,C   3)           70.8749         0.313132   
     96. A(C   3,C   4,H  38)          125.9946         0.344803   
     97. A(C   1,C   4,C   3)          108.3681         0.415622   
     98. A(C   1,C   4,H  38)          125.6372         0.350943   
     99. A(Ir  0,C   5,H  29)          121.9095         0.264452   
    100. A(Ir  0,C   5,C   2)           70.6731         0.311480   
    101. A(C   3,C   5,H  29)          125.3476         0.349202   
    102. A(Ir  0,C   5,C   3)           70.2172         0.311801   
    103. A(C   2,C   5,C   3)          109.1717         0.418946   
    104. A(C   2,C   5,H  29)          125.3397         0.348828   
    105. A(Ir  0,N   6,C  17)          115.8972         0.340790   
    106. A(C   7,N   6,C  17)          121.8088         0.420394   
    107. A(Ir  0,N   6,C   7)          122.2926         0.304114   
    108. A(C   8,C   7,H  13)          108.1653         0.325684   
    109. A(C  12,C   7,H  13)          108.8538         0.325161   
    110. A(N   6,C   7,C   8)          113.7565         0.369538   
    111. A(N   6,C   7,C  12)          109.3282         0.368918   
    112. A(C   8,C   7,C  12)          111.4123         0.366363   
    113. A(N   6,C   7,H  13)          105.0293         0.327865   
    114. A(C   7,C   8,H   9)          108.8419         0.326085   
    115. A(C   7,C   8,H  10)          112.8891         0.325701   
    116. A(H   9,C   8,H  10)          106.5553         0.290880   
    117. A(C   7,C   8,H  11)          111.9930         0.325827   
    118. A(H   9,C   8,H  11)          107.4526         0.290988   
    119. A(H  10,C   8,H  11)          108.8265         0.290660   
    120. A(C   7,C  12,H  14)          109.8990         0.325494   
    121. A(C   7,C  12,H  15)          111.1259         0.325195   
    122. A(H  14,C  12,H  15)          107.7983         0.290839   
    123. A(C   7,C  12,H  16)          112.1235         0.325590   
    124. A(H  14,C  12,H  16)          107.5027         0.291177   
    125. A(H  15,C  12,H  16)          108.2258         0.290921   
    126. A(N   6,C  17,C  18)          115.0657         0.442552   
    127. A(N   6,C  17,H  19)          122.4299         0.369874   
    128. A(C  18,C  17,H  19)          122.4764         0.345006   
    129. A(C  17,C  18,S  22)          127.9555         0.435732   
    130. A(C  20,C  18,S  22)          113.6724         0.447143   
    131. A(C  17,C  18,C  20)          118.2267         0.421854   
    132. A(C  18,C  20,C  21)          109.5411         0.423278   
    133. A(Ir  0,C  20,H  24)           82.0451         0.240402   
    134. A(C  18,C  20,H  24)          112.5873         0.314070   
    135. A(C  21,C  20,H  24)          110.2905         0.307831   
    136. A(Ir  0,C  20,C  18)          106.9962         0.320277   
    137. A(Ir  0,C  20,C  21)          132.1748         0.313866   
    138. A(C  20,C  21,C  23)          113.2374         0.432484   
    139. A(C  20,C  21,H  25)          123.9021         0.347185   
    140. A(C  23,C  21,H  25)          122.7436         0.361860   
    141. A(C  18,S  22,C  23)           91.0895         0.456975   
    142. A(C  21,C  23,S  22)          112.4556         0.451977   
    143. A(C  21,C  23,H  26)          127.8276         0.362076   
    144. A(S  22,C  23,H  26)          119.6987         0.362052   
    145. A(Ir  0,O  31,C  32)          125.2332         0.350771   
    146. A(O  30,C  32,O  31)          124.1201         0.491950   
    147. A(O  30,C  32,C  33)          119.2334         0.434303   
    148. A(O  31,C  32,C  33)          116.6350         0.425086   
    149. A(C  32,C  33,H  34)          110.5187         0.330585   
    150. A(C  32,C  33,H  35)          108.8611         0.329836   
    151. A(H  34,C  33,H  35)          107.1753         0.291019   
    152. A(C  32,C  33,H  36)          111.7829         0.330820   
    153. A(H  34,C  33,H  36)          110.1611         0.291845   
    154. A(H  35,C  33,H  36)          108.1938         0.291216   
    155. D(C   2,C   1,Ir  0,N   6)   -105.7300         0.001690   
    156. D(C   4,C   1,Ir  0,C   2)   -117.9308         0.001690   
    157. D(H  27,C   1,Ir  0,C   3)   -158.4211         0.001690   
    158. D(C   4,C   1,Ir  0,C  20)     54.7830         0.001690   
    159. D(C   2,C   1,Ir  0,C   3)     80.1206         0.001690   
    160. D(C   4,C   1,Ir  0,N   6)    136.3392         0.001690   
    161. D(H  27,C   1,Ir  0,C   2)    121.4583         0.001690   
    162. D(C   2,C   1,Ir  0,O  31)    -11.5358         0.001690   
    163. D(H  27,C   1,Ir  0,N   6)     15.7283         0.001690   
    164. D(C   2,C   1,Ir  0,C  20)    172.7139         0.001690   
    165. D(C   4,C   1,Ir  0,C   3)    -37.8102         0.001690   
    166. D(H  27,C   1,Ir  0,C  20)    -65.8278         0.001690   
    167. D(H  27,C   1,Ir  0,C   4)   -120.6108         0.001690   
    168. D(H  27,C   1,Ir  0,O  31)    109.9226         0.001690   
    169. D(C   2,C   1,Ir  0,C   5)     37.7060         0.001690   
    170. D(H  27,C   1,Ir  0,C   5)    159.1643         0.001690   
    171. D(C   4,C   1,Ir  0,C   5)    -80.2248         0.001690   
    172. D(C   4,C   1,Ir  0,O  31)   -129.4666         0.001690   
    173. D(C   2,C   1,Ir  0,C   4)    117.9308         0.001690   
    174. D(H  28,C   2,Ir  0,C   5)    121.4803         0.001673   
    175. D(H  28,C   2,C   1,C   4)   -176.7364         0.021478   
    176. D(C   5,C   2,C   1,H  27)    178.5066         0.021478   
    177. D(C   1,C   2,Ir  0,N   6)     84.8273         0.001673   
    178. D(C   1,C   2,Ir  0,C   3)    -80.4525         0.001673   
    179. D(Ir  0,C   2,C   1,C   4)     61.4415         0.021478   
    180. D(H  28,C   2,Ir  0,C   1)   -121.6913         0.001673   
    181. D(H  28,C   2,Ir  0,C  20)   -136.6409         0.001673   
    182. D(C   1,C   2,Ir  0,C   5)   -116.8284         0.001673   
    183. D(C   5,C   2,Ir  0,C   3)     36.3759         0.001673   
    184. D(H  28,C   2,Ir  0,C   4)   -158.8749         0.001673   
    185. D(H  28,C   2,Ir  0,C   3)    157.8561         0.001673   
    186. D(Ir  0,C   2,C   1,H  27)   -119.2343         0.021478   
    187. D(C   1,C   2,Ir  0,C   4)    -37.1835         0.001673   
    188. D(C   5,C   2,Ir  0,C   1)    116.8284         0.001673   
    189. D(C   1,C   2,Ir  0,C  20)    -14.9496         0.001673   
    190. D(C   5,C   2,Ir  0,O  31)    -69.8028         0.001673   
    191. D(C   5,C   2,Ir  0,N   6)   -158.3444         0.001673   
    192. D(H  28,C   2,C   1,Ir  0)    121.8221         0.021478   
    193. D(C   5,C   2,C   1,Ir  0)    -62.2591         0.021478   
    194. D(C   1,C   2,Ir  0,O  31)    173.3688         0.001673   
    195. D(C   5,C   2,Ir  0,C  20)    101.8788         0.001673   
    196. D(H  28,C   2,Ir  0,N   6)    -36.8641         0.001673   
    197. D(C   5,C   2,Ir  0,C   4)     79.6449         0.001673   
    198. D(C   5,C   2,C   1,C   4)     -0.8176         0.021478   
    199. D(H  28,C   2,Ir  0,O  31)     51.6775         0.001673   
    200. D(H  28,C   2,C   1,H  27)      2.5878         0.021478   
    201. D(C   4,C   3,Ir  0,N   6)     14.9320         0.001687   
    202. D(C   5,C   3,Ir  0,C   1)    -79.4102         0.001687   
    203. D(H  37,C   3,Ir  0,C   5)   -121.9719         0.001687   
    204. D(H  37,C   3,Ir  0,C   2)   -158.2989         0.001687   
    205. D(C   4,C   3,Ir  0,O  31)   -179.1219         0.001687   
    206. D(H  37,C   3,Ir  0,N   6)    136.4783         0.001687   
    207. D(C   5,C   3,Ir  0,C  20)    168.1186         0.001687   
    208. D(H  37,C   3,Ir  0,C   1)    158.6178         0.001687   
    209. D(H  37,C   3,Ir  0,C   4)    121.5464         0.001687   
    210. D(C   4,C   3,Ir  0,C   5)    116.4817         0.001687   
    211. D(C   5,C   3,Ir  0,C   4)   -116.4817         0.001687   
    212. D(C   5,C   3,Ir  0,O  31)     64.3964         0.001687   
    213. D(C   4,C   3,Ir  0,C  20)    -75.3997         0.001687   
    214. D(C   4,C   3,Ir  0,C   1)     37.0715         0.001687   
    215. D(C   4,C   3,Ir  0,C   2)     80.1547         0.001687   
    216. D(C   5,C   3,Ir  0,N   6)   -101.5497         0.001687   
    217. D(C   5,C   3,Ir  0,C   2)    -36.3270         0.001687   
    218. D(H  37,C   3,Ir  0,C  20)     46.1467         0.001687   
    219. D(H  37,C   3,Ir  0,O  31)    -57.5755         0.001687   
    220. D(C   1,C   4,Ir  0,C  20)   -132.5517         0.001697   
    221. D(C   1,C   4,Ir  0,C   2)     37.7918         0.001697   
    222. D(C   3,C   4,Ir  0,C   2)    -80.2724         0.001697   
    223. D(C   1,C   4,Ir  0,C   5)     80.1780         0.001697   
    224. D(C   1,C   4,Ir  0,N   6)    -57.0749         0.001697   
    225. D(C   3,C   4,Ir  0,C   5)    -37.8862         0.001697   
    226. D(C   3,C   4,Ir  0,C   1)   -118.0642         0.001697   
    227. D(C   1,C   4,Ir  0,O  31)    119.7363         0.001697   
    228. D(C   1,C   4,Ir  0,C   3)    118.0642         0.001697   
    229. D(H  38,C   4,C   1,Ir  0)   -118.4315         0.026834   
    230. D(C   3,C   4,Ir  0,C  20)    109.3841         0.001697   
    231. D(C   3,C   4,Ir  0,O  31)      1.6721         0.001697   
    232. D(Ir  0,C   4,C   1,C   2)    -61.6823         0.026834   
    233. D(H  38,C   4,Ir  0,C   1)    120.8433         0.001697   
    234. D(H  38,C   4,Ir  0,C   3)   -121.0926         0.001697   
    235. D(H  38,C   4,Ir  0,C   5)   -158.9788         0.001697   
    236. D(H  38,C   4,Ir  0,N   6)     63.7683         0.001697   
    237. D(H  38,C   4,Ir  0,C  20)    -11.7085         0.001697   
    238. D(H  38,C   4,Ir  0,C   2)    158.6350         0.001697   
    239. D(Ir  0,C   4,C   1,H  27)    118.9891         0.026834   
    240. D(H  38,C   4,Ir  0,O  31)   -119.4205         0.001697   
    241. D(C   3,C   4,C   1,Ir  0)     61.4588         0.026834   
    242. D(C   3,C   4,C   1,C   2)     -0.2235         0.026834   
    243. D(H  38,C   4,C   1,C   2)    179.8862         0.026834   
    244. D(C   3,C   4,Ir  0,N   6)   -175.1391         0.001697   
    245. D(C   3,C   4,C   1,H  27)   -179.5521         0.026834   
    246. D(Ir  0,C   4,C   3,H  37)   -121.0561         0.021555   
    247. D(Ir  0,C   4,C   3,C   5)     62.8384         0.021555   
    248. D(H  38,C   4,C   3,C   5)   -178.9310         0.021555   
    249. D(C   1,C   4,C   3,C   5)      1.1793         0.021555   
    250. D(C   1,C   4,C   3,H  37)    177.2847         0.021555   
    251. D(H  38,C   4,C   3,Ir  0)    118.2306         0.021555   
    252. D(H  38,C   4,C   1,H  27)      0.5576         0.026834   
    253. D(H  38,C   4,C   3,H  37)     -2.8255         0.021555   
    254. D(C   1,C   4,C   3,Ir  0)    -61.6591         0.021555   
    255. D(H  29,C   5,C   2,H  28)     -6.6047         0.025022   
    256. D(C   2,C   5,Ir  0,C   4)    -81.0341         0.001661   
    257. D(C   2,C   5,Ir  0,C   3)   -119.7349         0.001661   
    258. D(C   3,C   5,C   2,C   1)      1.5686         0.025022   
    259. D(C   2,C   5,Ir  0,C  20)   -137.8296         0.001661   
    260. D(C   2,C   5,Ir  0,O  31)    117.0427         0.001661   
    261. D(H  29,C   5,Ir  0,O  31)     -3.2023         0.001661   
    262. D(C   3,C   5,Ir  0,C   2)    119.7349         0.001661   
    263. D(C   3,C   5,Ir  0,C   4)     38.7008         0.001661   
    264. D(C   3,C   5,Ir  0,N   6)    154.7587         0.001661   
    265. D(C   3,C   5,Ir  0,C  20)    -18.0946         0.001661   
    266. D(C   3,C   5,Ir  0,O  31)   -123.2224         0.001661   
    267. D(H  29,C   5,Ir  0,C   1)   -158.6765         0.001661   
    268. D(H  29,C   5,Ir  0,C   2)   -120.2450         0.001661   
    269. D(H  29,C   5,Ir  0,C   3)    120.0201         0.001661   
    270. D(H  29,C   5,Ir  0,C   4)    158.7209         0.001661   
    271. D(H  29,C   5,Ir  0,N   6)    -85.2212         0.001661   
    272. D(C   3,C   5,Ir  0,C   1)     81.3034         0.001661   
    273. D(H  29,C   5,Ir  0,C  20)    101.9255         0.001661   
    274. D(Ir  0,C   5,C   2,C   1)     61.4581         0.025022   
    275. D(Ir  0,C   5,C   2,H  28)   -122.5800         0.025022   
    276. D(C   2,C   5,Ir  0,N   6)     35.0237         0.001661   
    277. D(C   3,C   5,C   2,Ir  0)    -59.8896         0.025022   
    278. D(H  29,C   5,C   2,Ir  0)    115.9753         0.025022   
    279. D(C   3,C   5,C   2,H  28)    177.5305         0.025022   
    280. D(C   2,C   5,Ir  0,C   1)    -38.4315         0.001661   
    281. D(H  29,C   5,C   2,C   1)    177.4334         0.025022   
    282. D(H  29,C   5,C   3,H  37)      6.3056         0.025358   
    283. D(Ir  0,C   5,C   3,H  37)    121.9996         0.025358   
    284. D(C   2,C   5,C   3,Ir  0)     60.1704         0.025358   
    285. D(C   2,C   5,C   3,C   4)     -1.7031         0.025358   
    286. D(C   2,C   5,C   3,H  37)   -177.8300         0.025358   
    287. D(H  29,C   5,C   3,Ir  0)   -115.6941         0.025358   
    288. D(Ir  0,C   5,C   3,C   4)    -61.8735         0.025358   
    289. D(H  29,C   5,C   3,C   4)   -177.5676         0.025358   
    290. D(C   7,N   6,Ir  0,C   1)     80.4968         0.001766   
    291. D(C   7,N   6,Ir  0,C   2)     41.1382         0.001766   
    292. D(C   7,N   6,Ir  0,C   3)    100.7675         0.001766   
    293. D(C   7,N   6,Ir  0,C   4)    112.3095         0.001766   
    294. D(C   7,N   6,Ir  0,C   5)     19.2955         0.001766   
    295. D(C   7,N   6,Ir  0,C  20)   -165.4247         0.001766   
    296. D(C   7,N   6,Ir  0,O  31)    -66.1273         0.001766   
    297. D(C  17,N   6,Ir  0,C   1)    -99.9227         0.001766   
    298. D(C  17,N   6,Ir  0,C   2)   -139.2814         0.001766   
    299. D(C  17,N   6,Ir  0,C   3)    -79.6521         0.001766   
    300. D(C  17,N   6,Ir  0,C   4)    -68.1101         0.001766   
    301. D(C  17,N   6,Ir  0,C   5)   -161.1240         0.001766   
    302. D(C  17,N   6,Ir  0,C  20)     14.1557         0.001766   
    303. D(C  17,N   6,Ir  0,O  31)    113.4531         0.001766   
    304. D(C   8,C   7,N   6,Ir  0)    149.8638         0.014713   
    305. D(C   8,C   7,N   6,C  17)    -29.6921         0.014713   
    306. D(C  12,C   7,N   6,Ir  0)    -84.8909         0.014713   
    307. D(C  12,C   7,N   6,C  17)     95.5533         0.014713   
    308. D(H  13,C   7,N   6,Ir  0)     31.7733         0.014713   
    309. D(H  13,C   7,N   6,C  17)   -147.7825         0.014713   
    310. D(H   9,C   8,C   7,N   6)   -170.2901         0.011773   
    311. D(H   9,C   8,C   7,C  12)     65.5828         0.011773   
    312. D(H   9,C   8,C   7,H  13)    -54.0203         0.011773   
    313. D(H  10,C   8,C   7,N   6)     71.6187         0.011773   
    314. D(H  10,C   8,C   7,C  12)    -52.5084         0.011773   
    315. D(H  10,C   8,C   7,H  13)   -172.1115         0.011773   
    316. D(H  11,C   8,C   7,N   6)    -51.6313         0.011773   
    317. D(H  11,C   8,C   7,C  12)   -175.7584         0.011773   
    318. D(H  11,C   8,C   7,H  13)     64.6385         0.011773   
    319. D(H  14,C  12,C   7,N   6)    175.2758         0.011556   
    320. D(H  14,C  12,C   7,C   8)    -58.1327         0.011556   
    321. D(H  14,C  12,C   7,H  13)     61.0613         0.011556   
    322. D(H  15,C  12,C   7,N   6)    -65.4913         0.011556   
    323. D(H  15,C  12,C   7,C   8)     61.1003         0.011556   
    324. D(H  15,C  12,C   7,H  13)   -179.7058         0.011556   
    325. D(H  16,C  12,C   7,N   6)     55.7756         0.011556   
    326. D(H  16,C  12,C   7,C   8)   -177.6328         0.011556   
    327. D(H  16,C  12,C   7,H  13)    -58.4388         0.011556   
    328. D(C  18,C  17,N   6,Ir  0)     -3.8219         0.059715   
    329. D(C  18,C  17,N   6,C   7)    175.7607         0.059715   
    330. D(H  19,C  17,N   6,Ir  0)    178.0566         0.059715   
    331. D(H  19,C  17,N   6,C   7)     -2.3607         0.059715   
    332. D(C  20,C  18,C  17,N   6)    -16.5366         0.019400   
    333. D(C  20,C  18,C  17,H  19)    161.5839         0.019400   
    334. D(S  22,C  18,C  17,N   6)    158.7760         0.019400   
    335. D(S  22,C  18,C  17,H  19)    -23.1035         0.019400   
    336. D(C  18,C  20,Ir  0,C   1)     76.1602         0.001687   
    337. D(H  24,C  20,C  18,C  17)    -61.6034         0.028412   
    338. D(C  18,C  20,Ir  0,C   3)    143.6938         0.001687   
    339. D(C  18,C  20,Ir  0,C   4)    106.3760         0.001687   
    340. D(Ir  0,C  20,C  18,C  17)     26.7013         0.028412   
    341. D(C  18,C  20,Ir  0,N   6)    -20.5485         0.001687   
    342. D(C  18,C  20,Ir  0,O  31)   -101.4956         0.001687   
    343. D(H  24,C  20,Ir  0,C   4)   -142.3504         0.001687   
    344. D(C  21,C  20,Ir  0,C   2)    -52.0375         0.001687   
    345. D(C  21,C  20,Ir  0,C   3)      5.2026         0.001687   
    346. D(C  21,C  20,Ir  0,C   4)    -32.1151         0.001687   
    347. D(C  21,C  20,Ir  0,C   5)     16.5082         0.001687   
    348. D(C  21,C  20,Ir  0,N   6)   -159.0396         0.001687   
    349. D(C  21,C  20,Ir  0,O  31)    120.0133         0.001687   
    350. D(H  24,C  20,Ir  0,C   1)   -172.5662         0.001687   
    351. D(H  24,C  20,Ir  0,C   2)   -162.2728         0.001687   
    352. D(C  21,C  20,Ir  0,C   1)    -62.3310         0.001687   
    353. D(H  24,C  20,Ir  0,C   3)   -105.0327         0.001687   
    354. D(H  24,C  20,Ir  0,C   5)    -93.7271         0.001687   
    355. D(H  24,C  20,Ir  0,N   6)     90.7251         0.001687   
    356. D(C  18,C  20,Ir  0,C   5)    154.9993         0.001687   
    357. D(H  24,C  20,Ir  0,O  31)      9.7780         0.001687   
    358. D(Ir  0,C  20,C  18,S  22)   -149.2644         0.028412   
    359. D(C  21,C  20,C  18,C  17)    175.2904         0.028412   
    360. D(C  18,C  20,Ir  0,C   2)     86.4536         0.001687   
    361. D(C  21,C  20,C  18,S  22)     -0.6753         0.028412   
    362. D(H  24,C  20,C  18,S  22)    122.4309         0.028412   
    363. D(C  23,C  21,C  20,Ir  0)    138.3688         0.021882   
    364. D(C  23,C  21,C  20,C  18)      0.6312         0.021882   
    365. D(C  23,C  21,C  20,H  24)   -123.8233         0.021882   
    366. D(H  25,C  21,C  20,Ir  0)    -45.4730         0.021882   
    367. D(H  25,C  21,C  20,C  18)    176.7893         0.021882   
    368. D(H  25,C  21,C  20,H  24)     52.3348         0.021882   
    369. D(C  23,S  22,C  18,C  17)   -175.0565         0.005957   
    370. D(C  23,S  22,C  18,C  20)      0.4345         0.005957   
    371. D(S  22,C  23,C  21,C  20)     -0.3247         0.033816   
    372. D(S  22,C  23,C  21,H  25)   -176.5336         0.033816   
    373. D(H  26,C  23,C  21,C  20)    178.1044         0.033816   
    374. D(H  26,C  23,C  21,H  25)      1.8954         0.033816   
    375. D(C  21,C  23,S  22,C  18)     -0.0565         0.005421   
    376. D(H  26,C  23,S  22,C  18)   -178.6281         0.005421   
    377. D(C  32,O  31,Ir  0,C   1)    172.7962         0.001838   
    378. D(C  32,O  31,Ir  0,C   2)    165.2252         0.001838   
    379. D(C  32,O  31,Ir  0,C   3)     96.2157         0.001838   
    380. D(C  32,O  31,Ir  0,C   4)     95.0854         0.001838   
    381. D(C  32,O  31,Ir  0,C   5)    129.9578         0.001838   
    382. D(C  32,O  31,Ir  0,N   6)    -87.5064         0.001838   
    383. D(C  32,O  31,Ir  0,C  20)    -11.0670         0.001838   
    384. D(O  30,C  32,O  31,Ir  0)      4.3692         0.057015   
    385. D(C  33,C  32,O  31,Ir  0)   -174.3869         0.057015   
    386. D(H  34,C  33,C  32,O  30)     37.5229         0.012797   
    387. D(H  34,C  33,C  32,O  31)   -143.6572         0.012797   
    388. D(H  35,C  33,C  32,O  30)    -79.9315         0.012797   
    389. D(H  35,C  33,C  32,O  31)     98.8884         0.012797   
    390. D(H  36,C  33,C  32,O  30)    160.6070         0.012797   
    391. D(H  36,C  33,C  32,O  31)    -20.5731         0.012797   
    -----------------------------------------------------------------

Number of atoms                         .... 39
Number of degrees of freedom            .... 391

         *************************************************************
         *                GEOMETRY OPTIMIZATION CYCLE   1            *
         *************************************************************
---------------------------------
CARTESIAN COORDINATES (ANGSTROEM)
---------------------------------
  Ir     0.616799   -0.720422    0.423103
  C      0.134358   -2.833048    0.328337
  C     -0.048680   -2.374872    1.680892
  C      2.172992   -2.070945    1.106816
  C      1.489774   -2.650314   -0.019583
  C      1.218273   -1.932265    2.147734
  N     -1.064558    0.128242   -0.513969
  C     -2.336734    0.338166    0.194389
  C     -3.134378    1.529154   -0.317606
  H     -3.963441    1.716012    0.363175
  H     -3.572984    1.354867   -1.301078
  H     -2.532409    2.437265   -0.356771
  C     -3.159100   -0.944905    0.145812
  H     -2.054783    0.537224    1.229293
  H     -4.065548   -0.826935    0.738174
  H     -3.457237   -1.182312   -0.876207
  H     -2.613649   -1.797004    0.548061
  C     -0.912929    0.459835   -1.737604
  C      0.406335    0.279330   -2.254467
  H     -1.719478    0.877897   -2.331634
  C      1.453393    0.113742   -1.347517
  C      2.662522   -0.159384   -2.058146
  S      0.879955    0.128422   -3.876683
  C      2.499235   -0.175876   -3.409670
  H      1.607215    1.128920   -0.583661
  H      3.626370   -0.277385   -1.584492
  H      3.254139   -0.329120   -4.165886
  H     -0.627875   -3.255498   -0.310062
  H     -0.957055   -2.422332    2.262008
  H      1.408832   -1.492379    3.116553
  O      1.716161    2.304502    0.141834
  O      0.553373    1.016593    1.533452
  C      1.115500    2.115146    1.213228
  C      1.054620    3.222021    2.224923
  H      0.943202    4.184449    1.730764
  H      1.996758    3.249374    2.775055
  H      0.249309    3.072074    2.938594
  H      3.226348   -1.847116    1.174783
  H      1.934743   -2.901931   -0.971205

----------------------------
CARTESIAN COORDINATES (A.U.)
----------------------------
  NO LB      ZA    FRAG     MASS         X           Y           Z
   0 Ir   17.0000*   0   192.220    1.165582   -1.361400    0.799549
   1 C     6.0000    0    12.011    0.253899   -5.353684    0.620467
   2 C     6.0000    0    12.011   -0.091991   -4.487858    3.176426
   3 C     6.0000    0    12.011    4.106359   -3.913519    2.091580
   4 C     6.0000    0    12.011    2.815265   -5.008367   -0.037006
   5 C     6.0000    0    12.011    2.302202   -3.651452    4.058629
   6 N     7.0000    0    14.007   -2.011724    0.242342   -0.971261
   7 C     6.0000    0    12.011   -4.415788    0.639042    0.367342
   8 C     6.0000    0    12.011   -5.923116    2.889681   -0.600189
   9 H     1.0000    0     1.008   -7.489817    3.242792    0.686302
  10 H     1.0000    0     1.008   -6.751961    2.560327   -2.458681
  11 H     1.0000    0     1.008   -4.785559    4.605764   -0.674200
  12 C     6.0000    0    12.011   -5.969835   -1.785612    0.275545
  13 H     1.0000    0     1.008   -3.882978    1.015206    2.323028
  14 H     1.0000    0     1.008   -7.682772   -1.562680    1.394947
  15 H     1.0000    0     1.008   -6.533231   -2.234246   -1.655791
  16 H     1.0000    0     1.008   -4.939081   -3.395845    1.035685
  17 C     6.0000    0    12.011   -1.725187    0.868962   -3.283596
  18 C     6.0000    0    12.011    0.767863    0.527857   -4.260325
  19 H     1.0000    0     1.008   -3.249342    1.658984   -4.406149
  20 C     6.0000    0    12.011    2.746515    0.214942   -2.546439
  21 C     6.0000    0    12.011    5.031437   -0.301192   -3.889333
  22 S    16.0000    0    32.060    1.662874    0.242682   -7.325869
  23 C     6.0000    0    12.011    4.722870   -0.332358   -6.443343
  24 H     1.0000    0     1.008    3.037197    2.133350   -1.102960
  25 H     1.0000    0     1.008    6.852846   -0.524182   -2.994256
  26 H     1.0000    0     1.008    6.149432   -0.621946   -7.872384
  27 H     1.0000    0     1.008   -1.186512   -6.152000   -0.585932
  28 H     1.0000    0     1.008   -1.808571   -4.577543    4.274575
  29 H     1.0000    0     1.008    2.662307   -2.820187    5.889431
  30 O     8.0000    0    15.999    3.243074    4.354877    0.268028
  31 O     8.0000    0    15.999    1.045723    1.921083    2.897804
  32 C     6.0000    0    12.011    2.107990    3.997046    2.292669
  33 C     6.0000    0    12.011    1.992944    6.088736    4.204495
  34 H     1.0000    0     1.008    1.782394    7.907462    3.270670
  35 H     1.0000    0     1.008    3.773326    6.140427    5.244093
  36 H     1.0000    0     1.008    0.471126    5.805378    5.553138
  37 H     1.0000    0     1.008    6.096914   -3.490544    2.220019
  38 H     1.0000    0     1.008    3.656134   -5.483854   -1.835311
* core charge reduced due to ECP

--------------------------------
INTERNAL COORDINATES (ANGSTROEM)
--------------------------------
 Ir     0   0   0     0.000000000000     0.00000000     0.00000000
 C      1   0   0     2.169241664060     0.00000000     0.00000000
 C      2   1   0     1.439860914806    71.17601370     0.00000000
 C      1   2   3     2.171203630434    64.33756551    80.05839417
 C      2   1   3     1.410867177734    70.80037118   242.10375049
 C      4   1   2     1.418176752197    71.84842467   280.59004778
 N      1   2   3     2.103144267632   101.32479168   254.18155789
 C      7   1   2     1.471139136936   122.23662489    80.44423827
 C      8   7   1     1.522104808048   113.75651621   149.87179541
 H      9   8   7     1.088904567478   108.84193935   189.70996444
 H      9   8   7     1.090853940447   112.88890534    71.61885995
 H      9   8   7     1.090213103827   111.99300351   308.36865246
 C      8   7   1     1.524766943022   109.32813145   275.11715304
 H      8   7   1     1.090935628363   105.02923561    31.78153388
 H     13   8   7     1.089240484924   109.89899638   175.27575806
 H     13   8   7     1.090763572859   111.12610442   294.50870713
 H     13   8   7     1.088752174908   112.12353135    55.77567093
 C      7   1   2     1.281804852309   116.01090757   260.03968491
 C     18   7   1     1.433235889745   115.71554790   356.03428434
 H     18   7   1     1.085424907541   122.11068129   177.92482166
 C     19  18   7     1.394293401218   118.34650687   343.32535468
 C     21  19  18     1.428103359717   109.80954498   175.29885223
 S     19  18   7     1.696767601120   128.01716209   158.69661601
 C     22  21  19     1.361617172016   113.08512147     0.69563897
 H     21  19  18     1.279263254728   112.53438522   298.47198136
 H     22  21  19     1.080365467668   123.97468175   176.87175607
 H     24  22  21     1.079415717272   127.82514895   178.10211158
 H      2   1   3     1.080285557653   124.29718194   121.47889407
 H      3   2   1     1.079389944850   126.78467408   121.80791706
 H      6   4   1     1.080933658708   125.34317471   244.30395187
 O     25  21  19     1.399999995110   175.28099050   349.72145537
 O      1   2   3     2.063015545897   146.80302988   348.46225856
 C     31  25  21     1.242637179618   108.00282796   106.71870084
 C     33  31  25     1.500795534370   119.19536545   180.44437856
 H     34  33  31     1.087599018265   110.51896444    37.52281354
 H     34  33  31     1.091331198072   108.86083906   280.06824057
 H     34  33  31     1.086426773195   111.78293458   160.60686929
 H      4   1   2     1.079013886367   126.18671069   158.62907112
 H      5   2   1     1.080221540299   125.64410458   241.57637583

---------------------------
INTERNAL COORDINATES (A.U.)
---------------------------
 Ir     0   0   0     0.000000000000     0.00000000     0.00000000
 C      1   0   0     4.099272663366     0.00000000     0.00000000
 C      2   1   0     2.720942799920    71.17601370     0.00000000
 C      1   2   3     4.102980242495    64.33756551    80.05839417
 C      2   1   3     2.666152577257    70.80037118   242.10375049
 C      4   1   2     2.679965671146    71.84842467   280.59004778
 N      1   2   3     3.974366685952   101.32479168   254.18155789
 C      7   1   2     2.780050073703   122.23662489    80.44423827
 C      8   7   1     2.876361234335   113.75651621   149.87179541
 H      9   8   7     2.057731418509   108.84193935   189.70996444
 H      9   8   7     2.061415199553   112.88890534    71.61885995
 H      9   8   7     2.060204193845   111.99300351   308.36865246
 C      8   7   1     2.881391940367   109.32813145   275.11715304
 H      8   7   1     2.061569567344   105.02923561    31.78153388
 H     13   8   7     2.058366210486   109.89899638   175.27575806
 H     13   8   7     2.061244429561   111.12610442   294.50870713
 H     13   8   7     2.057443438287   112.12353135    55.77567093
 C      7   1   2     2.422260127996   116.01090757   260.03968491
 C     18   7   1     2.708423316925   115.71554790   356.03428434
 H     18   7   1     2.051155814189   122.11068129   177.92482166
 C     19  18   7     2.634832678635   118.34650687   343.32535468
 C     21  19  18     2.698724240799   109.80954498   175.29885223
 S     19  18   7     3.206426079028   128.01716209   158.69661601
 C     22  21  19     2.573083554355   113.08512147     0.69563897
 H     21  19  18     2.417457204625   112.53438522   298.47198136
 H     22  21  19     2.041594858438   123.97468175   176.87175607
 H     24  22  21     2.039800090295   127.82514895   178.10211158
 H      2   1   3     2.041443850395   124.29718194   121.47889407
 H      3   2   1     2.039751387475   126.78467408   121.80791706
 H      6   4   1     2.042668583896   125.34317471   244.30395187
 O     25  21  19     2.645616578248   175.28099050   349.72145537
 O      1   2   3     3.898534391767   146.80302988   348.46225856
 C     31  25  21     2.348243953307   108.00282796   106.71870084
 C     33  31  25     2.836092542972   119.19536545   180.44437856
 H     34  33  31     2.055264288043   110.51896444    37.52281354
 H     34  33  31     2.062317085761   108.86083906   280.06824057
 H     34  33  31     2.053049065898   111.78293458   160.60686929
 H      4   1   2     2.039040739932   126.18671069   158.62907112
 H      5   2   1     2.041322875128   125.64410458   241.57637583

---------------------
BASIS SET INFORMATION
---------------------
There are 6 groups of distinct atoms

 Group   1 Type Ir  : 7s6p5d1f contracted to 6s3p2d1f pattern {211111/411/41/1}
 Group   2 Type C   : 8s4p1d contracted to 4s2p1d pattern {5111/31/1}
 Group   3 Type N   : 8s4p1d contracted to 4s2p1d pattern {5111/31/1}
 Group   4 Type H   : 4s contracted to 2s pattern {31}
 Group   5 Type S   : 10s7p1d contracted to 4s3p1d pattern {5311/511/1}
 Group   6 Type O   : 8s4p1d contracted to 4s2p1d pattern {5111/31/1}

Atom   0Ir   basis set group =>   1
Atom   1C    basis set group =>   2
Atom   2C    basis set group =>   2
Atom   3C    basis set group =>   2
Atom   4C    basis set group =>   2
Atom   5C    basis set group =>   2
Atom   6N    basis set group =>   3
Atom   7C    basis set group =>   2
Atom   8C    basis set group =>   2
Atom   9H    basis set group =>   4
Atom  10H    basis set group =>   4
Atom  11H    basis set group =>   4
Atom  12C    basis set group =>   2
Atom  13H    basis set group =>   4
Atom  14H    basis set group =>   4
Atom  15H    basis set group =>   4
Atom  16H    basis set group =>   4
Atom  17C    basis set group =>   2
Atom  18C    basis set group =>   2
Atom  19H    basis set group =>   4
Atom  20C    basis set group =>   2
Atom  21C    basis set group =>   2
Atom  22S    basis set group =>   5
Atom  23C    basis set group =>   2
Atom  24H    basis set group =>   4
Atom  25H    basis set group =>   4
Atom  26H    basis set group =>   4
Atom  27H    basis set group =>   4
Atom  28H    basis set group =>   4
Atom  29H    basis set group =>   4
Atom  30O    basis set group =>   6
Atom  31O    basis set group =>   6
Atom  32C    basis set group =>   2
Atom  33C    basis set group =>   2
Atom  34H    basis set group =>   4
Atom  35H    basis set group =>   4
Atom  36H    basis set group =>   4
Atom  37H    basis set group =>   4
Atom  38H    basis set group =>   4
---------------------------------
AUXILIARY/J BASIS SET INFORMATION
---------------------------------
There are 6 groups of distinct atoms

 Group   1 Type Ir  : 11s5p5d3f3g contracted to 8s5p5d2f3g pattern {41111111/11111/11111/21/111}
 Group   2 Type C   : 12s5p4d2f1g contracted to 6s4p3d1f1g pattern {711111/2111/211/2/1}
 Group   3 Type N   : 12s5p4d2f1g contracted to 6s4p3d1f1g pattern {711111/2111/211/2/1}
 Group   4 Type H   : 5s2p1d contracted to 3s1p1d pattern {311/2/1}
 Group   5 Type S   : 14s5p5d2f1g contracted to 8s4p3d1f1g pattern {71111111/2111/311/2/1}
 Group   6 Type O   : 12s5p4d2f1g contracted to 6s4p3d1f1g pattern {711111/2111/211/2/1}

Atom   0Ir   basis set group =>   1
Atom   1C    basis set group =>   2
Atom   2C    basis set group =>   2
Atom   3C    basis set group =>   2
Atom   4C    basis set group =>   2
Atom   5C    basis set group =>   2
Atom   6N    basis set group =>   3
Atom   7C    basis set group =>   2
Atom   8C    basis set group =>   2
Atom   9H    basis set group =>   4
Atom  10H    basis set group =>   4
Atom  11H    basis set group =>   4
Atom  12C    basis set group =>   2
Atom  13H    basis set group =>   4
Atom  14H    basis set group =>   4
Atom  15H    basis set group =>   4
Atom  16H    basis set group =>   4
Atom  17C    basis set group =>   2
Atom  18C    basis set group =>   2
Atom  19H    basis set group =>   4
Atom  20C    basis set group =>   2
Atom  21C    basis set group =>   2
Atom  22S    basis set group =>   5
Atom  23C    basis set group =>   2
Atom  24H    basis set group =>   4
Atom  25H    basis set group =>   4
Atom  26H    basis set group =>   4
Atom  27H    basis set group =>   4
Atom  28H    basis set group =>   4
Atom  29H    basis set group =>   4
Atom  30O    basis set group =>   6
Atom  31O    basis set group =>   6
Atom  32C    basis set group =>   2
Atom  33C    basis set group =>   2
Atom  34H    basis set group =>   4
Atom  35H    basis set group =>   4
Atom  36H    basis set group =>   4
Atom  37H    basis set group =>   4
Atom  38H    basis set group =>   4
-------------------------
ECP PARAMETER INFORMATION
-------------------------

 Group 1, Type Ir ECP Def2-ECP (replacing 60 core electrons, lmax=3)

Atom   0Ir   ECP group =>   1

------------------------------------------------------------------------------
                           ORCA GTO INTEGRAL CALCULATION
                           -- RI-GTO INTEGRALS CHOSEN --
------------------------------------------------------------------------------
------------------------------------------------------------------------------
                   ___                                                        
                  /   \      - P O W E R E D   B Y -                         
                 /     \                                                     
                 |  |  |   _    _      __       _____    __    __             
                 |  |  |  | |  | |    /  \     |  _  \  |  |  /  |          
                  \  \/   | |  | |   /    \    | | | |  |  | /  /          
                 / \  \   | |__| |  /  /\  \   | |_| |  |  |/  /          
                |  |  |   |  __  | /  /__\  \  |    /   |      \           
                |  |  |   | |  | | |   __   |  |    \   |  |\   \          
                \     /   | |  | | |  |  |  |  | |\  \  |  | \   \       
                 \___/    |_|  |_| |__|  |__|  |_| \__\ |__|  \__/        
                                                                              
                      - O R C A' S   B I G   F R I E N D -                    
                                      &                                       
                       - I N T E G R A L  F E E D E R -                       
                                                                              
 v1 FN, 2020, v2 2021                                                         
------------------------------------------------------------------------------


Reading SHARK input file reaction4-IEIP_ts_guess_scan_11-8_orca.SHARKINP.tmp ... ok
----------------------
SHARK INTEGRAL PACKAGE
----------------------

Number of atoms                             ...     39
Number of basis functions                   ...    358
Number of shells                            ...    184
Maximum angular momentum                    ...      3
Integral batch strategy                     ... SHARK/LIBINT Hybrid
RI-J (if used) integral strategy            ... SPLIT-RIJ (Revised 2003 algorithm where possible)
Printlevel                                  ...      1
Contraction scheme used                     ... SEGMENTED contraction
Coulomb Range Separation                    ... NOT USED
Exchange Range Separation                   ... NOT USED
Finite Nucleus Model                        ... NOT USED
Auxiliary Coulomb fitting basis             ... AVAILABLE
   # of basis functions in Aux-J            ...   1231
   # of shells in Aux-J                     ...    405
   Maximum angular momentum in Aux-J        ...      4
Auxiliary J/K fitting basis                 ... NOT available
Auxiliary Correlation fitting basis         ... NOT available
Auxiliary 'external' fitting basis          ... NOT available
Integral threshold                          ...     2.500000e-11
Primitive cut-off                           ...     2.500000e-12
Primitive pair pre-selection threshold      ...     2.500000e-12

Calculating pre-screening integrals         ... done (  0.1 sec) Dimension = 184
Organizing shell pair data                  ... done (  0.1 sec)
Shell pair information
Total number of shell pairs                 ...     17020
Shell pairs after pre-screening             ...     12989
Total number of primitive shell pairs       ...     60705
Primitive shell pairs kept                  ...     29215
          la=0 lb=0:   4974 shell pairs
          la=1 lb=0:   4265 shell pairs
          la=1 lb=1:    859 shell pairs
          la=2 lb=0:   1752 shell pairs
          la=2 lb=1:    790 shell pairs
          la=2 lb=2:    175 shell pairs
          la=3 lb=0:    111 shell pairs
          la=3 lb=1:     41 shell pairs
          la=3 lb=2:     21 shell pairs
          la=3 lb=3:      1 shell pairs

Calculating one electron integrals          ... done (  0.1 sec)
Calculating ECP integrals                   ... done (  0.7 sec)
Calculating RI/J V-Matrix + Cholesky decomp.... done (  0.1 sec)
Calculating Nuclear repulsion               ... done (  0.0 sec) ENN=   2037.579930687373 Eh

SHARK setup successfully completed in   1.4 seconds

Maximum memory used throughout the entire GTOINT-calculation: 90.8 MB
-------------------------------------------------------------------------------
                                 ORCA SCF
-------------------------------------------------------------------------------

------------
SCF SETTINGS
------------
Hamiltonian:
 Density Functional     Method          .... DFT(GTOs)
 Exchange Functional    Exchange        .... PBE
   PBE kappa parameter   XKappa         ....  1.024500
   PBE mue parameter    XMuePBE         ....  0.123457
 Correlation Functional Correlation     .... PBE
   PBE beta parameter  CBetaPBE         ....  0.030000
 LDA part of GGA corr.  LDAOpt          .... PW91-LDA
 Gradients option       PostSCFGGA      .... off
 Hybrid DFT is turned on
   Fraction HF Exchange ScalHFX         ....  0.420000
   Scaling of DF-GGA-X  ScalDFX         ....  0.580000
   Scaling of DF-GGA-C  ScalDFC         ....  1.000000
   Scaling of DF-LDA-C  ScalLDAC        ....  1.000000
   Perturbative correction              ....  0.000000
   Density functional embedding theory  .... OFF
 RI-approximation to the Coulomb term is turned on
   Number of AuxJ basis functions       .... 1231
   RIJ-ON(X) (HFX calculated with O(N)) .... on
   Number of AuxJ basis functions       .... 1231
   RIJ-COSX (HFX calculated with COS-X)).... on


General Settings:
 Integral files         IntName         .... reaction4-IEIP_ts_guess_scan_11-8_orca
 Hartree-Fock type      HFTyp           .... RHF
 Total Charge           Charge          ....    1
 Multiplicity           Mult            ....    1
 Number of Electrons    NEL             ....  164
 Basis Dimension        Dim             ....  358
 Nuclear Repulsion      ENuc            ....   2037.5799306874 Eh

Convergence Acceleration:
 DIIS                   CNVDIIS         .... on
   Start iteration      DIISMaxIt       ....    12
   Startup error        DIISStart       ....  0.200000
   # of expansion vecs  DIISMaxEq       ....     5
   Bias factor          DIISBfac        ....   1.050
   Max. coefficient     DIISMaxC        ....  10.000
 Trust-Rad. Augm. Hess. CNVTRAH         .... auto
   Auto Start mean grad. ratio tolernc. ....  1.125000
   Auto Start start iteration           ....    20
   Auto Start num. interpolation iter.  ....    10
   Max. Number of Micro iterations      ....    16
   Max. Number of Macro iterations      .... Maxiter - #DIIS iter
   Number of Davidson start vectors     ....     2
   Converg. threshold I  (grad. norm)   ....   1.000e-05
   Converg. threshold II (energy diff.) ....   1.000e-08
   Grad. Scal. Fac. for Micro threshold ....   0.100
   Minimum threshold for Micro iter.    ....   0.010
   NR start threshold (gradient norm)   ....   0.001
   Initial trust radius                 ....   0.400
   Minimum AH scaling param. (alpha)    ....   1.000
   Maximum AH scaling param. (alpha)    .... 1000.000
   Orbital update algorithm             .... Taylor
   White noise on init. David. guess    .... on
   Maximum white noise                  ....   0.010
   Quad. conv. algorithm                .... NR
   COSX micro iterations for RIJONX calc.... off
 SOSCF                  CNVSOSCF        .... off
 Level Shifting         CNVShift        .... on
   Level shift para.    LevelShift      ....    0.2500
   Turn off err/grad.   ShiftErr        ....    0.0010
 Zerner damping         CNVZerner       .... off
 Static damping         CNVDamp         .... on
   Fraction old density DampFac         ....    0.7000
   Max. Damping (<1)    DampMax         ....    0.9800
   Min. Damping (>=0)   DampMin         ....    0.0000
   Turn off err/grad.   DampErr         ....    0.1000
 Fernandez-Rico         CNVRico         .... off

SCF Procedure:
 Maximum # iterations   MaxIter         ....   250
 SCF integral mode      SCFMode         .... Direct
   Integral package                     .... SHARK and LIBINT hybrid scheme
 Reset frequency        DirectResetFreq ....    20
 Integral Threshold     Thresh          ....  2.500e-11 Eh
 Primitive CutOff       TCut            ....  2.500e-12 Eh

Convergence Tolerance:
 Convergence Check Mode ConvCheckMode   .... Total+1el-Energy
 Convergence forced     ConvForced      .... 0
 Energy Change          TolE            ....  1.000e-08 Eh
 1-El. energy change                    ....  1.000e-05 Eh
 DIIS Error             TolErr          ....  5.000e-07


Diagonalization of the overlap matrix:
Smallest eigenvalue                        ... 1.180e-03
Time for diagonalization                   ...    0.023 sec
Threshold for overlap eigenvalues          ... 1.000e-08
Number of eigenvalues below threshold      ... 0
Time for construction of square roots      ...    0.008 sec
Total time needed                          ...    0.031 sec

--------------------
INITIAL GUESS: HCORE
--------------------
                      -----------------
                      INTIAL GUESS DONE 
                      -----------------
-------------------
DFT GRID GENERATION
-------------------

General Integration Accuracy     IntAcc      ... 4.159
Radial Grid Type                 RadialGrid  ... OptM3 with GC (2021)
Angular Grid (max. ang.)         AngularGrid ... 3 (Lebedev-194)
Angular grid pruning method      GridPruning ... 4 (adaptive)
Weight generation scheme         WeightScheme... Becke
Basis function cutoff            BFCut       ... 1.0000e-11
Integration weight cutoff        WCut        ... 1.0000e-14
Angular grids for H and He will be reduced by one unit
Partially contracted basis set               ... off
Rotationally invariant grid construction     ... off

Total number of grid points                  ...    93283
Total number of batches                      ...     1479
Average number of points per batch           ...       63
Average number of grid points per atom       ...     2392
Time for grid setup =    2.169 sec

--------------------
COSX GRID GENERATION
--------------------

GRIDX 1
-------
General Integration Accuracy     IntAcc      ... 3.816
Radial Grid Type                 RadialGrid  ... OptM3 with GC (2021)
Angular Grid (max. ang.)         AngularGrid ... 1 (Lebedev-50)
Angular grid pruning method      GridPruning ... 4 (adaptive)
Weight generation scheme         WeightScheme... Becke
Basis function cutoff            BFCut       ... 1.0000e-11
Integration weight cutoff        WCut        ... 1.0000e-14
Angular grids for H and He will be reduced by one unit
Partially contracted basis set               ... on
Rotationally invariant grid construction     ... off

Total number of grid points                  ...    23201
Total number of batches                      ...      383
Average number of points per batch           ...       60
Average number of grid points per atom       ...      595
UseSFitting                                  ... on

GRIDX 2
-------
General Integration Accuracy     IntAcc      ... 4.020
Radial Grid Type                 RadialGrid  ... OptM3 with GC (2021)
Angular Grid (max. ang.)         AngularGrid ... 2 (Lebedev-110)
Angular grid pruning method      GridPruning ... 4 (adaptive)
Weight generation scheme         WeightScheme... Becke
Basis function cutoff            BFCut       ... 1.0000e-11
Integration weight cutoff        WCut        ... 1.0000e-14
Angular grids for H and He will be reduced by one unit
Partially contracted basis set               ... on
Rotationally invariant grid construction     ... off

Total number of grid points                  ...    50329
Total number of batches                      ...      806
Average number of points per batch           ...       62
Average number of grid points per atom       ...     1290
UseSFitting                                  ... on

GRIDX 3
-------
General Integration Accuracy     IntAcc      ... 4.338
Radial Grid Type                 RadialGrid  ... OptM3 with GC (2021)
Angular Grid (max. ang.)         AngularGrid ... 3 (Lebedev-194)
Angular grid pruning method      GridPruning ... 4 (adaptive)
Weight generation scheme         WeightScheme... Becke
Basis function cutoff            BFCut       ... 1.0000e-11
Integration weight cutoff        WCut        ... 1.0000e-14
Angular grids for H and He will be reduced by one unit
Partially contracted basis set               ... on
Rotationally invariant grid construction     ... off

Total number of grid points                  ...   108759
Total number of batches                      ...     1720
Average number of points per batch           ...       63
Average number of grid points per atom       ...     2789
UseSFitting                                  ... on

Time for X-Grid setup             =    4.871 sec

--------------
SCF ITERATIONS
--------------
ITER       Energy         Delta-E        Max-DP      RMS-DP      [F,P]     Damp
               ***  Starting incremental Fock matrix formation  ***
  0   -845.5521742716   0.00000000000021.37190337  0.14839767  3.3007328 0.7000
  1  -1090.9585634521-245.40638918046610.11082695  0.13704500  1.5110193 0.7000
  2  -1162.1507858052 -71.192222353098 5.47760756  0.07259386  1.0599989 0.7000
  3  -1187.7751009069 -25.624315101741 3.79808455  0.04801301  0.7688347 0.7000
  4  -1208.1735661376 -20.398465230632 2.68387463  0.03882930  0.4741106 0.7000
  5  -1222.4582966289 -14.284730491344 2.49209952  0.03270054  0.3624994 0.7000
  6  -1232.5692377820 -10.110941153093 1.81855704  0.02896031  0.3156072 0.7000
  7  -1241.2438865738  -8.674648791828 1.60669126  0.02542204  0.2946926 0.7000
  8  -1247.7480382764  -6.504151702590 1.55625238  0.02682449  0.3150689 0.7000
  9  -1251.6890923380  -3.941054061585 1.49396803  0.02405591  0.2895215 0.7000
 10  -1256.4276971038  -4.738604765766 1.46578641  0.02399010  0.2884595 0.7000
 11  -1257.5003306764  -1.072633572627 1.44541224  0.02236283  0.3125705 0.7000
                               ***Turning on DIIS***
 12  -1260.1058410052  -2.605510328761 1.38525692  0.02276535  0.3156274 0.7000
 13  -1260.2780635232  -0.172222518010 1.26593499  0.01895605  0.3217817 0.7000
 14  -1268.0686323731  -7.790568849937 0.88406464  0.01349469  0.2544996 0.7000
 15  -1274.3926448076  -6.324012434462 0.62063477  0.00953799  0.2027045 0.7000
 16  -1278.8466838260  -4.454039018410 0.43749112  0.00674114  0.1491684 0.7000
 17  -1281.8725231931  -3.025839367161 0.30943358  0.00476683  0.1036323 0.7000
 18  -1283.9262610612  -2.053737868085 0.71799253  0.01120574  0.0661243 0.0000
 19  -1288.4384513768  -4.512190315568 0.02524156  0.00041676  0.0240676 0.0000
               *** Restarting incremental Fock matrix formation ***
                                   *** Resetting DIIS ***
 20  -1288.4469046325  -0.008453255760 0.02695088  0.00051150  0.0106750 0.0000
 21  -1288.4492317357  -0.002327103134 0.01208113  0.00015754  0.0102710 0.0000
 22  -1288.4505881884  -0.001356452705 0.00529161  0.00007053  0.0022993 0.0000
 23  -1288.4507322287  -0.000144040297 0.00445618  0.00004239  0.0026959 0.0000
 24  -1288.4507825108  -0.000050282089 0.00421059  0.00003809  0.0007718 0.0000
               *** Restarting incremental Fock matrix formation ***
                                   *** Resetting DIIS ***
 25  -1288.4514394366  -0.000656925794 0.00575438  0.00010122  0.0007365 0.0000
 26  -1288.4514530369  -0.000013600292 0.00109897  0.00001403  0.0010095 0.0000
 27  -1288.4514612368  -0.000008199969 0.00087585  0.00000924  0.0002766 0.0000
 28  -1288.4514619310  -0.000000694150 0.00037982  0.00000291  0.0001715 0.0000
 29  -1288.4514621436  -0.000000212581 0.00027656  0.00000219  0.0001050 0.0000
 30  -1288.4514622383  -0.000000094788 0.00010162  0.00000102  0.0000298 0.0000
 31  -1288.4514622524  -0.000000014057 0.00003705  0.00000042  0.0000151 0.0000
 32  -1288.4514622544  -0.000000002048 0.00004201  0.00000039  0.0000092 0.0000
 33  -1288.4514622669  -0.000000012489 0.00001049  0.00000010  0.0000024 0.0000
 34  -1288.4514622716  -0.000000004700 0.00000292  0.00000004  0.0000019 0.0000
                            ***DIIS convergence achieved***

               *****************************************************
               *                     SUCCESS                       *
               *           SCF CONVERGED AFTER  35 CYCLES          *
               *****************************************************

Old exchange energy                            =    -59.650690254 Eh
New exchange energy                            =    -59.650760522 Eh
Exchange energy change after final integration =     -0.000070267 Eh
Total energy after final integration           =  -1288.451532527 Eh
Final COS-X integration done in                =    58.027 sec

----------------
TOTAL SCF ENERGY
----------------

Total Energy       :        -1288.45153253 Eh          -35060.54864 eV

Components:
Nuclear Repulsion  :         2037.57993069 Eh           55445.36870 eV
Electronic Energy  :        -3326.03146321 Eh          -90505.91735 eV
One Electron Energy:        -5830.73729839 Eh         -158662.42813 eV
Two Electron Energy:         2504.70583517 Eh           68156.51079 eV
Max COSX asymmetry :            0.00002441 Eh               0.00066 eV

Virial components:
Potential Energy   :        -2501.52978324 Eh          -68070.08602 eV
Kinetic Energy     :         1213.07825071 Eh           33009.53737 eV
Virial Ratio       :            2.06213390


DFT components:
N(Alpha)           :       82.000222163587 electrons
N(Beta)            :       82.000222163587 electrons
N(Total)           :      164.000444327175 electrons
E(X)               :      -79.591943249658 Eh       
E(C)               :       -7.460151011560 Eh       
E(XC)              :      -87.052094261218 Eh       
DFET-embed. en.    :        0.000000000000 Eh       

---------------
SCF CONVERGENCE
---------------

  Last Energy change         ...    1.2336e-08  Tolerance :   1.0000e-08
  Last MAX-Density change    ...    0.0000e+00  Tolerance :   1.0000e-07
  Last RMS-Density change    ...    0.0000e+00  Tolerance :   5.0000e-09
  Last DIIS Error            ...    7.9871e-07  Tolerance :   5.0000e-07

             **** THE GBW FILE WAS UPDATED (reaction4-IEIP_ts_guess_scan_11-8_orca.gbw) ****
             **** DENSITY reaction4-IEIP_ts_guess_scan_11-8_orca.scfp WAS UPDATED ****
             **** ENERGY FILE WAS UPDATED (reaction4-IEIP_ts_guess_scan_11-8_orca.en.tmp) ****
             **** THE GBW FILE WAS UPDATED (reaction4-IEIP_ts_guess_scan_11-8_orca.gbw) ****
             **** DENSITY reaction4-IEIP_ts_guess_scan_11-8_orca.scfp WAS UPDATED ****
----------------
ORBITAL ENERGIES
----------------

  NO   OCC          E(Eh)            E(eV) 
   0   2.0000     -89.763678     -2442.5938 
   1   2.0000     -19.633644      -534.2586 
   2   2.0000     -19.616959      -533.8046 
   3   2.0000     -14.834368      -403.6637 
   4   2.0000     -10.694475      -291.0115 
   5   2.0000     -10.654562      -289.9254 
   6   2.0000     -10.627550      -289.1903 
   7   2.0000     -10.625485      -289.1342 
   8   2.0000     -10.625410      -289.1321 
   9   2.0000     -10.624636      -289.1110 
  10   2.0000     -10.617118      -288.9065 
  11   2.0000     -10.615380      -288.8592 
  12   2.0000     -10.613009      -288.7947 
  13   2.0000     -10.609932      -288.7109 
  14   2.0000     -10.588609      -288.1307 
  15   2.0000     -10.588116      -288.1173 
  16   2.0000     -10.553864      -287.1852 
  17   2.0000     -10.550773      -287.1011 
  18   2.0000     -10.543046      -286.8909 
  19   2.0000      -8.403111      -228.6603 
  20   2.0000      -6.292991      -171.2410 
  21   2.0000      -6.289431      -171.1441 
  22   2.0000      -6.288090      -171.1076 
  23   2.0000      -4.022709      -109.4635 
  24   2.0000      -2.340253       -63.6815 
  25   2.0000      -2.308719       -62.8234 
  26   2.0000      -2.305990       -62.7492 
  27   2.0000      -1.323241       -36.0072 
  28   2.0000      -1.224197       -33.3121 
  29   2.0000      -1.209781       -32.9198 
  30   2.0000      -1.162379       -31.6300 
  31   2.0000      -1.127644       -30.6847 
  32   2.0000      -1.025297       -27.8998 
  33   2.0000      -0.975326       -26.5400 
  34   2.0000      -0.969845       -26.3908 
  35   2.0000      -0.968224       -26.3467 
  36   2.0000      -0.959528       -26.1101 
  37   2.0000      -0.937937       -25.5226 
  38   2.0000      -0.900541       -24.5050 
  39   2.0000      -0.872568       -23.7438 
  40   2.0000      -0.799154       -21.7461 
  41   2.0000      -0.782629       -21.2964 
  42   2.0000      -0.778490       -21.1838 
  43   2.0000      -0.778165       -21.1749 
  44   2.0000      -0.763492       -20.7757 
  45   2.0000      -0.760572       -20.6962 
  46   2.0000      -0.743773       -20.2391 
  47   2.0000      -0.723379       -19.6841 
  48   2.0000      -0.692173       -18.8350 
  49   2.0000      -0.684254       -18.6195 
  50   2.0000      -0.663700       -18.0602 
  51   2.0000      -0.658609       -17.9217 
  52   2.0000      -0.648077       -17.6351 
  53   2.0000      -0.638257       -17.3679 
  54   2.0000      -0.632639       -17.2150 
  55   2.0000      -0.629674       -17.1343 
  56   2.0000      -0.621984       -16.9251 
  57   2.0000      -0.611056       -16.6277 
  58   2.0000      -0.599713       -16.3190 
  59   2.0000      -0.598842       -16.2953 
  60   2.0000      -0.598120       -16.2757 
  61   2.0000      -0.591509       -16.0958 
  62   2.0000      -0.579961       -15.7815 
  63   2.0000      -0.569860       -15.5067 
  64   2.0000      -0.565915       -15.3993 
  65   2.0000      -0.562604       -15.3092 
  66   2.0000      -0.554318       -15.0837 
  67   2.0000      -0.547174       -14.8894 
  68   2.0000      -0.542512       -14.7625 
  69   2.0000      -0.535628       -14.5752 
  70   2.0000      -0.530061       -14.4237 
  71   2.0000      -0.518595       -14.1117 
  72   2.0000      -0.513622       -13.9764 
  73   2.0000      -0.500559       -13.6209 
  74   2.0000      -0.495021       -13.4702 
  75   2.0000      -0.485587       -13.2135 
  76   2.0000      -0.479220       -13.0402 
  77   2.0000      -0.450220       -12.2511 
  78   2.0000      -0.445054       -12.1105 
  79   2.0000      -0.418830       -11.3969 
  80   2.0000      -0.416255       -11.3269 
  81   2.0000      -0.394960       -10.7474 
  82   0.0000      -0.203859        -5.5473 
  83   0.0000      -0.143167        -3.8958 
  84   0.0000      -0.134201        -3.6518 
  85   0.0000      -0.087209        -2.3731 
  86   0.0000      -0.074135        -2.0173 
  87   0.0000      -0.063863        -1.7378 
  88   0.0000      -0.063644        -1.7318 
  89   0.0000      -0.053062        -1.4439 
[...]

----------------------
LOEWDIN ATOMIC CHARGES
----------------------
   0 Ir:   -0.257954
   1 C :   -0.055038
   2 C :   -0.097789
   3 C :   -0.092822
   4 C :   -0.044599
   5 C :   -0.016395
   6 N :   -0.003138
   7 C :   -0.069315
   8 C :   -0.362626
   9 H :    0.156360
  10 H :    0.132931
  11 H :    0.143456
  12 C :   -0.343719
  13 H :    0.155215
  14 H :    0.150866
  15 H :    0.137936
  16 H :    0.133228
  17 C :    0.028364
  18 C :   -0.187610
  19 H :    0.160530
  20 C :   -0.219690
  21 C :   -0.125851
  22 S :    0.497595
  23 C :   -0.258369
  24 H :    0.354044
  25 H :    0.162280
  26 H :    0.169328
  27 H :    0.182038
  28 H :    0.179816
  29 H :    0.188386
  30 O :   -0.262179
  31 O :   -0.183891
  32 C :    0.163125
  33 C :   -0.372029
  34 H :    0.164270
  35 H :    0.171772
  36 H :    0.155316
  37 H :    0.181786
  38 H :    0.184374

-------------------------------
LOEWDIN REDUCED ORBITAL CHARGES
-------------------------------
  0 Irs       :     2.449052  s :     2.449052
      pz      :     2.254901  p :     6.776451
      px      :     2.254544
      py      :     2.267006
      dz2     :     1.746530  d :     7.943348
      dxz     :     1.655302
      dyz     :     1.412254
      dx2y2   :     1.608005
      dxy     :     1.521257
      f0      :     0.010628  f :     0.089104
      f+1     :     0.005302
      f-1     :     0.015635
      f+2     :     0.014247
      f-2     :     0.016374
      f+3     :     0.010812
      f-3     :     0.016105
  1 C s       :     2.874174  s :     2.874174
      pz      :     1.051852  p :     3.077449
      px      :     1.077822
      py      :     0.947774
      dz2     :     0.025836  d :     0.103415
      dxz     :     0.025782
      dyz     :     0.016620
      dx2y2   :     0.018924
      dxy     :     0.016254
  2 C s       :     2.875188  s :     2.875188
      pz      :     1.038947  p :     3.124157
      px      :     1.087015
      py      :     0.998195
      dz2     :     0.024238  d :     0.098444
      dxz     :     0.027947
      dyz     :     0.016240
      dx2y2   :     0.017325
      dxy     :     0.012695
  3 C s       :     2.871248  s :     2.871248
      pz      :     1.029611  p :     3.122395
      px      :     1.083564
      py      :     1.009220
      dz2     :     0.022347  d :     0.099179
      dxz     :     0.031297
      dyz     :     0.015258
      dx2y2   :     0.016260
      dxy     :     0.014018
  4 C s       :     2.874397  s :     2.874397
      pz      :     1.082154  p :     3.066398
      px      :     1.042462
      py      :     0.941782
      dz2     :     0.022613  d :     0.103804
      dxz     :     0.029386
      dyz     :     0.013294
      dx2y2   :     0.019449
      dxy     :     0.019062
  5 C s       :     2.880339  s :     2.880339
      pz      :     1.048576  p :     3.031638
      px      :     1.042184
      py      :     0.940877
      dz2     :     0.021968  d :     0.104419
      dxz     :     0.031076
      dyz     :     0.015922
      dx2y2   :     0.015862
      dxy     :     0.019592
  6 N s       :     3.122854  s :     3.122854
      pz      :     1.250784  p :     3.781949
      px      :     1.287350
      py      :     1.243815
      dz2     :     0.030116  d :     0.098336
      dxz     :     0.027149
      dyz     :     0.018393
      dx2y2   :     0.012545
      dxy     :     0.010133
  7 C s       :     2.862324  s :     2.862324
      pz      :     1.057665  p :     3.072444
      px      :     0.938013
      py      :     1.076766
      dz2     :     0.027839  d :     0.134547
      dxz     :     0.028872
      dyz     :     0.014031
      dx2y2   :     0.030696
      dxy     :     0.033109
  8 C s       :     2.953516  s :     2.953516
      pz      :     1.137498  p :     3.341630
      px      :     1.123088
      py      :     1.081044
      dz2     :     0.014612  d :     0.067480
      dxz     :     0.017445
      dyz     :     0.006008
      dx2y2   :     0.010626
      dxy     :     0.018789
  9 H s       :     0.843640  s :     0.843640
 10 H s       :     0.867069  s :     0.867069
 11 H s       :     0.856544  s :     0.856544
 12 C s       :     2.953406  s :     2.953406
      pz      :     1.144676  p :     3.322368
      px      :     1.109848
      py      :     1.067844
      dz2     :     0.014208  d :     0.067946
      dxz     :     0.013760
      dyz     :     0.009561
      dx2y2   :     0.012393
      dxy     :     0.018023
 13 H s       :     0.844785  s :     0.844785
 14 H s       :     0.849134  s :     0.849134
 15 H s       :     0.862064  s :     0.862064
 16 H s       :     0.866772  s :     0.866772
 17 C s       :     2.875905  s :     2.875905
      pz      :     1.006880  p :     2.955503
      px      :     1.062618
      py      :     0.886006
      dz2     :     0.038546  d :     0.140228
      dxz     :     0.047671
      dyz     :     0.026490
      dx2y2   :     0.012781
      dxy     :     0.014740
 18 C s       :     2.890873  s :     2.890873
      pz      :     1.050628  p :     3.184024
      px      :     1.087229
      py      :     1.046168
      dz2     :     0.033759  d :     0.112713
      dxz     :     0.033947
      dyz     :     0.017593
      dx2y2   :     0.015691
      dxy     :     0.011723
 19 H s       :     0.839470  s :     0.839470
 20 C s       :     2.897031  s :     2.897031
      pz      :     1.142786  p :     3.222862
      px      :     1.060198
      py      :     1.019878
      dz2     :     0.014249  d :     0.099798
      dxz     :     0.038126
      dyz     :     0.013293
      dx2y2   :     0.017889
      dxy     :     0.016241
 21 C s       :     2.896403  s :     2.896403
      pz      :     1.078316  p :     3.134857
      px      :     1.084651
      py      :     0.971890
      dz2     :     0.028739  d :     0.094591
      dxz     :     0.031956
      dyz     :     0.014591
      dx2y2   :     0.012238
      dxy     :     0.007067
 22 S s       :     5.498806  s :     5.498806
      pz      :     3.257821  p :     9.847912
      px      :     3.083113
      py      :     3.506978
      dz2     :     0.049160  d :     0.155687
      dxz     :     0.035681
      dyz     :     0.017443
      dx2y2   :     0.026951
      dxy     :     0.026453
 23 C s       :     2.964039  s :     2.964039
      pz      :     1.120549  p :     3.208648
      px      :     1.028116
      py      :     1.059983
      dz2     :     0.023915  d :     0.085683
      dxz     :     0.030784
      dyz     :     0.011581
      dx2y2   :     0.010994
      dxy     :     0.008408
 24 H s       :     0.645956  s :     0.645956
 25 H s       :     0.837720  s :     0.837720
 26 H s       :     0.830672  s :     0.830672
 27 H s       :     0.817962  s :     0.817962
 28 H s       :     0.820184  s :     0.820184
 29 H s       :     0.811614  s :     0.811614
 30 O s       :     3.514827  s :     3.514827
      pz      :     1.453733  p :     4.692808
      px      :     1.568570
      py      :     1.670506
      dz2     :     0.015297  d :     0.054543
      dxz     :     0.015580
      dyz     :     0.013593
      dx2y2   :     0.006153
      dxy     :     0.003919
 31 O s       :     3.443705  s :     3.443705
      pz      :     1.687220  p :     4.680048
      px      :     1.597149
      py      :     1.395679
      dz2     :     0.009026  d :     0.060139
      dxz     :     0.004653
      dyz     :     0.014983
      dx2y2   :     0.014475
      dxy     :     0.017001
 32 C s       :     2.813247  s :     2.813247
      pz      :     0.961389  p :     2.704816
      px      :     0.782678
      py      :     0.960749
      dz2     :     0.069962  d :     0.318811
      dxz     :     0.051308
      dyz     :     0.093021
      dx2y2   :     0.052143
      dxy     :     0.052377
 33 C s       :     2.958436  s :     2.958436
      pz      :     1.103766  p :     3.351000
      px      :     1.153803
      py      :     1.093431
      dz2     :     0.004031  d :     0.062593
      dxz     :     0.016857
      dyz     :     0.021177
      dx2y2   :     0.018269
      dxy     :     0.002259
 34 H s       :     0.835730  s :     0.835730
 35 H s       :     0.828228  s :     0.828228
 36 H s       :     0.844684  s :     0.844684
 37 H s       :     0.818214  s :     0.818214
 38 H s       :     0.815626  s :     0.815626


                      *****************************
                      * MAYER POPULATION ANALYSIS *
                      *****************************

  NA   - Mulliken gross atomic population
  ZA   - Total nuclear charge
  QA   - Mulliken gross atomic charge
  VA   - Mayer's total valence
  BVA  - Mayer's bonded valence
  FA   - Mayer's free valence

  ATOM       NA         ZA         QA         VA         BVA        FA
  0 Ir    16.3933    17.0000     0.6067     3.7571     3.7571    -0.0000
  1 C      6.2382     6.0000    -0.2382     3.7231     3.7231     0.0000
  2 C      6.2623     6.0000    -0.2623     3.7324     3.7324     0.0000
  3 C      6.2672     6.0000    -0.2672     3.7426     3.7426     0.0000
  4 C      6.2286     6.0000    -0.2286     3.7177     3.7177     0.0000
  5 C      6.1545     6.0000    -0.1545     3.6997     3.6997     0.0000
  6 N      7.4335     7.0000    -0.4335     3.2152     3.2152     0.0000
  7 C      6.1251     6.0000    -0.1251     3.7070     3.7070    -0.0000
  8 C      6.6838     6.0000    -0.6838     3.6892     3.6892    -0.0000
  9 H      0.7302     1.0000     0.2698     0.8973     0.8973    -0.0000
 10 H      0.7753     1.0000     0.2247     0.9105     0.9105     0.0000
 11 H      0.7460     1.0000     0.2540     0.9003     0.9003     0.0000
 12 C      6.6342     6.0000    -0.6342     3.6710     3.6710     0.0000
 13 H      0.7198     1.0000     0.2802     0.8730     0.8730    -0.0000
 14 H      0.7408     1.0000     0.2592     0.8985     0.8985    -0.0000
 15 H      0.7675     1.0000     0.2325     0.9095     0.9095    -0.0000
 16 H      0.7666     1.0000     0.2334     0.9059     0.9059     0.0000
 17 C      5.9310     6.0000     0.0690     3.6612     3.6612     0.0000
 18 C      6.1239     6.0000    -0.1239     3.6937     3.6937    -0.0000
 19 H      0.7142     1.0000     0.2858     0.8865     0.8865    -0.0000
 20 C      6.5609     6.0000    -0.5609     3.5560     3.5560     0.0000
 21 C      6.0998     6.0000    -0.0998     3.7504     3.7504     0.0000
 22 S     15.6581    16.0000     0.3419     2.5998     2.5998    -0.0000
 23 C      6.4277     6.0000    -0.4277     3.7534     3.7534     0.0000
 24 H      0.5271     1.0000     0.4729     0.7464     0.7464    -0.0000
 25 H      0.7333     1.0000     0.2667     0.9022     0.9022    -0.0000
 26 H      0.7019     1.0000     0.2981     0.8971     0.8971    -0.0000
 27 H      0.7145     1.0000     0.2855     0.9055     0.9055    -0.0000
 28 H      0.7178     1.0000     0.2822     0.9092     0.9092     0.0000
 29 H      0.7018     1.0000     0.2982     0.8954     0.8954     0.0000
 30 O      8.4790     8.0000    -0.4790     2.1405     2.1405    -0.0000
 31 O      8.5114     8.0000    -0.5114     2.1117     2.1117    -0.0000
 32 C      5.3696     6.0000     0.6304     3.8953     3.8953    -0.0000
 33 C      6.7439     6.0000    -0.7439     3.6598     3.6598     0.0000
 34 H      0.7275     1.0000     0.2725     0.8935     0.8935    -0.0000
 35 H      0.7252     1.0000     0.2748     0.8916     0.8916     0.0000
 36 H      0.7395     1.0000     0.2605     0.8978     0.8978     0.0000
 37 H      0.7177     1.0000     0.2823     0.9087     0.9087     0.0000
 38 H      0.7075     1.0000     0.2925     0.9035     0.9035     0.0000

  Mayer bond orders larger than 0.100000
B(  0-Ir,  1-C ) :   0.4377 B(  0-Ir,  2-C ) :   0.4141 B(  0-Ir,  3-C ) :   0.4646 
B(  0-Ir,  4-C ) :   0.4297 B(  0-Ir,  5-C ) :   0.3764 B(  0-Ir,  6-N ) :   0.4651 
B(  0-Ir, 20-C ) :   0.4744 B(  0-Ir, 31-O ) :   0.5251 B(  1-C ,  2-C ) :   1.1296 
B(  1-C ,  4-C ) :   1.2272 B(  1-C , 27-H ) :   0.9076 B(  2-C ,  5-C ) :   1.2031 
B(  2-C , 28-H ) :   0.9105 B(  3-C ,  4-C ) :   1.1337 B(  3-C ,  5-C ) :   1.1832 
B(  3-C , 37-H ) :   0.9127 B(  4-C , 38-H ) :   0.9001 B(  5-C , 29-H ) :   0.9011 
B(  6-N ,  7-C ) :   0.8960 B(  6-N , 17-C ) :   1.6487 B(  7-C ,  8-C ) :   0.9906 
B(  7-C , 12-C ) :   0.9665 B(  7-C , 13-H ) :   0.8757 B(  8-C ,  9-H ) :   0.9046 
B(  8-C , 10-H ) :   0.9129 B(  8-C , 11-H ) :   0.9119 B( 12-C , 14-H ) :   0.9077 
B( 12-C , 15-H ) :   0.9153 B( 12-C , 16-H ) :   0.9118 B( 17-C , 18-C ) :   1.1103 
B( 17-C , 19-H ) :   0.8762 B( 18-C , 20-C ) :   1.2275 B( 18-C , 22-S ) :   1.2438 
B( 20-C , 21-C ) :   1.2655 B( 20-C , 24-H ) :   0.3563 B( 21-C , 23-C ) :   1.5449 
B( 21-C , 25-H ) :   0.9025 B( 22-S , 23-C ) :   1.2159 B( 23-C , 26-H ) :   0.8913 
B( 24-H , 30-O ) :   0.3342 B( 30-O , 32-C ) :   1.5778 B( 31-O , 32-C ) :   1.3699 
B( 32-C , 33-C ) :   0.9445 B( 33-C , 34-H ) :   0.9005 B( 33-C , 35-H ) :   0.8938 
B( 33-C , 36-H ) :   0.9083 


------------------
HIRSHFELD ANALYSIS
------------------

Total integrated alpha density =     82.000157889
Total integrated beta density  =     82.000157889

  ATOM     CHARGE      SPIN    
   0 Ir   0.175339    0.000000
   1 C   -0.001643    0.000000
   2 C   -0.017043    0.000000
   3 C   -0.019169    0.000000
   4 C    0.001173    0.000000
   5 C    0.019404    0.000000
   6 N   -0.068253    0.000000
   7 C    0.052465    0.000000
   8 C   -0.071415    0.000000
   9 H    0.053303    0.000000
  10 H    0.037568    0.000000
  11 H    0.041108    0.000000
  12 C   -0.071136    0.000000
  13 H    0.045119    0.000000
  14 H    0.049887    0.000000
  15 H    0.037251    0.000000
  16 H    0.030513    0.000000
  17 C    0.093575    0.000000
  18 C   -0.007386    0.000000
  19 H    0.076684    0.000000
  20 C   -0.088390    0.000000
  21 C   -0.025791    0.000000
  22 S    0.144075    0.000000
  23 C   -0.024858    0.000000
  24 H    0.098815    0.000000
  25 H    0.068693    0.000000
  26 H    0.079347    0.000000
  27 H    0.080774    0.000000
  28 H    0.078947    0.000000
  29 H    0.090854    0.000000
  30 O   -0.234692    0.000000
  31 O   -0.245264    0.000000
  32 C    0.249799    0.000000
  33 C   -0.062504    0.000000
  34 H    0.058178    0.000000
  35 H    0.063700    0.000000
  36 H    0.050816    0.000000
  37 H    0.080358    0.000000
  38 H    0.079481    0.000000

  TOTAL   0.999684    0.000000

-------
TIMINGS
-------

Total SCF time: 0 days 0 hours 4 min 47 sec 

Total time                  ....     287.546 sec
Sum of individual times     ....     286.944 sec  ( 99.8%)

Fock matrix formation       ....     278.480 sec  ( 96.8%)
  Split-RI-J                ....      22.455 sec  (  8.1% of F)
  Chain of spheres X        ....     240.082 sec  ( 86.2% of F)
  XC integration            ....      15.934 sec  (  5.7% of F)
    Basis function eval.    ....       7.389 sec  ( 46.4% of XC)
    Density eval.           ....       4.156 sec  ( 26.1% of XC)
    XC-Functional eval.     ....       1.162 sec  (  7.3% of XC)
    XC-Potential eval.      ....       2.638 sec  ( 16.6% of XC)
Diagonalization             ....       0.241 sec  (  0.1%)
Density matrix formation    ....       0.039 sec  (  0.0%)
Population analysis         ....       1.444 sec  (  0.5%)
Initial guess               ....       0.040 sec  (  0.0%)
Orbital Transformation      ....       0.000 sec  (  0.0%)
Orbital Orthonormalization  ....       0.029 sec  (  0.0%)
DIIS solution               ....       0.095 sec  (  0.0%)
Grid generation             ....       6.604 sec  (  2.3%)

Maximum memory used throughout the entire SCF-calculation: 173.2 MB


-------------------------------------------------------------------------------
                          DFT DISPERSION CORRECTION                            
                                                                               
                              DFTD3 V3.1  Rev 1                                
                          USING Becke-Johnson damping                          
-------------------------------------------------------------------------------
The PBEh-3c composite method is recognized
Using three-body term ABC
Active option DFTDOPT                   ...         4   

molecular C6(AA) [au] = 19544.093237 


            DFT-D V3
 parameters
 s6 scaling factor         :     1.0000 
 a1 scaling factor         :     0.4860 
 s8 scaling factor         :     0.0000 
 a2 scaling factor         :     4.5000 
 Damping factor alpha9(ATM):    16.0000 
 ad hoc parameters k1-k3   :    16.0000     1.3333    -4.0000 

 Edisp/kcal,au: -19.268859933756  -0.030706879617 
 E6   /kcal   : -19.605310474 
 E8   /kcal   :  -0.000000000 
 E6(ABC)      :   0.336450540 
 % E8         :   0.000000000 
 % E6(ABC)    :  -1.746084309 

-------------------------   ----------------
Dispersion correction           -0.030706880
-------------------------   ----------------

 ** NOTE ** -> element ir will be treated as co
NOTIFICATION: Different basis set in ORCA and otool_gcp:
ORCA: 358  gCP: 357 
If you are NOT using ECPs, check your basis set inputs!
------------------   -----------------
gCP correction             0.080186702
------------------   -----------------

-------------------------   --------------------
FINAL SINGLE POINT ENERGY     -1288.401870633099
-------------------------   --------------------

                                *** OPTIMIZATION RUN DONE ***

                            ***************************************
                            *     ORCA property calculations      *
                            ***************************************

                                    ---------------------
                                    Active property flags
                                    ---------------------
   (+) Dipole Moment


------------------------------------------------------------------------------
                       ORCA ELECTRIC PROPERTIES CALCULATION
------------------------------------------------------------------------------

Dipole Moment Calculation                       ... on
Quadrupole Moment Calculation                   ... off
Polarizability Calculation                      ... off
GBWName                                         ... reaction4-IEIP_ts_guess_scan_11-8_orca.gbw
Electron density                                ... reaction4-IEIP_ts_guess_scan_11-8_orca.scfp
The origin for moment calculation is the CENTER OF MASS  = ( 0.868184, -0.551723 -0.179057)

-------------
DIPOLE MOMENT
-------------
                                X             Y             Z
Electronic contribution:     37.21314     -73.29918      71.12492
Nuclear contribution   :    -37.82668      72.77286     -71.41445
                        -----------------------------------------
Total Dipole Moment    :     -0.61354      -0.52632      -0.28953
                        -----------------------------------------
Magnitude (a.u.)       :      0.85865
Magnitude (Debye)      :      2.18251



--------------------
Rotational spectrum 
--------------------
 
Rotational constants in cm-1:     0.010538     0.008890     0.008218 
Rotational constants in MHz :   315.927201   266.530225   246.381425 

 Dipole components along the rotational axes: 
x,y,z [a.u.] :    -0.001643     0.069171     0.855855 
x,y,z [Debye]:    -0.004175     0.175819     2.175410 

 

Timings for individual modules:

Sum of individual times         ...     4345.395 sec (=  72.423 min)
GTO integral calculation        ...       14.170 sec (=   0.236 min)   0.3 %
SCF iterations                  ...     3515.018 sec (=  58.584 min)  80.9 %
SCF Gradient evaluation         ...      814.057 sec (=  13.568 min)  18.7 %
Geometry relaxation             ...        2.150 sec (=   0.036 min)   0.0 %
                             ****ORCA TERMINATED NORMALLY****
TOTAL RUN TIME: 0 days 1 hours 12 minutes 28 seconds 289 msec
