
                                 *****************
                                 * O   R   C   A *
                                 *****************

                                            #,                                       
                                            ###                                      
                                            ####                                     
                                            #####                                    
                                            ######                                   
                                           ########,                                 
                                     ,,################,,,,,                         
                               ,,#################################,,                 
                          ,,##########################################,,             
                       ,#########################################, ''#####,          
                    ,#############################################,,   '####,        
                  ,##################################################,,,,####,       
                ,###########''''           ''''###############################       
              ,#####''   ,,,,##########,,,,          '''####'''          '####       
            ,##' ,,,,###########################,,,                        '##       
           ' ,,###''''                  '''############,,,                           
         ,,##''                                '''############,,,,        ,,,,,,###''
      ,#''                                            '''#######################'''  
     '                                                          ''''####''''         
             ,#######,   #######,   ,#######,      ##                                
            ,#'     '#,  ##    ##  ,#'     '#,    #''#        ######   ,####,        
            ##       ##  ##   ,#'  ##            #'  '#       #        #'  '#        
            ##       ##  #######   ##           ,######,      #####,   #    #        
            '#,     ,#'  ##    ##  '#,     ,#' ,#      #,         ##   #,  ,#        
             '#######'   ##     ##  '#######'  #'      '#     #####' # '####'        



                  #######################################################
                  #                        -***-                        #
                  #          Department of theory and spectroscopy      #
                  #    Directorship and core code : Frank Neese         #
                  #        Max Planck Institute fuer Kohlenforschung    #
                  #                Kaiser Wilhelm Platz 1               #
                  #                 D-45470 Muelheim/Ruhr               #
                  #                      Germany                        #
                  #                                                     #
                  #                  All rights reserved                #
                  #                        -***-                        #
                  #######################################################


                         Program Version 5.0.3 -  RELEASE  -


 With contributions from (in alphabetic order):
   Daniel Aravena         : Magnetic Suceptibility
   Michael Atanasov       : Ab Initio Ligand Field Theory (pilot matlab implementation)
   Alexander A. Auer      : GIAO ZORA, VPT2 properties, NMR spectrum
   Ute Becker             : Parallelization
   Giovanni Bistoni       : ED, misc. LED, open-shell LED, HFLD
   Martin Brehm           : Molecular dynamics
   Dmytro Bykov           : SCF Hessian
   Vijay G. Chilkuri      : MRCI spin determinant printing, contributions to CSF-ICE
   Dipayan Datta          : RHF DLPNO-CCSD density
   Achintya Kumar Dutta   : EOM-CC, STEOM-CC
   Dmitry Ganyushin       : Spin-Orbit,Spin-Spin,Magnetic field MRCI
   Miquel Garcia          : C-PCM and meta-GGA Hessian, CC/C-PCM, Gaussian charge scheme
   Yang Guo               : DLPNO-NEVPT2, F12-NEVPT2, CIM, IAO-localization
   Andreas Hansen         : Spin unrestricted coupled pair/coupled cluster methods
   Benjamin Helmich-Paris : MC-RPA, TRAH-SCF, COSX integrals
   Lee Huntington         : MR-EOM, pCC
   Robert Izsak           : Overlap fitted RIJCOSX, COSX-SCS-MP3, EOM
   Marcus Kettner         : VPT2
   Christian Kollmar      : KDIIS, OOCD, Brueckner-CCSD(T), CCSD density, CASPT2, CASPT2-K
   Simone Kossmann        : Meta GGA functionals, TD-DFT gradient, OOMP2, MP2 Hessian
   Martin Krupicka        : Initial AUTO-CI
   Lucas Lang             : DCDCAS
   Marvin Lechner         : AUTO-CI (C++ implementation), FIC-MRCC
   Dagmar Lenk            : GEPOL surface, SMD
   Dimitrios Liakos       : Extrapolation schemes; Compound Job, initial MDCI parallelization
   Dimitrios Manganas     : Further ROCIS development; embedding schemes
   Dimitrios Pantazis     : SARC Basis sets
   Anastasios Papadopoulos: AUTO-CI, single reference methods and gradients
   Taras Petrenko         : DFT Hessian,TD-DFT gradient, ASA, ECA, R-Raman, ABS, FL, XAS/XES, NRVS
   Peter Pinski           : DLPNO-MP2, DLPNO-MP2 Gradient
   Christoph Reimann      : Effective Core Potentials
   Marius Retegan         : Local ZFS, SOC
   Christoph Riplinger    : Optimizer, TS searches, QM/MM, DLPNO-CCSD(T), (RO)-DLPNO pert. Triples
   Tobias Risthaus        : Range-separated hybrids, TD-DFT gradient, RPA, STAB
   Michael Roemelt        : Original ROCIS implementation
   Masaaki Saitow         : Open-shell DLPNO-CCSD energy and density
   Barbara Sandhoefer     : DKH picture change effects
   Avijit Sen             : IP-ROCIS
   Kantharuban Sivalingam : CASSCF convergence, NEVPT2, FIC-MRCI
   Bernardo de Souza      : ESD, SOC TD-DFT
   Georgi Stoychev        : AutoAux, RI-MP2 NMR, DLPNO-MP2 response
   Willem Van den Heuvel  : Paramagnetic NMR
   Boris Wezisla          : Elementary symmetry handling
   Frank Wennmohs         : Technical directorship


 We gratefully acknowledge several colleagues who have allowed us to
 interface, adapt or use parts of their codes:
   Stefan Grimme, W. Hujo, H. Kruse, P. Pracht,  : VdW corrections, initial TS optimization,
                  C. Bannwarth, S. Ehlert          DFT functionals, gCP, sTDA/sTD-DF
   Ed Valeev, F. Pavosevic, A. Kumar             : LibInt (2-el integral package), F12 methods
   Garnet Chan, S. Sharma, J. Yang, R. Olivares  : DMRG
   Ulf Ekstrom                                   : XCFun DFT Library
   Mihaly Kallay                                 : mrcc  (arbitrary order and MRCC methods)
   Jiri Pittner, Ondrej Demel                    : Mk-CCSD
   Frank Weinhold                                : gennbo (NPA and NBO analysis)
   Christopher J. Cramer and Donald G. Truhlar   : smd solvation model
   Lars Goerigk                                  : TD-DFT with DH, B97 family of functionals
   V. Asgeirsson, H. Jonsson                     : NEB implementation
   FAccTs GmbH                                   : IRC, NEB, NEB-TS, DLPNO-Multilevel, CI-OPT
                                                   MM, QMMM, 2- and 3-layer-ONIOM, Crystal-QMMM,
                                                   LR-CPCM, SF, NACMEs, symmetry and pop. for TD-DFT,
                                                   nearIR, NL-DFT gradient (VV10), updates on ESD,
                                                   ML-optimized integration grids
   S Lehtola, MJT Oliveira, MAL Marques          : LibXC Library
   Liviu Ungur et al                             : ANISO software


 Your calculation uses the libint2 library for the computation of 2-el integrals
 For citations please refer to: http://libint.valeyev.net

 Your ORCA version has been built with support for libXC version: 5.1.0
 For citations please refer to: https://tddft.org/programs/libxc/

 This ORCA versions uses:
   CBLAS   interface :  Fast vector & matrix operations
   LAPACKE interface :  Fast linear algebra routines
   SCALAPACK package :  Parallel linear algebra routines
   Shared memory     :  Shared parallel matrices
   BLAS/LAPACK       :  OpenBLAS 0.3.15  USE64BITINT DYNAMIC_ARCH NO_AFFINITY SkylakeX SINGLE_THREADED
        Core in use  :  SkylakeX
   Copyright (c) 2011-2014, The OpenBLAS Project


Your calculation utilizes the geometrical counterpoise correction gCP
Please cite in your paper:
H.Kruse, S. Grimme J.Chem.Phys., 136, (2012), 154101 
   

Your calculation utilizes the atom-pairwise dispersion correction
with the Becke-Johnson damping scheme (D3BJ)
Cite in your paper:
S.Grimme, S.Ehrlich, L.Goerigk, J Comput Chem, (2011), 32, 1456–1465 
S.Grimme, J.Antony, S.Ehrlich and H.Krieg, J.Chem.Phys., 132, (2010), 154104 
   

Your calculation employs the composite approach PBEh-3c.
Please cite in your paper:
S. Grimme, J. G. Brandenburg, C. Bannwarth, A. Hansen J.Chem.Phys., 143, (2015), 054107 
   

================================================================================

cite the ECPs for Ir [Def2-ECP] as follows:
Ce-Yb(ecp-28): M. Dolg, H. Stoll, H.Preuss, J. Chem. Phys., 1989, 90, 1730-1734.
Y-Cd(ecp-28), Hf-Hg(ecp-46): D. Andrae,U. Haeussermann, M. Dolg, H. Stoll, H. Preuss, Theor. Chim. Acta, 1990, 77, 123-141.
In-Sb(ecp-28), Tl-Bi(ecp-46): B. Metz, H. Stoll, M. Dolg, J. Chem. Phys., 2000, 113, 2563-2569.
Te-Xe(ecp-28), Po-Rn(ecp-46): K. A. Peterson, D. Figgen, E. Goll, H. Stoll, M. Dolg, J. Chem. Phys., 2003, 119, 11113-11123.
Rb(ecp-28), Cs(ecp-46): T. Leininger, A. Nicklass, W. Kuechle, H. Stoll, M. Dolg, A. Bergner, Chem. Phys. Lett., 1996, 255, 274-280.
Sr(ecp-28), Ba(ecp-46): M. Kaupp, P. V. Schleyer, H. Stoll and H. Preuss, J. Chem. Phys., 1991, 94, 1360-1366.
La(ecp-46): M. Dolg, H. Stoll, A. Savin, H. Preuss, Theor. Chim. Acta, 1989, 75, 173-194.
Lu(ecp-28): X. Cao, M. Dolg, J. Chem. Phys., 2001, 115, 7348-7355.

ECP parameters for Ir [Def2-ECP] have been obtained from:
TURBOMOLE (7.0.2)

----- Orbital basis set information -----
Your calculation utilizes the basis: def2-mSVP

----- AuxJ basis set information -----
Your calculation utilizes the auxiliary basis: def2/J
   F. Weigend, Phys. Chem. Chem. Phys. 8, 1057 (2006).

================================================================================
                                        WARNINGS
                       Please study these warnings very carefully!
================================================================================


WARNING: Geometry Optimization
  ===> : Switching off AutoStart
         For restart on a previous wavefunction, please use MOREAD

WARNING: No Hueckel Guess possible with ECP basis!
  ===> : Switching to HCORE guess!

INFO   : the flag for use of the SHARK integral package has been found!

================================================================================
                                       INPUT FILE
================================================================================
NAME = reaction4-IEIP_ts_guess_scan_2-6_orca.inp
|  1> ! Opt PBEh-3c
|  2> %geom Constraints
|  3> { B 0 20 2.5142857142857142 C }
|  4> { B 24 30 1.4142857142857144 C }
|  5>     end
|  6> end
|  7> %output 
|  8> xyzfile=True 
|  9> end 
| 10> %scf 
| 11> maxiter 250 
| 12> end
| 13> %output
| 14> Print[P_Hirshfeld] = 1
| 15> end
| 16> % maxcore
| 17> 4000
| 18> *xyz 1 1
| 19> Ir   0.57688575  -0.73057912   0.47264966 
| 20> C    0.02050083  -2.80921611   0.34598992 
| 21> C    0.10991737  -2.36596546   1.71684624 
| 22> C    2.18984083  -2.14538366   0.75699034 
| 23> C    1.28215664  -2.64487713  -0.25167781 
| 24> C    1.48013299  -2.01402687   1.96260499 
| 25> N   -1.04339377   0.17279733  -0.51537721 
| 26> C   -2.31649066   0.51022738   0.14064790 
| 27> C   -3.13660014   1.54211019  -0.61625616 
| 28> H   -3.97094675   1.85533383   0.00973949 
| 29> H   -3.57001529   1.14848449  -1.53714154 
| 30> H   -2.55711234   2.43520912  -0.85239265 
| 31> C   -3.11421801  -0.76251368   0.39621675 
| 32> H   -2.02612997   0.93783706   1.10189520 
| 33> H   -4.02988608  -0.51723277   0.93204573 
| 34> H   -3.39627533  -1.24825169  -0.53890772 
| 35> H   -2.56479219  -1.47630551   1.00839321 
| 36> C   -0.82957923   0.37859272  -1.75675283 
| 37> C    0.52412569   0.15393429  -2.22026534 
| 38> H   -1.60414363   0.73983594  -2.42738078 
| 39> C    1.63202491   0.54303071  -1.47762697 
| 40> C    2.83223020   0.12452787  -2.12108450 
| 41> S    0.94075100  -0.64954119  -3.67076252 
| 42> C    2.61215866  -0.51953034  -3.29797139 
| 43> H    1.54564523   1.40755180  -0.67593581 
| 44> H    3.82129887   0.34356019  -1.74571225 
| 45> H    3.34514244  -0.90947751  -3.98800280 
| 46> H   -0.87276332  -3.16581638  -0.14644416 
| 47> H   -0.67566308  -2.40242998   2.45742058 
| 48> H    1.87305896  -1.62936665   2.89276723 
| 49> O    1.30478499   2.44866866   0.27215615 
| 50> O    0.53628938   0.89885935   1.68148549 
| 51> C    0.90611573   2.10059239   1.38023416 
| 52> C    0.84708054   3.07370813   2.52418184 
| 53> H    0.80444943   4.09540778   2.15679409 
| 54> H    1.75254079   2.97234423   3.12571252 
| 55> H    0.00131373   2.87714848   3.17983912 
| 56> H    3.23350512  -1.91224811   0.60600648 
| 57> H    1.53542969  -2.85780974  -1.28018454 
| 58> *
| 59> 
| 60>                          ****END OF INPUT****
================================================================================

                       *****************************
                       * Geometry Optimization Run *
                       *****************************

Geometry optimization settings:
Update method            Update   .... BFGS
Choice of coordinates    CoordSys .... Z-matrix Internals
Initial Hessian          InHess   .... Almoef's Model

Convergence Tolerances:
Energy Change            TolE     ....  5.0000e-06 Eh
Max. Gradient            TolMAXG  ....  3.0000e-04 Eh/bohr
RMS Gradient             TolRMSG  ....  1.0000e-04 Eh/bohr
Max. Displacement        TolMAXD  ....  4.0000e-03 bohr
RMS Displacement         TolRMSD  ....  2.0000e-03 bohr
Strict Convergence                ....  False
------------------------------------------------------------------------------
                        ORCA OPTIMIZATION COORDINATE SETUP
------------------------------------------------------------------------------

The optimization will be done in new redundant internal coordinates
Making redundant internal coordinates   ...  (new redundants) done
Evaluating the initial hessian          ...  (Almloef) done
Evaluating the coordinates              ...  done
Calculating the B-matrix                .... done
Calculating the G-matrix                .... done
Diagonalizing the G-matrix              .... done
Imposing constraints:
 Iter   0:  RMS(Cart)=    0.0240936525 RMS(Int)=    0.0025935342
 Iter   1:  RMS(Cart)=    0.0010534805 RMS(Int)=    0.0001265101
 Iter   2:  RMS(Cart)=    0.0000504458 RMS(Int)=    0.0000059597
 Iter   3:  RMS(Cart)=    0.0000023276 RMS(Int)=    0.0000002711
 Iter   4:  RMS(Cart)=    0.0000001041 RMS(Int)=    0.0000000120
 Iter   5:  RMS(Cart)=    0.0000000045 RMS(Int)=    0.0000000005
CONVERGED
Small eigenvalue found = 1.227e-02
Small eigenvalue found = 1.570e-02
Small eigenvalue found = 2.201e-02
Small eigenvalue found = 2.369e-02
Small eigenvalue found = 2.927e-02
The first mode is                       ....  227
The number of degrees of freedom        ....  111
Storing new coordinates                 .... done

    -----------------------------------------------------------------
                    Redundant Internal Coordinates


    -----------------------------------------------------------------
         Definition                    Initial Value    Approx d2E/dq
    -----------------------------------------------------------------
      1. B(C   1,Ir  0)                  2.1555         0.087362   
      2. B(C   2,C   1)                  1.4435         0.513300   
      3. B(C   2,Ir  0)                  2.1073         0.104312   
      4. B(C   3,Ir  0)                  2.1643         0.084598   
      5. B(C   4,Ir  0)                  2.1649         0.084423   
      6. B(C   4,C   3)                  1.4460         0.508699   
      7. B(C   4,C   1)                  1.4058         0.589783   
      8. B(C   5,Ir  0)                  2.1641         0.084676   
      9. B(C   5,C   2)                  1.4359         0.527887   
     10. B(C   5,C   3)                  1.4052         0.590973   
     11. B(N   6,Ir  0)                  2.1013         0.095320   
     12. B(C   7,N   6)                  1.4714         0.414968   
     13. B(C   8,C   7)                  1.5200         0.387617   
     14. B(H   9,C   8)                  1.0891         0.361308   
     15. B(H  10,C   8)                  1.0913         0.358454   
     16. B(H  11,C   8)                  1.0905         0.359438   
     17. B(C  12,C   7)                  1.5237         0.382371   
     18. B(H  13,C   7)                  1.0914         0.358252   
     19. B(H  14,C  12)                  1.0889         0.361546   
     20. B(H  15,C  12)                  1.0909         0.358976   
     21. B(H  16,C  12)                  1.0891         0.361299   
     22. B(C  17,N   6)                  1.2747         0.849550   
     23. B(C  18,C  17)                  1.4475         0.504176   
     24. B(H  19,C  17)                  1.0864         0.364941   
     25. B(C  20,C  18)                  1.3891         0.626245   
     26. B(C  20,Ir  0)                  2.5143         0.019980 C 
     27. B(C  21,C  20)                  1.4248         0.550085   
     28. B(S  22,C  18)                  1.7097         0.520520   
     29. B(C  23,C  21)                  1.3597         0.698813   
     30. B(C  23,S  22)                  1.7176         0.506003   
     31. B(H  24,C  20)                  1.1821         0.256652   
     32. B(H  25,C  21)                  1.0804         0.373107   
     33. B(H  26,C  23)                  1.0796         0.374168   
     34. B(H  27,C   1)                  1.0806         0.372829   
     35. B(H  28,C   2)                  1.0803         0.373247   
     36. B(H  29,C   5)                  1.0806         0.372841   
     37. B(O  30,H  24)                  1.4143         0.092980 C 
     38. B(O  31,Ir  0)                  2.0294         0.124419   
     39. B(C  32,O  30)                  1.2279         1.014777   
     40. B(C  32,O  31)                  1.2930         0.799343   
     41. B(C  33,C  32)                  1.5030         0.412505   
     42. B(H  34,C  33)                  1.0866         0.364650   
     43. B(H  35,C  33)                  1.0918         0.357760   
     44. B(H  36,C  33)                  1.0881         0.362694   
     45. B(H  37,C   3)                  1.0800         0.373585   
     46. B(H  38,C   4)                  1.0804         0.372995   
     47. A(C   2,Ir  0,O  31)          105.4816         0.267852   
     48. A(C   1,Ir  0,O  31)          143.5252         0.260816   
     49. A(C   5,Ir  0,N   6)          154.2010         0.249622   
     50. A(C   1,Ir  0,C   3)           64.5147         0.247586   
     51. A(C   1,Ir  0,C   5)           64.9306         0.247619   
     52. A(C   3,Ir  0,O  31)          117.4847         0.259570   
     53. A(C   3,Ir  0,N   6)          156.5275         0.249589   
     54. A(C   2,Ir  0,C   5)           39.2590         0.254115   
     55. A(C   3,Ir  0,C   4)           39.0244         0.246362   
     56. A(C   2,Ir  0,C   4)           65.3877         0.254003   
     57. A(C   5,Ir  0,O  31)           94.2648         0.259606   
     58. A(C   4,Ir  0,N   6)          118.2898         0.249514   
     59. A(C   1,Ir  0,C   2)           39.5671         0.255286   
     60. A(C   4,Ir  0,C   5)           64.5301         0.246395   
     61. A(C   4,Ir  0,O  31)          156.3254         0.259490   
     62. A(C   1,Ir  0,N   6)          100.8277         0.250762   
     63. A(C   2,Ir  0,C   3)           65.1826         0.254080   
     64. A(C   2,Ir  0,N   6)          116.1211         0.257386   
     65. A(C   1,Ir  0,C   4)           37.9761         0.247511   
     66. A(N   6,Ir  0,O  31)           85.3836         0.262986   
     67. A(C   3,Ir  0,C   5)           37.8880         0.246469   
     68. A(Ir  0,C   1,H  27)          123.9450         0.269980   
     69. A(C   2,C   1,C   4)          108.1969         0.415909   
     70. A(Ir  0,C   1,C   4)           71.3716         0.321141   
     71. A(C   4,C   1,H  27)          125.9298         0.352001   
     72. A(Ir  0,C   1,C   2)           68.4145         0.313957   
     73. A(C   2,C   1,H  27)          125.8262         0.343862   
     74. A(C   5,C   2,H  28)          125.7964         0.345548   
     75. A(Ir  0,C   2,C   5)           72.5053         0.324659   
     76. A(C   1,C   2,C   5)          107.2721         0.407807   
     77. A(Ir  0,C   2,C   1)           72.0184         0.323169   
     78. A(Ir  0,C   2,H  28)          126.3089         0.277439   
     79. A(C   1,C   2,H  28)          126.5592         0.343926   
     80. A(Ir  0,C   3,H  37)          124.1059         0.268750   
     81. A(C   4,C   3,C   5)          108.2862         0.415392   
     82. A(C   4,C   3,H  37)          125.7085         0.343459   
     83. A(Ir  0,C   3,C   4)           70.5078         0.311871   
     84. A(Ir  0,C   3,C   5)           71.0467         0.319563   
     85. A(C   5,C   3,H  37)          126.0051         0.352242   
     86. A(Ir  0,C   4,C   1)           70.6523         0.319350   
     87. A(Ir  0,C   4,H  38)          124.6909         0.268601   
     88. A(C   1,C   4,H  38)          126.3075         0.352027   
     89. A(C   3,C   4,H  38)          125.8014         0.343368   
     90. A(Ir  0,C   4,C   3)           70.4678         0.311766   
     91. A(C   1,C   4,C   3)          107.8902         0.415243   
     92. A(Ir  0,C   5,H  29)          122.2327         0.268706   
     93. A(C   3,C   5,H  29)          126.0299         0.352123   
     94. A(C   2,C   5,H  29)          125.5628         0.345485   
     95. A(Ir  0,C   5,C   3)           71.0654         0.319611   
     96. A(C   2,C   5,C   3)          108.1932         0.418139   
     97. A(Ir  0,C   5,C   2)           68.2357         0.313794   
     98. A(Ir  0,N   6,C  17)          112.9412         0.342215   
     99. A(C   7,N   6,C  17)          123.0267         0.421828   
    100. A(Ir  0,N   6,C   7)          124.0172         0.304307   
    101. A(N   6,C   7,C   8)          113.6099         0.369980   
    102. A(N   6,C   7,C  12)          109.6471         0.369115   
    103. A(C   8,C   7,C  12)          111.5998         0.367113   
    104. A(N   6,C   7,H  13)          104.6161         0.327722   
    105. A(C   8,C   7,H  13)          108.4305         0.326016   
    106. A(C  12,C   7,H  13)          108.5924         0.325286   
    107. A(C   7,C   8,H  11)          112.1546         0.326194   
    108. A(H   9,C   8,H  11)          107.2192         0.290908   
    109. A(H  10,C   8,H  11)          108.8891         0.290546   
    110. A(C   7,C   8,H   9)          108.8065         0.326472   
    111. A(C   7,C   8,H  10)          112.9330         0.326046   
    112. A(H   9,C   8,H  10)          106.5302         0.290783   
    113. A(C   7,C  12,H  14)          109.5510         0.325776   
    114. A(C   7,C  12,H  15)          111.3176         0.325394   
    115. A(H  14,C  12,H  15)          107.7402         0.290880   
    116. A(C   7,C  12,H  16)          112.1864         0.325740   
    117. A(H  14,C  12,H  16)          107.1727         0.291175   
    118. A(H  15,C  12,H  16)          108.6908         0.290849   
    119. A(N   6,C  17,C  18)          115.7536         0.439711   
    120. A(N   6,C  17,H  19)          122.5743         0.370930   
    121. A(C  18,C  17,H  19)          121.6293         0.341604   
    122. A(C  17,C  18,C  20)          121.8789         0.419035   
    123. A(C  17,C  18,S  22)          125.0249         0.427727   
    124. A(C  20,C  18,S  22)          113.0550         0.444764   
    125. A(C  18,C  20,C  21)          110.3420         0.425610   
    126. A(C  18,C  20,H  24)          120.6081         0.333991   
    127. A(C  21,C  20,H  24)          125.6535         0.326905   
    128. A(C  20,C  21,H  25)          123.6970         0.347929   
    129. A(C  23,C  21,H  25)          123.0251         0.362341   
    130. A(C  20,C  21,C  23)          113.1901         0.434067   
    131. A(C  18,S  22,C  23)           90.9678         0.451804   
    132. A(C  21,C  23,H  26)          127.9121         0.362517   
    133. A(S  22,C  23,H  26)          119.6472         0.361092   
    134. A(C  21,C  23,S  22)          112.4219         0.451376   
    135. A(Ir  0,O  31,C  32)          127.0663         0.354270   
    136. A(O  30,C  32,O  31)          124.5341         0.490912   
    137. A(O  30,C  32,C  33)          121.0552         0.437893   
    138. A(O  31,C  32,C  33)          114.3937         0.419548   
    139. A(C  32,C  33,H  34)          110.6688         0.330343   
    140. A(C  32,C  33,H  35)          109.0653         0.329303   
    141. A(H  34,C  33,H  35)          107.8272         0.291115   
    142. A(C  32,C  33,H  36)          111.8530         0.330050   
    143. A(H  34,C  33,H  36)          110.0666         0.291743   
    144. A(H  35,C  33,H  36)          107.2106         0.290870   
    145. D(C   2,C   1,Ir  0,C   4)    119.1939         0.001710   
    146. D(C   2,C   1,Ir  0,C   5)     39.1157         0.001710   
    147. D(H  27,C   1,Ir  0,O  31)     98.2661         0.001710   
    148. D(C   4,C   1,Ir  0,C   2)   -119.1939         0.001710   
    149. D(C   2,C   1,Ir  0,O  31)    -21.2379         0.001710   
    150. D(H  27,C   1,Ir  0,C   3)   -159.3028         0.001710   
    151. D(C   4,C   1,Ir  0,O  31)   -140.4318         0.001710   
    152. D(H  27,C   1,Ir  0,C   2)    119.5040         0.001710   
    153. D(C   4,C   1,Ir  0,C   3)    -38.0007         0.001710   
    154. D(H  27,C   1,Ir  0,N   6)      1.3238         0.001710   
    155. D(C   2,C   1,Ir  0,C   3)     81.1932         0.001710   
    156. D(C   4,C   1,Ir  0,N   6)    122.6259         0.001710   
    157. D(H  27,C   1,Ir  0,C   4)   -121.3021         0.001710   
    158. D(H  27,C   1,Ir  0,C   5)    158.6197         0.001710   
    159. D(C   4,C   1,Ir  0,C   5)    -80.0782         0.001710   
    160. D(C   2,C   1,Ir  0,N   6)   -118.1802         0.001710   
    161. D(Ir  0,C   2,C   1,H  27)   -117.0667         0.020893   
    162. D(C   1,C   2,Ir  0,C   5)   -115.4421         0.001798   
    163. D(C   1,C   2,Ir  0,C   4)    -36.2174         0.001798   
    164. D(H  28,C   2,C   1,H  27)      5.2335         0.020893   
    165. D(H  28,C   2,C   1,Ir  0)    122.3003         0.020893   
    166. D(C   5,C   2,C   1,H  27)    178.5213         0.020893   
    167. D(C   1,C   2,Ir  0,C   3)    -79.3630         0.001798   
    168. D(H  28,C   2,Ir  0,C   4)   -158.8083         0.001798   
    169. D(H  28,C   2,Ir  0,C   5)    121.9670         0.001798   
    170. D(C   5,C   2,Ir  0,C   3)     36.0791         0.001798   
    171. D(C   5,C   2,Ir  0,C   1)    115.4421         0.001798   
    172. D(H  28,C   2,C   1,C   4)   -177.1494         0.020893   
    173. D(C   5,C   2,Ir  0,C   4)     79.2247         0.001798   
    174. D(C   5,C   2,C   1,Ir  0)    -64.4119         0.020893   
    175. D(H  28,C   2,Ir  0,N   6)    -47.9558         0.001798   
    176. D(H  28,C   2,Ir  0,O  31)     44.4974         0.001798   
    177. D(Ir  0,C   2,C   1,C   4)     60.5503         0.020893   
    178. D(C   5,C   2,C   1,C   4)     -3.8616         0.020893   
    179. D(C   1,C   2,Ir  0,N   6)     74.6351         0.001798   
    180. D(C   5,C   2,Ir  0,O  31)    -77.4696         0.001798   
    181. D(H  28,C   2,Ir  0,C   1)   -122.5910         0.001798   
    182. D(C   1,C   2,Ir  0,O  31)    167.0883         0.001798   
    183. D(H  28,C   2,Ir  0,C   3)    158.0461         0.001798   
    184. D(C   5,C   2,Ir  0,N   6)   -169.9228         0.001798   
    185. D(C   4,C   3,Ir  0,C   5)    118.2603         0.001697   
    186. D(C   4,C   3,Ir  0,C   1)     36.9896         0.001697   
    187. D(C   4,C   3,Ir  0,O  31)    176.1161         0.001697   
    188. D(C   4,C   3,Ir  0,C   2)     80.8988         0.001697   
    189. D(C   5,C   3,Ir  0,O  31)     57.8558         0.001697   
    190. D(C   5,C   3,Ir  0,C   2)    -37.3615         0.001697   
    191. D(C   4,C   3,Ir  0,N   6)    -17.8958         0.001697   
    192. D(H  37,C   3,Ir  0,C   4)    120.5344         0.001697   
    193. D(H  37,C   3,Ir  0,C   1)    157.5240         0.001697   
    194. D(C   5,C   3,Ir  0,C   1)    -81.2707         0.001697   
    195. D(C   5,C   3,Ir  0,C   4)   -118.2603         0.001697   
    196. D(C   5,C   3,Ir  0,N   6)   -136.1560         0.001697   
    197. D(H  37,C   3,Ir  0,C   5)   -121.2053         0.001697   
    198. D(H  37,C   3,Ir  0,N   6)    102.6386         0.001697   
    199. D(H  37,C   3,Ir  0,O  31)    -63.3496         0.001697   
    200. D(H  37,C   3,Ir  0,C   2)   -158.5668         0.001697   
    201. D(C   1,C   4,Ir  0,C   3)    118.0359         0.001696   
    202. D(H  38,C   4,C   3,H  37)      0.6952         0.020509   
    203. D(C   1,C   4,Ir  0,C   5)     81.2268         0.001696   
    204. D(C   1,C   4,Ir  0,N   6)    -69.9538         0.001696   
    205. D(C   1,C   4,Ir  0,O  31)    109.4293         0.001696   
    206. D(C   1,C   4,Ir  0,C   2)     37.7080         0.001696   
    207. D(C   3,C   4,Ir  0,C   1)   -118.0359         0.001696   
    208. D(H  38,C   4,C   3,C   5)   -179.4180         0.020509   
    209. D(C   3,C   4,Ir  0,C   5)    -36.8091         0.001696   
    210. D(C   3,C   4,Ir  0,N   6)    172.0102         0.001696   
    211. D(C   3,C   4,Ir  0,O  31)     -8.6066         0.001696   
    212. D(Ir  0,C   4,C   1,C   2)    -58.7030         0.027935   
    213. D(H  38,C   4,Ir  0,C   2)    159.0527         0.001696   
    214. D(H  38,C   4,Ir  0,C   3)   -120.6194         0.001696   
    215. D(H  38,C   4,C   1,C   2)   -178.0793         0.027935   
    216. D(H  38,C   4,Ir  0,N   6)     51.3909         0.001696   
    217. D(H  38,C   4,Ir  0,O  31)   -129.2259         0.001696   
    218. D(Ir  0,C   4,C   1,H  27)    118.9110         0.027935   
    219. D(C   3,C   4,C   1,Ir  0)     60.9417         0.027935   
    220. D(C   3,C   4,C   1,H  27)    179.8527         0.027935   
    221. D(H  38,C   4,C   1,Ir  0)   -119.3763         0.027935   
    222. D(H  38,C   4,Ir  0,C   5)   -157.4284         0.001696   
    223. D(H  38,C   4,C   1,H  27)     -0.4654         0.027935   
    224. D(Ir  0,C   4,C   3,C   5)     61.3252         0.020509   
    225. D(Ir  0,C   4,C   3,H  37)   -118.5616         0.020509   
    226. D(C   3,C   4,C   1,C   2)      2.2388         0.027935   
    227. D(C   1,C   4,C   3,C   5)      0.2659         0.020509   
    228. D(C   1,C   4,C   3,H  37)   -179.6209         0.020509   
    229. D(H  38,C   4,C   3,Ir  0)    119.2568         0.020509   
    230. D(H  38,C   4,Ir  0,C   1)    121.3447         0.001696   
    231. D(C   1,C   4,C   3,Ir  0)    -61.0593         0.020509   
    232. D(C   3,C   4,Ir  0,C   2)    -80.3279         0.001696   
    233. D(C   2,C   5,Ir  0,C   1)    -39.4222         0.001697   
    234. D(H  29,C   5,C   3,C   4)   -177.5823         0.028054   
    235. D(C   2,C   5,Ir  0,C   4)    -81.5959         0.001697   
    236. D(C   2,C   5,Ir  0,N   6)     21.1604         0.001697   
    237. D(C   2,C   5,Ir  0,O  31)    109.3739         0.001697   
    238. D(C   3,C   5,Ir  0,C   1)     80.0750         0.001697   
    239. D(C   3,C   5,Ir  0,C   2)    119.4972         0.001697   
    240. D(C   3,C   5,Ir  0,C   4)     37.9013         0.001697   
    241. D(H  29,C   5,C   2,C   1)    178.9573         0.022139   
    242. D(C   3,C   5,Ir  0,O  31)   -131.1289         0.001697   
    243. D(H  29,C   5,Ir  0,C   1)   -158.6700         0.001697   
    244. D(C   3,C   5,C   2,Ir  0)    -60.0665         0.022139   
    245. D(H  29,C   5,Ir  0,C   3)    121.2549         0.001697   
    246. D(H  29,C   5,Ir  0,C   4)    159.1563         0.001697   
    247. D(H  29,C   5,Ir  0,N   6)    -98.0875         0.001697   
    248. D(H  29,C   5,Ir  0,O  31)     -9.8739         0.001697   
    249. D(Ir  0,C   5,C   2,C   1)     64.0890         0.022139   
    250. D(H  29,C   5,Ir  0,C   2)   -119.2478         0.001697   
    251. D(Ir  0,C   5,C   2,H  28)   -122.5579         0.022139   
    252. D(C   3,C   5,C   2,C   1)      4.0225         0.022139   
    253. D(C   3,C   5,C   2,H  28)    177.3756         0.022139   
    254. D(C   3,C   5,Ir  0,N   6)    140.6576         0.001697   
    255. D(H  29,C   5,C   2,Ir  0)    114.8683         0.022139   
    256. D(H  29,C   5,C   2,H  28)     -7.6896         0.022139   
    257. D(Ir  0,C   5,C   3,C   4)    -60.9841         0.028054   
    258. D(Ir  0,C   5,C   3,H  37)    118.9023         0.028054   
    259. D(C   2,C   5,C   3,Ir  0)     58.3066         0.028054   
    260. D(C   2,C   5,C   3,C   4)     -2.6775         0.028054   
    261. D(C   2,C   5,C   3,H  37)    177.2089         0.028054   
    262. D(C   2,C   5,Ir  0,C   3)   -119.4972         0.001697   
    263. D(H  29,C   5,C   3,Ir  0)   -116.5982         0.028054   
    264. D(H  29,C   5,C   3,H  37)      2.3041         0.028054   
    265. D(C  17,N   6,Ir  0,C   1)    -94.2672         0.001769   
    266. D(C   7,N   6,Ir  0,C   2)     45.6588         0.001769   
    267. D(C   7,N   6,Ir  0,C   3)    133.1124         0.001769   
    268. D(C   7,N   6,Ir  0,C   4)    120.4194         0.001769   
    269. D(C   7,N   6,Ir  0,C   5)     30.9194         0.001769   
    270. D(C   7,N   6,Ir  0,C   1)     84.3665         0.001769   
    271. D(C   7,N   6,Ir  0,O  31)    -59.3321         0.001769   
    272. D(C  17,N   6,Ir  0,C   2)   -132.9749         0.001769   
    273. D(C  17,N   6,Ir  0,C   3)    -45.5213         0.001769   
    274. D(C  17,N   6,Ir  0,C   4)    -58.2143         0.001769   
    275. D(C  17,N   6,Ir  0,C   5)   -147.7143         0.001769   
    276. D(C  17,N   6,Ir  0,O  31)    122.0342         0.001769   
    277. D(C   8,C   7,N   6,Ir  0)    160.7657         0.014686   
    278. D(C   8,C   7,N   6,C  17)    -20.7350         0.014686   
    279. D(C  12,C   7,N   6,Ir  0)    -73.5983         0.014686   
    280. D(C  12,C   7,N   6,C  17)    104.9009         0.014686   
    281. D(H  13,C   7,N   6,Ir  0)     42.6950         0.014686   
    282. D(H  13,C   7,N   6,C  17)   -138.8058         0.014686   
    283. D(H   9,C   8,C   7,N   6)   -170.6955         0.011951   
    284. D(H   9,C   8,C   7,C  12)     64.7137         0.011951   
    285. D(H   9,C   8,C   7,H  13)    -54.8501         0.011951   
    286. D(H  10,C   8,C   7,N   6)     71.2410         0.011951   
    287. D(H  10,C   8,C   7,C  12)    -53.3498         0.011951   
    288. D(H  10,C   8,C   7,H  13)   -172.9136         0.011951   
    289. D(H  11,C   8,C   7,N   6)    -52.2505         0.011951   
    290. D(H  11,C   8,C   7,C  12)   -176.8413         0.011951   
    291. D(H  11,C   8,C   7,H  13)     63.5949         0.011951   
    292. D(H  14,C  12,C   7,N   6)    176.8146         0.011645   
    293. D(H  14,C  12,C   7,C   8)    -56.4062         0.011645   
    294. D(H  14,C  12,C   7,H  13)     63.0619         0.011645   
    295. D(H  15,C  12,C   7,N   6)    -64.1288         0.011645   
    296. D(H  15,C  12,C   7,C   8)     62.6504         0.011645   
    297. D(H  15,C  12,C   7,H  13)   -177.8815         0.011645   
    298. D(H  16,C  12,C   7,N   6)     57.9204         0.011645   
    299. D(H  16,C  12,C   7,C   8)   -175.3004         0.011645   
    300. D(H  16,C  12,C   7,H  13)    -55.8323         0.011645   
    301. D(C  18,C  17,N   6,Ir  0)     -8.8685         0.062479   
    302. D(C  18,C  17,N   6,C   7)    172.4823         0.062479   
    303. D(H  19,C  17,N   6,Ir  0)    173.4768         0.062479   
    304. D(H  19,C  17,N   6,C   7)     -5.1724         0.062479   
    305. D(C  20,C  18,C  17,N   6)    -40.5523         0.017317   
    306. D(C  20,C  18,C  17,H  19)    137.1265         0.017317   
    307. D(S  22,C  18,C  17,N   6)    136.9480         0.017317   
    308. D(S  22,C  18,C  17,H  19)    -45.3732         0.017317   
    309. D(C  21,C  20,C  18,C  17)    176.1178         0.029529   
    310. D(C  21,C  20,C  18,S  22)     -1.6577         0.029529   
    311. D(H  24,C  20,C  18,C  17)    -23.5576         0.029529   
    312. D(H  24,C  20,C  18,S  22)    158.6669         0.029529   
    313. D(C  23,C  21,C  20,C  18)      1.1872         0.022464   
    314. D(C  23,C  21,C  20,H  24)   -157.9196         0.022464   
    315. D(H  25,C  21,C  20,C  18)    177.8660         0.022464   
    316. D(H  25,C  21,C  20,H  24)     18.7593         0.022464   
    317. D(C  23,S  22,C  18,C  17)   -176.3636         0.005532   
    318. D(C  23,S  22,C  18,C  20)      1.3296         0.005532   
    319. D(S  22,C  23,C  21,C  20)     -0.2100         0.034384   
    320. D(S  22,C  23,C  21,H  25)   -176.9145         0.034384   
    321. D(H  26,C  23,C  21,C  20)    178.1870         0.034384   
    322. D(H  26,C  23,C  21,H  25)      1.4826         0.034384   
    323. D(C  21,C  23,S  22,C  18)     -0.6261         0.005299   
    324. D(H  26,C  23,S  22,C  18)   -179.1709         0.005299   
    325. D(C  32,O  31,Ir  0,C   1)   -174.4422         0.001933   
    326. D(C  32,O  31,Ir  0,C   2)    171.7050         0.001933   
    327. D(C  32,O  31,Ir  0,C   3)    101.9997         0.001933   
    328. D(C  32,O  31,Ir  0,C   4)    108.0968         0.001933   
    329. D(C  32,O  31,Ir  0,C   5)    133.4276         0.001933   
    330. D(C  32,O  31,Ir  0,N   6)    -72.4481         0.001933   
    331. D(O  30,C  32,O  31,Ir  0)      2.6597         0.049235   
    332. D(C  33,C  32,O  31,Ir  0)   -175.8542         0.049235   
    333. D(H  34,C  33,C  32,O  30)     22.3862         0.012597   
    334. D(H  34,C  33,C  32,O  31)   -159.0428         0.012597   
    335. D(H  35,C  33,C  32,O  30)    -96.0757         0.012597   
    336. D(H  35,C  33,C  32,O  31)     82.4952         0.012597   
    337. D(H  36,C  33,C  32,O  30)    145.5065         0.012597   
    338. D(H  36,C  33,C  32,O  31)    -35.9225         0.012597   
    -----------------------------------------------------------------

Number of atoms                         .... 39
Number of degrees of freedom            .... 338

         *************************************************************
         *                GEOMETRY OPTIMIZATION CYCLE   1            *
         *************************************************************
---------------------------------
CARTESIAN COORDINATES (ANGSTROEM)
---------------------------------
  Ir     0.577482   -0.725862    0.457778
  C      0.024176   -2.805361    0.331895
  C      0.121639   -2.363801    1.702785
  C      2.194940   -2.138007    0.729760
  C      1.281677   -2.637833   -0.273726
  C      1.492785   -2.009620    1.940153
  N     -1.050510    0.175573   -0.518267
  C     -2.321961    0.512352    0.141286
  C     -3.144882    1.543517   -0.613550
  H     -3.977653    1.856362    0.014734
  H     -3.580658    1.149380   -1.533106
  H     -2.566638    2.436928   -0.851557
  C     -3.118146   -0.760837    0.399441
  H     -2.029147    0.940390    1.101602
  H     -4.032451   -0.516009    0.937807
  H     -3.402546   -1.246992   -0.534761
  H     -2.566524   -1.474122    1.010238
  C     -0.835753    0.379162   -1.758126
  C      0.520590    0.148206   -2.207705
  H     -1.606018    0.740847   -2.433483
  C      1.619958    0.534754   -1.451599
  C      2.826677    0.110945   -2.079515
  S      0.951612   -0.659858   -3.651379
  C      2.618904   -0.534609   -3.258057
  H      1.526387    1.400782   -0.652529
  H      3.811863    0.327192   -1.692290
  H      3.359120   -0.928410   -3.938227
  H     -0.871609   -3.162968   -0.155237
  H     -0.659077   -2.402745    2.448397
  H      1.891006   -1.625482    2.868294
  O      1.297858    2.457508    0.259233
  O      0.541637    0.901915    1.669262
  C      0.906890    2.105308    1.368711
  C      0.852729    3.075191    2.515660
  H      0.805451    4.097787    2.151303
  H      1.762168    2.974291    3.111280
  H      0.011498    2.874903    3.176051
  H      3.237189   -1.902701    0.572342
  H      1.528706   -2.848884   -1.304160

----------------------------
CARTESIAN COORDINATES (A.U.)
----------------------------
  NO LB      ZA    FRAG     MASS         X           Y           Z
   0 Ir   17.0000*   0   192.220    1.091282   -1.371681    0.865076
   1 C     6.0000    0    12.011    0.045685   -5.301364    0.627191
   2 C     6.0000    0    12.011    0.229864   -4.466937    3.217797
   3 C     6.0000    0    12.011    4.147836   -4.040248    1.379046
   4 C     6.0000    0    12.011    2.422019   -4.984783   -0.517266
   5 C     6.0000    0    12.011    2.820955   -3.797632    3.666357
   6 N     7.0000    0    14.007   -1.985176    0.331786   -0.979383
   7 C     6.0000    0    12.011   -4.387871    0.968204    0.266993
   8 C     6.0000    0    12.011   -5.942965    2.916824   -1.159442
   9 H     1.0000    0     1.008   -7.516675    3.508017    0.027844
  10 H     1.0000    0     1.008   -6.766463    2.172014   -2.897151
  11 H     1.0000    0     1.008   -4.850243    4.605127   -1.609210
  12 C     6.0000    0    12.011   -5.892442   -1.437774    0.754833
  13 H     1.0000    0     1.008   -3.834532    1.777080    2.081725
  14 H     1.0000    0     1.008   -7.620228   -0.975116    1.772198
  15 H     1.0000    0     1.008   -6.429879   -2.356474   -1.010551
  16 H     1.0000    0     1.008   -4.850028   -2.785687    1.909073
  17 C     6.0000    0    12.011   -1.579345    0.716513   -3.322376
  18 C     6.0000    0    12.011    0.983772    0.280068   -4.171957
  19 H     1.0000    0     1.008   -3.034933    1.399998   -4.598616
  20 C     6.0000    0    12.011    3.061278    1.010539   -2.743125
  21 C     6.0000    0    12.011    5.341645    0.209655   -3.929714
  22 S    16.0000    0    32.060    1.798287   -1.246951   -6.900107
  23 C     6.0000    0    12.011    4.949011   -1.010264   -6.156836
  24 H     1.0000    0     1.008    2.884454    2.647095   -1.233101
  25 H     1.0000    0     1.008    7.203378    0.618304   -3.197964
  26 H     1.0000    0     1.008    6.347817   -1.754441   -7.442171
  27 H     1.0000    0     1.008   -1.647103   -5.977143   -0.293355
  28 H     1.0000    0     1.008   -1.245475   -4.540529    4.626801
  29 H     1.0000    0     1.008    3.573484   -3.071716    5.420290
  30 O     8.0000    0    15.999    2.452597    4.644017    0.489879
  31 O     8.0000    0    15.999    1.023546    1.704372    3.154448
  32 C     6.0000    0    12.011    1.713774    3.978455    2.586490
  33 C     6.0000    0    12.011    1.611424    5.811269    4.753909
  34 H     1.0000    0     1.008    1.522081    7.743694    4.065374
  35 H     1.0000    0     1.008    3.330015    5.620595    5.879466
  36 H     1.0000    0     1.008    0.021728    5.432780    6.001867
  37 H     1.0000    0     1.008    6.117400   -3.595584    1.081570
  38 H     1.0000    0     1.008    2.888836   -5.383611   -2.464504
* core charge reduced due to ECP

--------------------------------
INTERNAL COORDINATES (ANGSTROEM)
--------------------------------
 Ir     0   0   0     0.000000000000     0.00000000     0.00000000
 C      1   0   0     2.155536732495     0.00000000     0.00000000
 C      2   1   0     1.443507362792    68.41370881     0.00000000
 C      1   2   3     2.164288705050    64.51354308    81.19341009
 C      2   1   3     1.405698900454    71.37188932   240.80597682
 C      4   1   2     1.405149995101    71.04653844   278.72911009
 N      1   2   3     2.101806801109   100.82850925   241.81906375
 C      7   1   2     1.471395145745   123.77849732    84.34530123
 C      8   7   1     1.519955739094   113.60995969   160.77786832
 H      9   8   7     1.089088549243   108.80655234   189.30448907
 H      9   8   7     1.091246886386   112.93281210    71.24097193
 H      9   8   7     1.090500917480   112.15470505   307.74937674
 C      8   7   1     1.523664716346   109.64692624   286.41386756
 H      8   7   1     1.091400815688   104.61621641    42.70728274
 H     13   8   7     1.088909286872   109.55077337   176.81457569
 H     13   8   7     1.090850824136   111.31769770   295.87126567
 H     13   8   7     1.089094819763   112.18652325    57.92033750
 C      7   1   2     1.276354899701   113.41337058   265.74192054
 C     18   7   1     1.448389542744   116.28318794   351.01273080
 H     18   7   1     1.086364819508   122.31487196   173.35939473
 C     19  18   7     1.389369804742   122.05878349   319.30821912
 C     21  19  18     1.424666612982   110.37074717   176.15416126
 S     19  18   7     1.709705110562   124.90008919   136.88904324
 C     22  21  19     1.359523891824   113.18945361     1.20522955
 H     21  19  18     1.182187328723   120.59799493   336.48503227
 H     22  21  19     1.080340833834   123.69590522   177.87655058
 H     24  22  21     1.079568137692   127.91697850   178.17926040
 H      2   1   3     1.080544269054   123.94562920   119.50419770
 H      3   2   1     1.080239166901   126.55886367   122.30060558
 H      6   4   1     1.080535096826   126.02984915   243.40309145
 O     25  21  19     1.428571431888   174.45975617     8.24309739
 O      1   2   3     2.029286046043   143.52871467   338.76069174
 C     31  25  21     1.227978478986   116.55295323    78.93542416
 C     33  31  25     1.503015532745   121.06555897   169.30202445
 H     34  33  31     1.086582415282   110.66995671    22.38683617
 H     34  33  31     1.091774731130   109.06590420   263.92533256
 H     34  33  31     1.088045799460   111.85193365   145.50758030
 H      4   1   2     1.079992342971   124.10489654   157.52398461
 H      5   2   1     1.080422893090   126.30636574   240.62274679

---------------------------
INTERNAL COORDINATES (A.U.)
---------------------------
 Ir     0   0   0     0.000000000000     0.00000000     0.00000000
 C      1   0   0     4.073374096024     0.00000000     0.00000000
 C      2   1   0     2.727833587976    68.41370881     0.00000000
 C      1   2   3     4.089912927283    64.51354308    81.19341009
 C      2   1   3     2.656385948612    71.37188932   240.80597682
 C      4   1   2     2.655348667821    71.04653844   278.72911009
 N      1   2   3     3.971839240509   100.82850925   241.81906375
 C      7   1   2     2.780533860239   123.77849732    84.34530123
 C      8   7   1     2.872300082569   113.60995969   160.77786832
 H      9   8   7     2.058079093659   108.80655234   189.30448907
 H      9   8   7     2.062157759764   112.93281210    71.24097193
 H      9   8   7     2.060748082828   112.15470505   307.74937674
 C      8   7   1     2.879309033813   109.64692624   286.41386756
 H      8   7   1     2.062448643988   104.61621641    42.70728274
 H     13   8   7     2.057740336871   109.55077337   176.81457569
 H     13   8   7     2.061409310578   111.31769770   295.87126567
 H     13   8   7     2.058090943225   112.18652325    57.92033750
 C      7   1   2     2.411961210124   113.41337058   265.74192054
 C     18   7   1     2.737059571021   116.28318794   351.01273080
 H     18   7   1     2.052931990397   122.31487196   173.35939473
 C     19  18   7     2.625528429703   122.05878349   319.30821912
 C     21  19  18     2.692229730677   110.37074717   176.15416126
 S     19  18   7     3.230874428728   124.90008919   136.88904324
 C     22  21  19     2.569127828070   113.18945361     1.20522955
 H     21  19  18     2.234010290279   120.59799493   336.48503227
 H     22  21  19     2.041548307239   123.69590522   177.87655058
 H     24  22  21     2.040088123146   127.91697850   178.17926040
 H      2   1   3     2.041932744090   123.94562920   119.50419770
 H      3   2   1     2.041356184579   126.55886367   122.30060558
 H      6   4   1     2.041915411091   126.02984915   243.40309145
 O     25  21  19     2.699608769012   174.45975617     8.24309739
 O      1   2   3     3.834794874409   143.52871467   338.76069174
 C     31  25  21     2.320543023632   116.55295323    78.93542416
 C     33  31  25     2.840287731917   121.06555897   169.30202445
 H     34  33  31     2.053343186818   110.66995671    22.38683617
 H     34  33  31     2.063155241772   109.06590420   263.92533256
 H     34  33  31     2.056108582143   111.85193365   145.50758030
 H      4   1   2     2.040889754947   124.10489654   157.52398461
 H      5   2   1     2.041703376759   126.30636574   240.62274679

---------------------
BASIS SET INFORMATION
---------------------
There are 6 groups of distinct atoms

 Group   1 Type Ir  : 7s6p5d1f contracted to 6s3p2d1f pattern {211111/411/41/1}
 Group   2 Type C   : 8s4p1d contracted to 4s2p1d pattern {5111/31/1}
 Group   3 Type N   : 8s4p1d contracted to 4s2p1d pattern {5111/31/1}
 Group   4 Type H   : 4s contracted to 2s pattern {31}
 Group   5 Type S   : 10s7p1d contracted to 4s3p1d pattern {5311/511/1}
 Group   6 Type O   : 8s4p1d contracted to 4s2p1d pattern {5111/31/1}

Atom   0Ir   basis set group =>   1
Atom   1C    basis set group =>   2
Atom   2C    basis set group =>   2
Atom   3C    basis set group =>   2
Atom   4C    basis set group =>   2
Atom   5C    basis set group =>   2
Atom   6N    basis set group =>   3
Atom   7C    basis set group =>   2
Atom   8C    basis set group =>   2
Atom   9H    basis set group =>   4
Atom  10H    basis set group =>   4
Atom  11H    basis set group =>   4
Atom  12C    basis set group =>   2
Atom  13H    basis set group =>   4
Atom  14H    basis set group =>   4
Atom  15H    basis set group =>   4
Atom  16H    basis set group =>   4
Atom  17C    basis set group =>   2
Atom  18C    basis set group =>   2
Atom  19H    basis set group =>   4
Atom  20C    basis set group =>   2
Atom  21C    basis set group =>   2
Atom  22S    basis set group =>   5
Atom  23C    basis set group =>   2
Atom  24H    basis set group =>   4
Atom  25H    basis set group =>   4
Atom  26H    basis set group =>   4
Atom  27H    basis set group =>   4
Atom  28H    basis set group =>   4
Atom  29H    basis set group =>   4
Atom  30O    basis set group =>   6
Atom  31O    basis set group =>   6
Atom  32C    basis set group =>   2
Atom  33C    basis set group =>   2
Atom  34H    basis set group =>   4
Atom  35H    basis set group =>   4
Atom  36H    basis set group =>   4
Atom  37H    basis set group =>   4
Atom  38H    basis set group =>   4
---------------------------------
AUXILIARY/J BASIS SET INFORMATION
---------------------------------
There are 6 groups of distinct atoms

 Group   1 Type Ir  : 11s5p5d3f3g contracted to 8s5p5d2f3g pattern {41111111/11111/11111/21/111}
 Group   2 Type C   : 12s5p4d2f1g contracted to 6s4p3d1f1g pattern {711111/2111/211/2/1}
 Group   3 Type N   : 12s5p4d2f1g contracted to 6s4p3d1f1g pattern {711111/2111/211/2/1}
 Group   4 Type H   : 5s2p1d contracted to 3s1p1d pattern {311/2/1}
 Group   5 Type S   : 14s5p5d2f1g contracted to 8s4p3d1f1g pattern {71111111/2111/311/2/1}
 Group   6 Type O   : 12s5p4d2f1g contracted to 6s4p3d1f1g pattern {711111/2111/211/2/1}

Atom   0Ir   basis set group =>   1
Atom   1C    basis set group =>   2
Atom   2C    basis set group =>   2
Atom   3C    basis set group =>   2
Atom   4C    basis set group =>   2
Atom   5C    basis set group =>   2
Atom   6N    basis set group =>   3
Atom   7C    basis set group =>   2
Atom   8C    basis set group =>   2
Atom   9H    basis set group =>   4
Atom  10H    basis set group =>   4
Atom  11H    basis set group =>   4
Atom  12C    basis set group =>   2
Atom  13H    basis set group =>   4
Atom  14H    basis set group =>   4
Atom  15H    basis set group =>   4
Atom  16H    basis set group =>   4
Atom  17C    basis set group =>   2
Atom  18C    basis set group =>   2
Atom  19H    basis set group =>   4
Atom  20C    basis set group =>   2
Atom  21C    basis set group =>   2
Atom  22S    basis set group =>   5
Atom  23C    basis set group =>   2
Atom  24H    basis set group =>   4
Atom  25H    basis set group =>   4
Atom  26H    basis set group =>   4
Atom  27H    basis set group =>   4
Atom  28H    basis set group =>   4
Atom  29H    basis set group =>   4
Atom  30O    basis set group =>   6
Atom  31O    basis set group =>   6
Atom  32C    basis set group =>   2
Atom  33C    basis set group =>   2
Atom  34H    basis set group =>   4
Atom  35H    basis set group =>   4
Atom  36H    basis set group =>   4
Atom  37H    basis set group =>   4
Atom  38H    basis set group =>   4
-------------------------
ECP PARAMETER INFORMATION
-------------------------

 Group 1, Type Ir ECP Def2-ECP (replacing 60 core electrons, lmax=3)

Atom   0Ir   ECP group =>   1

------------------------------------------------------------------------------
                           ORCA GTO INTEGRAL CALCULATION
                           -- RI-GTO INTEGRALS CHOSEN --
------------------------------------------------------------------------------
------------------------------------------------------------------------------
                   ___                                                        
                  /   \      - P O W E R E D   B Y -                         
                 /     \                                                     
                 |  |  |   _    _      __       _____    __    __             
                 |  |  |  | |  | |    /  \     |  _  \  |  |  /  |          
                  \  \/   | |  | |   /    \    | | | |  |  | /  /          
                 / \  \   | |__| |  /  /\  \   | |_| |  |  |/  /          
                |  |  |   |  __  | /  /__\  \  |    /   |      \           
                |  |  |   | |  | | |   __   |  |    \   |  |\   \          
                \     /   | |  | | |  |  |  |  | |\  \  |  | \   \       
                 \___/    |_|  |_| |__|  |__|  |_| \__\ |__|  \__/        
                                                                              
                      - O R C A' S   B I G   F R I E N D -                    
                                      &                                       
                       - I N T E G R A L  F E E D E R -                       
                                                                              
 v1 FN, 2020, v2 2021                                                         
------------------------------------------------------------------------------


Reading SHARK input file reaction4-IEIP_ts_guess_scan_2-6_orca.SHARKINP.tmp ... ok
----------------------
SHARK INTEGRAL PACKAGE
----------------------

Number of atoms                             ...     39
Number of basis functions                   ...    358
Number of shells                            ...    184
Maximum angular momentum                    ...      3
Integral batch strategy                     ... SHARK/LIBINT Hybrid
RI-J (if used) integral strategy            ... SPLIT-RIJ (Revised 2003 algorithm where possible)
Printlevel                                  ...      1
Contraction scheme used                     ... SEGMENTED contraction
Coulomb Range Separation                    ... NOT USED
Exchange Range Separation                   ... NOT USED
Finite Nucleus Model                        ... NOT USED
Auxiliary Coulomb fitting basis             ... AVAILABLE
   # of basis functions in Aux-J            ...   1231
   # of shells in Aux-J                     ...    405
   Maximum angular momentum in Aux-J        ...      4
Auxiliary J/K fitting basis                 ... NOT available
Auxiliary Correlation fitting basis         ... NOT available
Auxiliary 'external' fitting basis          ... NOT available
Integral threshold                          ...     2.500000e-11
Primitive cut-off                           ...     2.500000e-12
Primitive pair pre-selection threshold      ...     2.500000e-12

Calculating pre-screening integrals         ... done (  0.1 sec) Dimension = 184
Organizing shell pair data                  ... done (  0.1 sec)
Shell pair information
Total number of shell pairs                 ...     17020
Shell pairs after pre-screening             ...     12977
Total number of primitive shell pairs       ...     60705
Primitive shell pairs kept                  ...     29212
          la=0 lb=0:   4972 shell pairs
          la=1 lb=0:   4256 shell pairs
          la=1 lb=1:    857 shell pairs
          la=2 lb=0:   1748 shell pairs
          la=2 lb=1:    786 shell pairs
          la=2 lb=2:    181 shell pairs
          la=3 lb=0:    113 shell pairs
          la=3 lb=1:     42 shell pairs
          la=3 lb=2:     21 shell pairs
          la=3 lb=3:      1 shell pairs

Calculating one electron integrals          ... done (  0.2 sec)
Calculating ECP integrals                   ... done (  0.8 sec)
Calculating RI/J V-Matrix + Cholesky decomp.... done (  0.1 sec)
Calculating Nuclear repulsion               ... done (  0.0 sec) ENN=   2040.103792033567 Eh

SHARK setup successfully completed in   1.6 seconds

Maximum memory used throughout the entire GTOINT-calculation: 91.2 MB
-------------------------------------------------------------------------------
                                 ORCA SCF
-------------------------------------------------------------------------------

------------
SCF SETTINGS
------------
Hamiltonian:
 Density Functional     Method          .... DFT(GTOs)
 Exchange Functional    Exchange        .... PBE
   PBE kappa parameter   XKappa         ....  1.024500
   PBE mue parameter    XMuePBE         ....  0.123457
 Correlation Functional Correlation     .... PBE
   PBE beta parameter  CBetaPBE         ....  0.030000
 LDA part of GGA corr.  LDAOpt          .... PW91-LDA
 Gradients option       PostSCFGGA      .... off
 Hybrid DFT is turned on
   Fraction HF Exchange ScalHFX         ....  0.420000
   Scaling of DF-GGA-X  ScalDFX         ....  0.580000
   Scaling of DF-GGA-C  ScalDFC         ....  1.000000
   Scaling of DF-LDA-C  ScalLDAC        ....  1.000000
   Perturbative correction              ....  0.000000
   Density functional embedding theory  .... OFF
 RI-approximation to the Coulomb term is turned on
   Number of AuxJ basis functions       .... 1231
   RIJ-ON(X) (HFX calculated with O(N)) .... on
   Number of AuxJ basis functions       .... 1231
   RIJ-COSX (HFX calculated with COS-X)).... on


General Settings:
 Integral files         IntName         .... reaction4-IEIP_ts_guess_scan_2-6_orca
 Hartree-Fock type      HFTyp           .... RHF
 Total Charge           Charge          ....    1
 Multiplicity           Mult            ....    1
 Number of Electrons    NEL             ....  164
 Basis Dimension        Dim             ....  358
 Nuclear Repulsion      ENuc            ....   2040.1037920336 Eh

Convergence Acceleration:
 DIIS                   CNVDIIS         .... on
   Start iteration      DIISMaxIt       ....    12
   Startup error        DIISStart       ....  0.200000
   # of expansion vecs  DIISMaxEq       ....     5
   Bias factor          DIISBfac        ....   1.050
   Max. coefficient     DIISMaxC        ....  10.000
 Trust-Rad. Augm. Hess. CNVTRAH         .... auto
   Auto Start mean grad. ratio tolernc. ....  1.125000
   Auto Start start iteration           ....    20
   Auto Start num. interpolation iter.  ....    10
   Max. Number of Micro iterations      ....    16
   Max. Number of Macro iterations      .... Maxiter - #DIIS iter
   Number of Davidson start vectors     ....     2
   Converg. threshold I  (grad. norm)   ....   1.000e-05
   Converg. threshold II (energy diff.) ....   1.000e-08
   Grad. Scal. Fac. for Micro threshold ....   0.100
   Minimum threshold for Micro iter.    ....   0.010
   NR start threshold (gradient norm)   ....   0.001
   Initial trust radius                 ....   0.400
   Minimum AH scaling param. (alpha)    ....   1.000
   Maximum AH scaling param. (alpha)    .... 1000.000
   Orbital update algorithm             .... Taylor
   White noise on init. David. guess    .... on
   Maximum white noise                  ....   0.010
   Quad. conv. algorithm                .... NR
   COSX micro iterations for RIJONX calc.... off
 SOSCF                  CNVSOSCF        .... off
 Level Shifting         CNVShift        .... on
   Level shift para.    LevelShift      ....    0.2500
   Turn off err/grad.   ShiftErr        ....    0.0010
 Zerner damping         CNVZerner       .... off
 Static damping         CNVDamp         .... on
   Fraction old density DampFac         ....    0.7000
   Max. Damping (<1)    DampMax         ....    0.9800
   Min. Damping (>=0)   DampMin         ....    0.0000
   Turn off err/grad.   DampErr         ....    0.1000
 Fernandez-Rico         CNVRico         .... off

SCF Procedure:
 Maximum # iterations   MaxIter         ....   250
 SCF integral mode      SCFMode         .... Direct
   Integral package                     .... SHARK and LIBINT hybrid scheme
 Reset frequency        DirectResetFreq ....    20
 Integral Threshold     Thresh          ....  2.500e-11 Eh
 Primitive CutOff       TCut            ....  2.500e-12 Eh

Convergence Tolerance:
 Convergence Check Mode ConvCheckMode   .... Total+1el-Energy
 Convergence forced     ConvForced      .... 0
 Energy Change          TolE            ....  1.000e-08 Eh
 1-El. energy change                    ....  1.000e-05 Eh
 DIIS Error             TolErr          ....  5.000e-07


Diagonalization of the overlap matrix:
Smallest eigenvalue                        ... 1.068e-03
Time for diagonalization                   ...    0.035 sec
Threshold for overlap eigenvalues          ... 1.000e-08
Number of eigenvalues below threshold      ... 0
Time for construction of square roots      ...    0.011 sec
Total time needed                          ...    0.048 sec

--------------------
INITIAL GUESS: HCORE
--------------------
                      -----------------
                      INTIAL GUESS DONE 
                      -----------------
-------------------
DFT GRID GENERATION
-------------------

General Integration Accuracy     IntAcc      ... 4.159
Radial Grid Type                 RadialGrid  ... OptM3 with GC (2021)
Angular Grid (max. ang.)         AngularGrid ... 3 (Lebedev-194)
Angular grid pruning method      GridPruning ... 4 (adaptive)
Weight generation scheme         WeightScheme... Becke
Basis function cutoff            BFCut       ... 1.0000e-11
Integration weight cutoff        WCut        ... 1.0000e-14
Angular grids for H and He will be reduced by one unit
Partially contracted basis set               ... off
Rotationally invariant grid construction     ... off

Total number of grid points                  ...    93316
Total number of batches                      ...     1478
Average number of points per batch           ...       63
Average number of grid points per atom       ...     2393
Time for grid setup =    1.766 sec

--------------------
COSX GRID GENERATION
--------------------

GRIDX 1
-------
General Integration Accuracy     IntAcc      ... 3.816
Radial Grid Type                 RadialGrid  ... OptM3 with GC (2021)
Angular Grid (max. ang.)         AngularGrid ... 1 (Lebedev-50)
Angular grid pruning method      GridPruning ... 4 (adaptive)
Weight generation scheme         WeightScheme... Becke
Basis function cutoff            BFCut       ... 1.0000e-11
Integration weight cutoff        WCut        ... 1.0000e-14
Angular grids for H and He will be reduced by one unit
Partially contracted basis set               ... on
Rotationally invariant grid construction     ... off

Total number of grid points                  ...    23172
Total number of batches                      ...      381
Average number of points per batch           ...       60
Average number of grid points per atom       ...      594
UseSFitting                                  ... on

GRIDX 2
-------
General Integration Accuracy     IntAcc      ... 4.020
Radial Grid Type                 RadialGrid  ... OptM3 with GC (2021)
Angular Grid (max. ang.)         AngularGrid ... 2 (Lebedev-110)
Angular grid pruning method      GridPruning ... 4 (adaptive)
Weight generation scheme         WeightScheme... Becke
Basis function cutoff            BFCut       ... 1.0000e-11
Integration weight cutoff        WCut        ... 1.0000e-14
Angular grids for H and He will be reduced by one unit
Partially contracted basis set               ... on
Rotationally invariant grid construction     ... off

Total number of grid points                  ...    50304
Total number of batches                      ...      805
Average number of points per batch           ...       62
Average number of grid points per atom       ...     1290
UseSFitting                                  ... on

GRIDX 3
-------
General Integration Accuracy     IntAcc      ... 4.338
Radial Grid Type                 RadialGrid  ... OptM3 with GC (2021)
Angular Grid (max. ang.)         AngularGrid ... 3 (Lebedev-194)
Angular grid pruning method      GridPruning ... 4 (adaptive)
Weight generation scheme         WeightScheme... Becke
Basis function cutoff            BFCut       ... 1.0000e-11
Integration weight cutoff        WCut        ... 1.0000e-14
Angular grids for H and He will be reduced by one unit
Partially contracted basis set               ... on
Rotationally invariant grid construction     ... off

Total number of grid points                  ...   108807
Total number of batches                      ...     1718
Average number of points per batch           ...       63
Average number of grid points per atom       ...     2790
UseSFitting                                  ... on

Time for X-Grid setup             =    4.821 sec

--------------
SCF ITERATIONS
--------------
ITER       Energy         Delta-E        Max-DP      RMS-DP      [F,P]     Damp
               ***  Starting incremental Fock matrix formation  ***
  0   -862.9125018654   0.00000000000019.82533107  0.14500348  2.7560485 0.7000
  1  -1098.6534068605-235.740904995091 9.42657822  0.12526384  1.4770420 0.7000
  2  -1166.8349309340 -68.181524073538 5.47734317  0.06548831  1.0591507 0.7000
  3  -1192.7234128235 -25.888481889440 3.80199425  0.04516898  0.7704468 0.7000
  4  -1210.5485701129 -17.825157289443 2.68269393  0.03631623  0.4582351 0.7000
  5  -1225.1192270531 -14.570656940159 2.43211826  0.03032755  0.3666293 0.7000
  6  -1233.9749129607  -8.855685907676 1.78509836  0.02780043  0.3501207 0.7000
  7  -1241.9398892826  -7.964976321818 1.87273641  0.02499147  0.3330449 0.7000
  8  -1246.5236673651  -4.583778082519 1.83867512  0.02592182  0.3875222 0.7000
  9  -1250.3734973220  -3.849829956937 1.66656696  0.02342299  0.3661964 0.7000
 10  -1252.8840330101  -2.510535688081 1.85757068  0.02464344  0.4219286 0.7000
 11  -1254.6243840158  -1.740351005718 1.58120005  0.02339487  0.3767963 0.7000
                               ***Turning on DIIS***
 12  -1255.9237881334  -1.299404117557 1.75381861  0.02398008  0.4391599 0.7000
 13  -1256.7696404467  -0.845852313372 1.52442614  0.02027038  0.3835656 0.7000
 14  -1267.6048898650 -10.835249418244 1.08069187  0.01430006  0.2455833 0.7000
 15  -1274.0063914969  -6.401501631899 0.75364605  0.01014492  0.1428669 0.7000
 16  -1278.0263467989  -4.019955302026 0.52363074  0.00717097  0.1345540 0.7000
 17  -1280.7328128232  -2.706466024318 0.36183725  0.00507646  0.1734853 0.7000
 18  -1282.7308248700  -1.998012046762 0.25352377  0.00362091  0.1759104 0.7000
 19  -1284.2179824353  -1.487157565293 0.17584938  0.00271411  0.1680494 0.7000
               *** Restarting incremental Fock matrix formation ***
                                   *** Resetting DIIS ***
 20  -1285.3923622115  -1.174379776204 0.13031454  0.00257609  0.1444956 0.7000
 21  -1286.3534191360  -0.961056924508 0.30211596  0.00578042  0.0498913 0.0000
 22  -1288.3741139637  -2.020694827676 0.03782900  0.00100459  0.0627465 0.0000
 23  -1288.4275819031  -0.053467939417 0.04238246  0.00077104  0.0262032 0.0000
 24  -1288.4370428994  -0.009460996265 0.02668202  0.00031652  0.0207705 0.0000
 25  -1288.4410024946  -0.003959595287 0.00774524  0.00014017  0.0033399 0.0000
 26  -1288.4416548978  -0.000652403187 0.00433269  0.00007371  0.0020664 0.0000
 27  -1288.4418745589  -0.000219661103 0.00335674  0.00005547  0.0013837 0.0000
 28  -1288.4419801171  -0.000105558154 0.00356560  0.00006773  0.0008119 0.0000
               *** Restarting incremental Fock matrix formation ***
                                   *** Resetting DIIS ***
 29  -1288.4429785473  -0.000998430233 0.00461788  0.00008291  0.0008053 0.0000
 30  -1288.4429975841  -0.000019036783 0.00084753  0.00001477  0.0008596 0.0000
 31  -1288.4429991228  -0.000001538747 0.00049039  0.00000776  0.0007397 0.0000
 32  -1288.4430012751  -0.000002152206 0.00024305  0.00000257  0.0001043 0.0000
 33  -1288.4430014119  -0.000000136848 0.00018806  0.00000180  0.0000773 0.0000
 34  -1288.4430014713  -0.000000059386 0.00012581  0.00000104  0.0000361 0.0000
 35  -1288.4430014766  -0.000000005338 0.00009015  0.00000072  0.0000308 0.0000
 36  -1288.4430014925  -0.000000015877 0.00004503  0.00000036  0.0000172 0.0000
 37  -1288.4430014902   0.000000002275 0.00001018  0.00000012  0.0000055 0.0000
 38  -1288.4430014741   0.000000016080 0.00000698  0.00000008  0.0000064 0.0000
 39  -1288.4430014701   0.000000004084 0.00000250  0.00000003  0.0000015 0.0000
 40  -1288.4430014823  -0.000000012229 0.00000200  0.00000002  0.0000017 0.0000
                            ***DIIS convergence achieved***

               *****************************************************
               *                     SUCCESS                       *
               *           SCF CONVERGED AFTER  41 CYCLES          *
               *****************************************************

Old exchange energy                            =    -59.661543192 Eh
New exchange energy                            =    -59.661499393 Eh
Exchange energy change after final integration =      0.000043799 Eh
Total energy after final integration           =  -1288.442957684 Eh
Final COS-X integration done in                =    61.308 sec

----------------
TOTAL SCF ENERGY
----------------

Total Energy       :        -1288.44295768 Eh          -35060.31531 eV

Components:
Nuclear Repulsion  :         2040.10379203 Eh           55514.04646 eV
Electronic Energy  :        -3328.54674972 Eh          -90574.36177 eV
One Electron Energy:        -5835.63348114 Eh         -158795.66004 eV
Two Electron Energy:         2507.08673142 Eh           68221.29827 eV
Max COSX asymmetry :            0.00001813 Eh               0.00049 eV

Virial components:
Potential Energy   :        -2501.58287501 Eh          -68071.53072 eV
Kinetic Energy     :         1213.13991733 Eh           33011.21541 eV
Virial Ratio       :            2.06207284


DFT components:
N(Alpha)           :       82.000408787244 electrons
N(Beta)            :       82.000408787244 electrons
N(Total)           :      164.000817574489 electrons
E(X)               :      -79.594782085338 Eh       
E(C)               :       -7.454350215892 Eh       
E(XC)              :      -87.049132301230 Eh       
DFET-embed. en.    :        0.000000000000 Eh       

---------------
SCF CONVERGENCE
---------------

  Last Energy change         ...    1.1255e-10  Tolerance :   1.0000e-08
  Last MAX-Density change    ...    0.0000e+00  Tolerance :   1.0000e-07
  Last RMS-Density change    ...    0.0000e+00  Tolerance :   5.0000e-09
  Last DIIS Error            ...    9.2602e-07  Tolerance :   5.0000e-07

             **** THE GBW FILE WAS UPDATED (reaction4-IEIP_ts_guess_scan_2-6_orca.gbw) ****
             **** DENSITY reaction4-IEIP_ts_guess_scan_2-6_orca.scfp WAS UPDATED ****
             **** ENERGY FILE WAS UPDATED (reaction4-IEIP_ts_guess_scan_2-6_orca.en.tmp) ****
             **** THE GBW FILE WAS UPDATED (reaction4-IEIP_ts_guess_scan_2-6_orca.gbw) ****
             **** DENSITY reaction4-IEIP_ts_guess_scan_2-6_orca.scfp WAS UPDATED ****
----------------
ORBITAL ENERGIES
----------------

  NO   OCC          E(Eh)            E(eV) 
   0   2.0000     -89.760691     -2442.5126 
   1   2.0000     -19.623419      -533.9804 
   2   2.0000     -19.586566      -532.9776 
   3   2.0000     -14.841701      -403.8632 
   4   2.0000     -10.680476      -290.6305 
   5   2.0000     -10.662634      -290.1450 
   6   2.0000     -10.638617      -289.4915 
   7   2.0000     -10.635309      -289.4015 
   8   2.0000     -10.634638      -289.3832 
   9   2.0000     -10.633468      -289.3514 
  10   2.0000     -10.632218      -289.3174 
  11   2.0000     -10.632044      -289.3126 
  12   2.0000     -10.616935      -288.9015 
  13   2.0000     -10.609373      -288.6957 
  14   2.0000     -10.582838      -287.9737 
  15   2.0000     -10.580433      -287.9082 
  16   2.0000     -10.557565      -287.2859 
  17   2.0000     -10.552611      -287.1511 
  18   2.0000     -10.532365      -286.6002 
  19   2.0000      -8.399959      -228.5745 
  20   2.0000      -6.290069      -171.1615 
  21   2.0000      -6.286423      -171.0623 
  22   2.0000      -6.284641      -171.0138 
  23   2.0000      -4.031456      -109.7015 
  24   2.0000      -2.350806       -63.9687 
  25   2.0000      -2.316528       -63.0359 
  26   2.0000      -2.314879       -62.9910 
  27   2.0000      -1.304952       -35.5095 
  28   2.0000      -1.214999       -33.0618 
  29   2.0000      -1.208527       -32.8857 
  30   2.0000      -1.175037       -31.9744 
  31   2.0000      -1.125442       -30.6248 
  32   2.0000      -1.027832       -27.9687 
  33   2.0000      -0.990056       -26.9408 
  34   2.0000      -0.979931       -26.6653 
  35   2.0000      -0.964624       -26.2487 
  36   2.0000      -0.959465       -26.1084 
  37   2.0000      -0.926405       -25.2088 
  38   2.0000      -0.904092       -24.6016 
  39   2.0000      -0.873830       -23.7781 
  40   2.0000      -0.797860       -21.7109 
  41   2.0000      -0.790949       -21.5228 
  42   2.0000      -0.789169       -21.4744 
  43   2.0000      -0.781080       -21.2543 
  44   2.0000      -0.773970       -21.0608 
  45   2.0000      -0.757224       -20.6051 
  46   2.0000      -0.745101       -20.2752 
  47   2.0000      -0.723623       -19.6908 
  48   2.0000      -0.695367       -18.9219 
  49   2.0000      -0.673393       -18.3239 
  50   2.0000      -0.665946       -18.1213 
  51   2.0000      -0.652365       -17.7518 
  52   2.0000      -0.649178       -17.6650 
  53   2.0000      -0.641293       -17.4505 
  54   2.0000      -0.637376       -17.3439 
  55   2.0000      -0.629690       -17.1347 
  56   2.0000      -0.624097       -16.9825 
  57   2.0000      -0.612303       -16.6616 
  58   2.0000      -0.610409       -16.6101 
  59   2.0000      -0.609001       -16.5718 
  60   2.0000      -0.596915       -16.2429 
  61   2.0000      -0.588018       -16.0008 
  62   2.0000      -0.577111       -15.7040 
  63   2.0000      -0.571651       -15.5554 
  64   2.0000      -0.563989       -15.3469 
  65   2.0000      -0.554732       -15.0950 
  66   2.0000      -0.553144       -15.0518 
  67   2.0000      -0.548698       -14.9308 
  68   2.0000      -0.539533       -14.6814 
  69   2.0000      -0.535437       -14.5700 
  70   2.0000      -0.528482       -14.3807 
  71   2.0000      -0.521940       -14.2027 
  72   2.0000      -0.516555       -14.0562 
  73   2.0000      -0.507576       -13.8119 
  74   2.0000      -0.489993       -13.3334 
  75   2.0000      -0.481474       -13.1016 
  76   2.0000      -0.464993       -12.6531 
  77   2.0000      -0.451598       -12.2886 
  78   2.0000      -0.441227       -12.0064 
  79   2.0000      -0.423516       -11.5245 
  80   2.0000      -0.417106       -11.3500 
  81   2.0000      -0.404011       -10.9937 
  82   0.0000      -0.199405        -5.4261 
  83   0.0000      -0.165156        -4.4941 
  84   0.0000      -0.141930        -3.8621 
  85   0.0000      -0.102154        -2.7798 
  86   0.0000      -0.076952        -2.0940 
  87   0.0000      -0.069363        -1.8874 
  88   0.0000      -0.060452        -1.6450 
  89   0.0000      -0.051945        -1.4135 
  90   0.0000      -0.044579        -1.2130 
  91   0.0000      -0.035949        -0.9782 
  92   0.0000      -0.004678        -0.1273 
  93   0.0000      -0.002729        -0.0743 
  94   0.0000       0.009569         0.2604 
  95   0.0000       0.021871         0.5951 
  96   0.0000       0.027918         0.7597 
  97   0.0000       0.035818         0.9747 
  98   0.0000       0.044226         1.2035 
  99   0.0000       0.054671         1.4877 
 100   0.0000       0.068082         1.8526 
 101   0.0000       0.069844         1.9006 
 102   0.0000       0.071336         1.9412 
 103   0.0000       0.077744         2.1155 
 104   0.0000       0.082215         2.2372 
 105   0.0000       0.088178         2.3995 
 106   0.0000       0.092843         2.5264 
 107   0.0000       0.100045         2.7224 
 108   0.0000       0.107749         2.9320 
 109   0.0000       0.113513         3.0889 
 110   0.0000       0.114954         3.1281 
 111   0.0000       0.120347         3.2748 
 112   0.0000       0.121944         3.3183 
 113   0.0000       0.125393         3.4121 
 114   0.0000       0.131424         3.5762 
 115   0.0000       0.137900         3.7524 
 116   0.0000       0.142584         3.8799 
 117   0.0000       0.151665         4.1270 
 118   0.0000       0.156311         4.2534 
 119   0.0000       0.159768         4.3475 
 120   0.0000       0.164905         4.4873 
 121   0.0000       0.177039         4.8175 
 122   0.0000       0.187010         5.0888 
 123   0.0000       0.200649         5.4599 
 124   0.0000       0.221642         6.0312 
 125   0.0000       0.230356         6.2683 
 126   0.0000       0.258219         7.0265 
 127   0.0000       0.271575         7.3899 
 128   0.0000       0.279671         7.6102 
 129   0.0000       0.294077         8.0022 
 130   0.0000       0.301337         8.1998 
 131   0.0000       0.309603         8.4247 
 132   0.0000       0.322333         8.7711 
 133   0.0000       0.336274         9.1505 
 134   0.0000       0.342610         9.3229 
 135   0.0000       0.358457         9.7541 
 136   0.0000       0.363701         9.8968 
 137   0.0000       0.369937        10.0665 
 138   0.0000       0.384645        10.4667 
 139   0.0000       0.396235        10.7821 
 140   0.0000       0.400487        10.8978 
 141   0.0000       0.416020        11.3205 
 142   0.0000       0.422749        11.5036 
 143   0.0000       0.435868        11.8606 
 144   0.0000       0.444004        12.0820 
 145   0.0000       0.447832        12.1861 
 146   0.0000       0.453800        12.3485 
 147   0.0000       0.459219        12.4960 
 148   0.0000       0.469075        12.7642 
 149   0.0000       0.474484        12.9114 
 150   0.0000       0.479356        13.0440 
 151   0.0000       0.487468        13.2647 
 152   0.0000       0.497023        13.5247 
 153   0.0000       0.500078        13.6078 
 154   0.0000       0.508691        13.8422 
 155   0.0000       0.515140        14.0177 
 156   0.0000       0.529076        14.3969 
 157   0.0000       0.531805        14.4711 
[...]

----------------------
LOEWDIN ATOMIC CHARGES
----------------------
   0 Ir:   -0.213406
   1 C :   -0.039012
   2 C :   -0.057970
   3 C :   -0.047902
   4 C :   -0.055272
   5 C :   -0.025930
   6 N :   -0.007580
   7 C :   -0.068447
   8 C :   -0.364800
   9 H :    0.157572
  10 H :    0.133903
  11 H :    0.146942
  12 C :   -0.343532
  13 H :    0.156501
  14 H :    0.153226
  15 H :    0.137277
  16 H :    0.134197
  17 C :    0.036337
  18 C :   -0.188933
  19 H :    0.162926
  20 C :   -0.187630
  21 C :   -0.142826
  22 S :    0.460699
  23 C :   -0.262630
  24 H :    0.285775
  25 H :    0.161956
  26 H :    0.167557
  27 H :    0.185938
  28 H :    0.186486
  29 H :    0.193928
  30 O :   -0.277485
  31 O :   -0.208840
  32 C :    0.154333
  33 C :   -0.376542
  34 H :    0.159449
  35 H :    0.166719
  36 H :    0.152782
  37 H :    0.187934
  38 H :    0.186301

-------------------------------
LOEWDIN REDUCED ORBITAL CHARGES
-------------------------------
  0 Irs       :     2.453450  s :     2.453450
      pz      :     2.237820  p :     6.742408
      px      :     2.235706
      py      :     2.268882
      dz2     :     1.851812  d :     7.928071
      dxz     :     1.747317
      dyz     :     1.257007
      dx2y2   :     1.641968
      dxy     :     1.429967
      f0      :     0.011578  f :     0.089477
      f+1     :     0.003081
      f-1     :     0.012795
      f+2     :     0.017537
      f-2     :     0.016374
      f+3     :     0.011173
      f-3     :     0.016939
  1 C s       :     2.875737  s :     2.875737
      pz      :     1.047148  p :     3.058922
      px      :     1.088621
      py      :     0.923153
      dz2     :     0.026536  d :     0.104354
      dxz     :     0.027206
      dyz     :     0.017484
      dx2y2   :     0.018401
      dxy     :     0.014726
  2 C s       :     2.874777  s :     2.874777
      pz      :     1.046918  p :     3.080382
      px      :     1.074456
      py      :     0.959008
      dz2     :     0.025835  d :     0.102810
      dxz     :     0.027677
      dyz     :     0.017695
      dx2y2   :     0.018351
      dxy     :     0.013252
  3 C s       :     2.875482  s :     2.875482
      pz      :     1.037170  p :     3.070123
      px      :     1.076068
      py      :     0.956886
      dz2     :     0.024335  d :     0.102296
      dxz     :     0.032263
      dyz     :     0.016276
      dx2y2   :     0.015038
      dxy     :     0.014384
  4 C s       :     2.874259  s :     2.874259
      pz      :     1.094166  p :     3.078912
      px      :     1.035406
      py      :     0.949340
      dz2     :     0.022612  d :     0.102102
      dxz     :     0.031882
      dyz     :     0.012877
      dx2y2   :     0.017518
      dxy     :     0.017213
  5 C s       :     2.877205  s :     2.877205
      pz      :     1.065214  p :     3.044660
      px      :     1.032774
      py      :     0.946671
      dz2     :     0.025460  d :     0.104065
      dxz     :     0.030063
      dyz     :     0.015615
      dx2y2   :     0.015498
      dxy     :     0.017429
  6 N s       :     3.122884  s :     3.122884
      pz      :     1.270638  p :     3.786289
      px      :     1.290374
      py      :     1.225278
      dz2     :     0.029951  d :     0.098407
      dxz     :     0.027704
      dyz     :     0.019125
      dx2y2   :     0.011508
      dxy     :     0.010118
  7 C s       :     2.862133  s :     2.862133
      pz      :     1.061712  p :     3.071931
      px      :     0.936496
      py      :     1.073723
      dz2     :     0.022564  d :     0.134383
      dxz     :     0.029043
      dyz     :     0.021144
      dx2y2   :     0.028864
      dxy     :     0.032769
  8 C s       :     2.953171  s :     2.953171
      pz      :     1.128544  p :     3.344192
      px      :     1.123306
      py      :     1.092342
      dz2     :     0.010882  d :     0.067437
      dxz     :     0.018116
      dyz     :     0.011804
      dx2y2   :     0.008489
      dxy     :     0.018146
  9 H s       :     0.842428  s :     0.842428
 10 H s       :     0.866097  s :     0.866097
 11 H s       :     0.853058  s :     0.853058
 12 C s       :     2.952909  s :     2.952909
      pz      :     1.138174  p :     3.322725
      px      :     1.112529
      py      :     1.072022
      dz2     :     0.008920  d :     0.067898
      dxz     :     0.013574
      dyz     :     0.017191
      dx2y2   :     0.010689
      dxy     :     0.017524
 13 H s       :     0.843499  s :     0.843499
 14 H s       :     0.846774  s :     0.846774
 15 H s       :     0.862723  s :     0.862723
 16 H s       :     0.865803  s :     0.865803
 17 C s       :     2.878752  s :     2.878752
      pz      :     1.023580  p :     2.944079
      px      :     1.062107
      py      :     0.858392
      dz2     :     0.040860  d :     0.140832
      dxz     :     0.051412
      dyz     :     0.024395
      dx2y2   :     0.011719
      dxy     :     0.012447
 18 C s       :     2.896787  s :     2.896787
      pz      :     1.038812  p :     3.180605
      px      :     1.088236
      py      :     1.053557
      dz2     :     0.029779  d :     0.111542
      dxz     :     0.028563
      dyz     :     0.016741
      dx2y2   :     0.022258
      dxy     :     0.014200
 19 H s       :     0.837074  s :     0.837074
 20 C s       :     2.923373  s :     2.923373
      pz      :     1.089160  p :     3.175529
      px      :     1.044173
      py      :     1.042196
      dz2     :     0.010198  d :     0.088728
      dxz     :     0.032155
      dyz     :     0.009180
      dx2y2   :     0.017303
      dxy     :     0.019892
 21 C s       :     2.898761  s :     2.898761
      pz      :     1.062372  p :     3.150019
      px      :     1.090285
      py      :     0.997362
      dz2     :     0.023445  d :     0.094047
      dxz     :     0.026786
      dyz     :     0.014616
      dx2y2   :     0.017667
      dxy     :     0.011533
 22 S s       :     5.505781  s :     5.505781
      pz      :     3.299694  p :     9.881382
      px      :     3.083170
      py      :     3.498518
      dz2     :     0.037062  d :     0.152138
      dxz     :     0.031079
      dyz     :     0.024894
      dx2y2   :     0.034126
      dxy     :     0.024977
 23 C s       :     2.965098  s :     2.965098
      pz      :     1.113870  p :     3.211584
      px      :     1.021438
      py      :     1.076277
      dz2     :     0.019824  d :     0.085948
      dxz     :     0.026271
      dyz     :     0.012599
      dx2y2   :     0.014861
      dxy     :     0.012393
 24 H s       :     0.714225  s :     0.714225
 25 H s       :     0.838044  s :     0.838044
 26 H s       :     0.832443  s :     0.832443
 27 H s       :     0.814062  s :     0.814062
 28 H s       :     0.813514  s :     0.813514
 29 H s       :     0.806072  s :     0.806072
 30 O s       :     3.505432  s :     3.505432
      pz      :     1.464764  p :     4.717478
      px      :     1.521837
      py      :     1.730876
      dz2     :     0.017973  d :     0.054575
      dxz     :     0.012704
      dyz     :     0.016687
      dx2y2   :     0.003790
      dxy     :     0.003422
 31 O s       :     3.445925  s :     3.445925
      pz      :     1.696307  p :     4.704075
      px      :     1.630835
      py      :     1.376932
      dz2     :     0.009406  d :     0.058840
      dxz     :     0.003412
      dyz     :     0.016362
      dx2y2   :     0.015756
      dxy     :     0.013906
 32 C s       :     2.813768  s :     2.813768
      pz      :     1.008647  p :     2.708946
      px      :     0.751652
      py      :     0.948647
      dz2     :     0.077215  d :     0.322954
      dxz     :     0.044214
      dyz     :     0.109210
      dx2y2   :     0.044847
      dxy     :     0.047467
 33 C s       :     2.959940  s :     2.959940
      pz      :     1.095445  p :     3.353903
      px      :     1.149432
      py      :     1.109026
      dz2     :     0.006186  d :     0.062699
      dxz     :     0.017207
      dyz     :     0.018944
      dx2y2   :     0.018033
      dxy     :     0.002330
 34 H s       :     0.840551  s :     0.840551
 35 H s       :     0.833281  s :     0.833281
 36 H s       :     0.847218  s :     0.847218
 37 H s       :     0.812066  s :     0.812066
 38 H s       :     0.813699  s :     0.813699


                      *****************************
                      * MAYER POPULATION ANALYSIS *
                      *****************************

  NA   - Mulliken gross atomic population
  ZA   - Total nuclear charge
  QA   - Mulliken gross atomic charge
  VA   - Mayer's total valence
  BVA  - Mayer's bonded valence
  FA   - Mayer's free valence

  ATOM       NA         ZA         QA         VA         BVA        FA
  0 Ir    16.3806    17.0000     0.6194     3.7527     3.7527     0.0000
  1 C      6.2083     6.0000    -0.2083     3.6960     3.6960    -0.0000
  2 C      6.2944     6.0000    -0.2944     3.7434     3.7434    -0.0000
  3 C      6.2319     6.0000    -0.2319     3.7296     3.7296    -0.0000
  4 C      6.2456     6.0000    -0.2456     3.7215     3.7215    -0.0000
  5 C      6.1661     6.0000    -0.1661     3.6901     3.6901    -0.0000
  6 N      7.4276     7.0000    -0.4276     3.2163     3.2163    -0.0000
  7 C      6.1177     6.0000    -0.1177     3.6986     3.6986    -0.0000
  8 C      6.6946     6.0000    -0.6946     3.6870     3.6870    -0.0000
  9 H      0.7271     1.0000     0.2729     0.8963     0.8963    -0.0000
 10 H      0.7739     1.0000     0.2261     0.9094     0.9094    -0.0000
 11 H      0.7392     1.0000     0.2608     0.8973     0.8973     0.0000
 12 C      6.6393     6.0000    -0.6393     3.6730     3.6730    -0.0000
 13 H      0.7188     1.0000     0.2812     0.8752     0.8752    -0.0000
 14 H      0.7350     1.0000     0.2650     0.8964     0.8964    -0.0000
 15 H      0.7691     1.0000     0.2309     0.9094     0.9094     0.0000
 16 H      0.7673     1.0000     0.2327     0.9053     0.9053     0.0000
 17 C      5.9319     6.0000     0.0681     3.6352     3.6352     0.0000
 18 C      6.2101     6.0000    -0.2101     3.7111     3.7111    -0.0000
 19 H      0.7080     1.0000     0.2920     0.8857     0.8857    -0.0000
 20 C      6.4171     6.0000    -0.4171     3.4482     3.4482    -0.0000
 21 C      6.1408     6.0000    -0.1408     3.7510     3.7510    -0.0000
 22 S     15.7038    16.0000     0.2962     2.5632     2.5632     0.0000
 23 C      6.4291     6.0000    -0.4291     3.7425     3.7425     0.0000
 24 H      0.5004     1.0000     0.4996     0.7374     0.7374     0.0000
 25 H      0.7338     1.0000     0.2662     0.9027     0.9027    -0.0000
 26 H      0.7033     1.0000     0.2967     0.8978     0.8978     0.0000
 27 H      0.7073     1.0000     0.2927     0.9013     0.9013    -0.0000
 28 H      0.7061     1.0000     0.2939     0.9043     0.9043     0.0000
 29 H      0.6930     1.0000     0.3070     0.8916     0.8916     0.0000
 30 O      8.4834     8.0000    -0.4834     2.1111     2.1111    -0.0000
 31 O      8.5425     8.0000    -0.5425     2.0724     2.0724    -0.0000
 32 C      5.3852     6.0000     0.6148     3.9209     3.9209    -0.0000
 33 C      6.7459     6.0000    -0.7459     3.6688     3.6688     0.0000
 34 H      0.7309     1.0000     0.2691     0.8955     0.8955     0.0000
 35 H      0.7343     1.0000     0.2657     0.8957     0.8957     0.0000
 36 H      0.7477     1.0000     0.2523     0.9013     0.9013     0.0000
 37 H      0.7044     1.0000     0.2956     0.9003     0.9003     0.0000
 38 H      0.7043     1.0000     0.2957     0.9029     0.9029    -0.0000

  Mayer bond orders larger than 0.100000
B(  0-Ir,  1-C ) :   0.4209 B(  0-Ir,  2-C ) :   0.5473 B(  0-Ir,  3-C ) :   0.4627 
B(  0-Ir,  4-C ) :   0.4524 B(  0-Ir,  5-C ) :   0.4029 B(  0-Ir,  6-N ) :   0.4648 
B(  0-Ir, 20-C ) :   0.2279 B(  0-Ir, 31-O ) :   0.5874 B(  1-C ,  2-C ) :   1.1142 
B(  1-C ,  4-C ) :   1.2458 B(  1-C , 27-H ) :   0.9028 B(  2-C ,  5-C ) :   1.1309 
B(  2-C , 28-H ) :   0.9066 B(  3-C ,  4-C ) :   1.1044 B(  3-C ,  5-C ) :   1.2349 
B(  3-C , 37-H ) :   0.9030 B(  4-C , 38-H ) :   0.8982 B(  5-C , 29-H ) :   0.8977 
B(  6-N ,  7-C ) :   0.8911 B(  6-N , 17-C ) :   1.6949 B(  7-C ,  8-C ) :   0.9925 
B(  7-C , 12-C ) :   0.9693 B(  7-C , 13-H ) :   0.8718 B(  8-C ,  9-H ) :   0.9033 
B(  8-C , 10-H ) :   0.9124 B(  8-C , 11-H ) :   0.9080 B( 12-C , 14-H ) :   0.9062 
B( 12-C , 15-H ) :   0.9153 B( 12-C , 16-H ) :   0.9110 B( 17-C , 18-C ) :   1.0519 
B( 17-C , 19-H ) :   0.8738 B( 18-C , 20-C ) :   1.3033 B( 18-C , 22-S ) :   1.2177 
B( 20-C , 21-C ) :   1.2659 B( 20-C , 24-H ) :   0.4878 B( 21-C , 23-C ) :   1.5468 
B( 21-C , 25-H ) :   0.9043 B( 22-S , 23-C ) :   1.2027 B( 23-C , 26-H ) :   0.8925 
B( 24-H , 30-O ) :   0.2285 B( 30-O , 32-C ) :   1.6994 B( 31-O , 32-C ) :   1.2696 
B( 32-C , 33-C ) :   0.9467 B( 33-C , 34-H ) :   0.9053 B( 33-C , 35-H ) :   0.8990 
B( 33-C , 36-H ) :   0.9097 


------------------
HIRSHFELD ANALYSIS
------------------

Total integrated alpha density =     82.000436093
Total integrated beta density  =     82.000436093

  ATOM     CHARGE      SPIN    
   0 Ir   0.208293    0.000000
   1 C    0.008104    0.000000
   2 C    0.003211    0.000000
   3 C    0.004338    0.000000
   4 C   -0.003706    0.000000
   5 C    0.018256    0.000000
   6 N   -0.067510    0.000000
   7 C    0.054321    0.000000
   8 C   -0.070823    0.000000
   9 H    0.054154    0.000000
  10 H    0.037965    0.000000
  11 H    0.044044    0.000000
  12 C   -0.070285    0.000000
  13 H    0.047181    0.000000
  14 H    0.051746    0.000000
  15 H    0.036624    0.000000
  16 H    0.030651    0.000000
  17 C    0.102063    0.000000
  18 C   -0.007296    0.000000
  19 H    0.078358    0.000000
  20 C   -0.065202    0.000000
  21 C   -0.034386    0.000000
  22 S    0.117784    0.000000
  23 C   -0.027415    0.000000
  24 H    0.059357    0.000000
  25 H    0.069235    0.000000
  26 H    0.077263    0.000000
  27 H    0.084568    0.000000
  28 H    0.086253    0.000000
  29 H    0.095155    0.000000
  30 O   -0.258537    0.000000
  31 O   -0.260569    0.000000
  32 C    0.241309    0.000000
  33 C   -0.068376    0.000000
  34 H    0.053969    0.000000
  35 H    0.058744    0.000000
  36 H    0.047768    0.000000
  37 H    0.086184    0.000000
  38 H    0.076334    0.000000

  TOTAL   0.999128    0.000000

-------
TIMINGS
-------

Total SCF time: 0 days 0 hours 4 min 32 sec 

Total time                  ....     272.949 sec
Sum of individual times     ....     272.468 sec  ( 99.8%)

Fock matrix formation       ....     264.280 sec  ( 96.8%)
  Split-RI-J                ....      20.290 sec  (  7.7% of F)
  Chain of spheres X        ....     229.273 sec  ( 86.8% of F)
  XC integration            ....      14.555 sec  (  5.5% of F)
    Basis function eval.    ....       6.739 sec  ( 46.3% of XC)
    Density eval.           ....       3.813 sec  ( 26.2% of XC)
    XC-Functional eval.     ....       1.091 sec  (  7.5% of XC)
    XC-Potential eval.      ....       2.386 sec  ( 16.4% of XC)
Diagonalization             ....       0.222 sec  (  0.1%)
Density matrix formation    ....       0.035 sec  (  0.0%)
Population analysis         ....       1.438 sec  (  0.5%)
Initial guess               ....       0.029 sec  (  0.0%)
Orbital Transformation      ....       0.000 sec  (  0.0%)
Orbital Orthonormalization  ....       0.022 sec  (  0.0%)
DIIS solution               ....       0.082 sec  (  0.0%)
Grid generation             ....       6.381 sec  (  2.3%)

Maximum memory used throughout the entire SCF-calculation: 173.6 MB


-------------------------------------------------------------------------------
                          DFT DISPERSION CORRECTION                            
                                                                               
                              DFTD3 V3.1  Rev 1                                
                          USING Becke-Johnson damping                          
-------------------------------------------------------------------------------
The PBEh-3c composite method is recognized
Using three-body term ABC
Active option DFTDOPT                   ...         4   

molecular C6(AA) [au] = 19570.153892 


            DFT-D V3
 parameters
 s6 scaling factor         :     1.0000 
 a1 scaling factor         :     0.4860 
 s8 scaling factor         :     0.0000 
 a2 scaling factor         :     4.5000 
 Damping factor alpha9(ATM):    16.0000 
 ad hoc parameters k1-k3   :    16.0000     1.3333    -4.0000 

 Edisp/kcal,au: -19.362830737725  -0.030856631609 
 E6   /kcal   : -19.712535093 
 E8   /kcal   :  -0.000000000 
 E6(ABC)      :   0.349704355 
 % E8         :   0.000000000 
 % E6(ABC)    :  -1.806060073 

-------------------------   ----------------
Dispersion correction           -0.030856632
-------------------------   ----------------

 ** NOTE ** -> element ir will be treated as co
NOTIFICATION: Different basis set in ORCA and otool_gcp:
ORCA: 358  gCP: 357 
If you are NOT using ECPs, check your basis set inputs!
------------------   -----------------
gCP correction             0.077529634
------------------   -----------------

-------------------------   --------------------
FINAL SINGLE POINT ENERGY     -1288.396521727224
-------------------------   --------------------

                                *** OPTIMIZATION RUN DONE ***

                            ***************************************
                            *     ORCA property calculations      *
                            ***************************************

                                    ---------------------
                                    Active property flags
                                    ---------------------
   (+) Dipole Moment


------------------------------------------------------------------------------
                       ORCA ELECTRIC PROPERTIES CALCULATION
------------------------------------------------------------------------------

Dipole Moment Calculation                       ... on
Quadrupole Moment Calculation                   ... off
Polarizability Calculation                      ... off
GBWName                                         ... reaction4-IEIP_ts_guess_scan_2-6_orca.gbw
Electron density                                ... reaction4-IEIP_ts_guess_scan_2-6_orca.scfp
The origin for moment calculation is the CENTER OF MASS  = ( 0.844109, -0.637857 -0.118087)

-------------
DIPOLE MOMENT
-------------
                                X             Y             Z
Electronic contribution:     34.40281     -68.10472      74.71083
Nuclear contribution   :    -35.03570      66.85048     -74.93853
                        -----------------------------------------
Total Dipole Moment    :     -0.63289      -1.25424      -0.22770
                        -----------------------------------------
Magnitude (a.u.)       :      1.42320
Magnitude (Debye)      :      3.61749



--------------------
Rotational spectrum 
--------------------
 
Rotational constants in cm-1:     0.010707     0.009058     0.008238 
Rotational constants in MHz :   320.977854   271.551322   246.957701 

 Dipole components along the rotational axes: 
x,y,z [a.u.] :    -0.218190    -0.505113     1.312539 
x,y,z [Debye]:    -0.554596    -1.283896     3.336209 

 

Timings for individual modules:

Sum of individual times         ...     5982.773 sec (=  99.713 min)
GTO integral calculation        ...       18.776 sec (=   0.313 min)   0.3 %
SCF iterations                  ...     4789.817 sec (=  79.830 min)  80.1 %
SCF Gradient evaluation         ...     1171.919 sec (=  19.532 min)  19.6 %
Geometry relaxation             ...        2.260 sec (=   0.038 min)   0.0 %
                             ****ORCA TERMINATED NORMALLY****
TOTAL RUN TIME: 0 days 1 hours 39 minutes 46 seconds 690 msec
