
                                 *****************
                                 * O   R   C   A *
                                 *****************

                                            #,                                       
                                            ###                                      
                                            ####                                     
                                            #####                                    
                                            ######                                   
                                           ########,                                 
                                     ,,################,,,,,                         
                               ,,#################################,,                 
                          ,,##########################################,,             
                       ,#########################################, ''#####,          
                    ,#############################################,,   '####,        
                  ,##################################################,,,,####,       
                ,###########''''           ''''###############################       
              ,#####''   ,,,,##########,,,,          '''####'''          '####       
            ,##' ,,,,###########################,,,                        '##       
           ' ,,###''''                  '''############,,,                           
         ,,##''                                '''############,,,,        ,,,,,,###''
      ,#''                                            '''#######################'''  
     '                                                          ''''####''''         
             ,#######,   #######,   ,#######,      ##                                
            ,#'     '#,  ##    ##  ,#'     '#,    #''#        ######   ,####,        
            ##       ##  ##   ,#'  ##            #'  '#       #        #'  '#        
            ##       ##  #######   ##           ,######,      #####,   #    #        
            '#,     ,#'  ##    ##  '#,     ,#' ,#      #,         ##   #,  ,#        
             '#######'   ##     ##  '#######'  #'      '#     #####' # '####'        



                  #######################################################
                  #                        -***-                        #
                  #          Department of theory and spectroscopy      #
                  #    Directorship and core code : Frank Neese         #
                  #        Max Planck Institute fuer Kohlenforschung    #
                  #                Kaiser Wilhelm Platz 1               #
                  #                 D-45470 Muelheim/Ruhr               #
                  #                      Germany                        #
                  #                                                     #
                  #                  All rights reserved                #
                  #                        -***-                        #
                  #######################################################


                         Program Version 5.0.3 -  RELEASE  -


 With contributions from (in alphabetic order):
   Daniel Aravena         : Magnetic Suceptibility
   Michael Atanasov       : Ab Initio Ligand Field Theory (pilot matlab implementation)
   Alexander A. Auer      : GIAO ZORA, VPT2 properties, NMR spectrum
   Ute Becker             : Parallelization
   Giovanni Bistoni       : ED, misc. LED, open-shell LED, HFLD
   Martin Brehm           : Molecular dynamics
   Dmytro Bykov           : SCF Hessian
   Vijay G. Chilkuri      : MRCI spin determinant printing, contributions to CSF-ICE
   Dipayan Datta          : RHF DLPNO-CCSD density
   Achintya Kumar Dutta   : EOM-CC, STEOM-CC
   Dmitry Ganyushin       : Spin-Orbit,Spin-Spin,Magnetic field MRCI
   Miquel Garcia          : C-PCM and meta-GGA Hessian, CC/C-PCM, Gaussian charge scheme
   Yang Guo               : DLPNO-NEVPT2, F12-NEVPT2, CIM, IAO-localization
   Andreas Hansen         : Spin unrestricted coupled pair/coupled cluster methods
   Benjamin Helmich-Paris : MC-RPA, TRAH-SCF, COSX integrals
   Lee Huntington         : MR-EOM, pCC
   Robert Izsak           : Overlap fitted RIJCOSX, COSX-SCS-MP3, EOM
   Marcus Kettner         : VPT2
   Christian Kollmar      : KDIIS, OOCD, Brueckner-CCSD(T), CCSD density, CASPT2, CASPT2-K
   Simone Kossmann        : Meta GGA functionals, TD-DFT gradient, OOMP2, MP2 Hessian
   Martin Krupicka        : Initial AUTO-CI
   Lucas Lang             : DCDCAS
   Marvin Lechner         : AUTO-CI (C++ implementation), FIC-MRCC
   Dagmar Lenk            : GEPOL surface, SMD
   Dimitrios Liakos       : Extrapolation schemes; Compound Job, initial MDCI parallelization
   Dimitrios Manganas     : Further ROCIS development; embedding schemes
   Dimitrios Pantazis     : SARC Basis sets
   Anastasios Papadopoulos: AUTO-CI, single reference methods and gradients
   Taras Petrenko         : DFT Hessian,TD-DFT gradient, ASA, ECA, R-Raman, ABS, FL, XAS/XES, NRVS
   Peter Pinski           : DLPNO-MP2, DLPNO-MP2 Gradient
   Christoph Reimann      : Effective Core Potentials
   Marius Retegan         : Local ZFS, SOC
   Christoph Riplinger    : Optimizer, TS searches, QM/MM, DLPNO-CCSD(T), (RO)-DLPNO pert. Triples
   Tobias Risthaus        : Range-separated hybrids, TD-DFT gradient, RPA, STAB
   Michael Roemelt        : Original ROCIS implementation
   Masaaki Saitow         : Open-shell DLPNO-CCSD energy and density
   Barbara Sandhoefer     : DKH picture change effects
   Avijit Sen             : IP-ROCIS
   Kantharuban Sivalingam : CASSCF convergence, NEVPT2, FIC-MRCI
   Bernardo de Souza      : ESD, SOC TD-DFT
   Georgi Stoychev        : AutoAux, RI-MP2 NMR, DLPNO-MP2 response
   Willem Van den Heuvel  : Paramagnetic NMR
   Boris Wezisla          : Elementary symmetry handling
   Frank Wennmohs         : Technical directorship


 We gratefully acknowledge several colleagues who have allowed us to
 interface, adapt or use parts of their codes:
   Stefan Grimme, W. Hujo, H. Kruse, P. Pracht,  : VdW corrections, initial TS optimization,
                  C. Bannwarth, S. Ehlert          DFT functionals, gCP, sTDA/sTD-DF
   Ed Valeev, F. Pavosevic, A. Kumar             : LibInt (2-el integral package), F12 methods
   Garnet Chan, S. Sharma, J. Yang, R. Olivares  : DMRG
   Ulf Ekstrom                                   : XCFun DFT Library
   Mihaly Kallay                                 : mrcc  (arbitrary order and MRCC methods)
   Jiri Pittner, Ondrej Demel                    : Mk-CCSD
   Frank Weinhold                                : gennbo (NPA and NBO analysis)
   Christopher J. Cramer and Donald G. Truhlar   : smd solvation model
   Lars Goerigk                                  : TD-DFT with DH, B97 family of functionals
   V. Asgeirsson, H. Jonsson                     : NEB implementation
   FAccTs GmbH                                   : IRC, NEB, NEB-TS, DLPNO-Multilevel, CI-OPT
                                                   MM, QMMM, 2- and 3-layer-ONIOM, Crystal-QMMM,
                                                   LR-CPCM, SF, NACMEs, symmetry and pop. for TD-DFT,
                                                   nearIR, NL-DFT gradient (VV10), updates on ESD,
                                                   ML-optimized integration grids
   S Lehtola, MJT Oliveira, MAL Marques          : LibXC Library
   Liviu Ungur et al                             : ANISO software


 Your calculation uses the libint2 library for the computation of 2-el integrals
 For citations please refer to: http://libint.valeyev.net

 Your ORCA version has been built with support for libXC version: 5.1.0
 For citations please refer to: https://tddft.org/programs/libxc/

 This ORCA versions uses:
   CBLAS   interface :  Fast vector & matrix operations
   LAPACKE interface :  Fast linear algebra routines
   SCALAPACK package :  Parallel linear algebra routines
   Shared memory     :  Shared parallel matrices
   BLAS/LAPACK       :  OpenBLAS 0.3.15  USE64BITINT DYNAMIC_ARCH NO_AFFINITY SkylakeX SINGLE_THREADED
        Core in use  :  SkylakeX
   Copyright (c) 2011-2014, The OpenBLAS Project


Your calculation utilizes the geometrical counterpoise correction gCP
Please cite in your paper:
H.Kruse, S. Grimme J.Chem.Phys., 136, (2012), 154101 
   

Your calculation utilizes the atom-pairwise dispersion correction
with the Becke-Johnson damping scheme (D3BJ)
Cite in your paper:
S.Grimme, S.Ehrlich, L.Goerigk, J Comput Chem, (2011), 32, 1456–1465 
S.Grimme, J.Antony, S.Ehrlich and H.Krieg, J.Chem.Phys., 132, (2010), 154104 
   

Your calculation employs the composite approach PBEh-3c.
Please cite in your paper:
S. Grimme, J. G. Brandenburg, C. Bannwarth, A. Hansen J.Chem.Phys., 143, (2015), 054107 
   

================================================================================

cite the ECPs for Ir [Def2-ECP] as follows:
Ce-Yb(ecp-28): M. Dolg, H. Stoll, H.Preuss, J. Chem. Phys., 1989, 90, 1730-1734.
Y-Cd(ecp-28), Hf-Hg(ecp-46): D. Andrae,U. Haeussermann, M. Dolg, H. Stoll, H. Preuss, Theor. Chim. Acta, 1990, 77, 123-141.
In-Sb(ecp-28), Tl-Bi(ecp-46): B. Metz, H. Stoll, M. Dolg, J. Chem. Phys., 2000, 113, 2563-2569.
Te-Xe(ecp-28), Po-Rn(ecp-46): K. A. Peterson, D. Figgen, E. Goll, H. Stoll, M. Dolg, J. Chem. Phys., 2003, 119, 11113-11123.
Rb(ecp-28), Cs(ecp-46): T. Leininger, A. Nicklass, W. Kuechle, H. Stoll, M. Dolg, A. Bergner, Chem. Phys. Lett., 1996, 255, 274-280.
Sr(ecp-28), Ba(ecp-46): M. Kaupp, P. V. Schleyer, H. Stoll and H. Preuss, J. Chem. Phys., 1991, 94, 1360-1366.
La(ecp-46): M. Dolg, H. Stoll, A. Savin, H. Preuss, Theor. Chim. Acta, 1989, 75, 173-194.
Lu(ecp-28): X. Cao, M. Dolg, J. Chem. Phys., 2001, 115, 7348-7355.

ECP parameters for Ir [Def2-ECP] have been obtained from:
TURBOMOLE (7.0.2)

----- Orbital basis set information -----
Your calculation utilizes the basis: def2-mSVP

----- AuxJ basis set information -----
Your calculation utilizes the auxiliary basis: def2/J
   F. Weigend, Phys. Chem. Chem. Phys. 8, 1057 (2006).

================================================================================
                                        WARNINGS
                       Please study these warnings very carefully!
================================================================================


WARNING: Geometry Optimization
  ===> : Switching off AutoStart
         For restart on a previous wavefunction, please use MOREAD

WARNING: No Hueckel Guess possible with ECP basis!
  ===> : Switching to HCORE guess!

INFO   : the flag for use of the SHARK integral package has been found!

================================================================================
                                       INPUT FILE
================================================================================
NAME = reaction4-IEIP_ts_guess_scan_4-6_orca.inp
|  1> ! Opt PBEh-3c
|  2> %geom Constraints
|  3> { B 0 20 2.428571428571429 C }
|  4> { B 24 30 1.4142857142857144 C }
|  5>     end
|  6> end
|  7> %output 
|  8> xyzfile=True 
|  9> end 
| 10> %scf 
| 11> maxiter 250 
| 12> end
| 13> %output
| 14> Print[P_Hirshfeld] = 1
| 15> end
| 16> % maxcore
| 17> 4000
| 18> *xyz 1 1
| 19> Ir   0.58947290  -0.72234522   0.46306459 
| 20> C    0.03654111  -2.80496876   0.35200263 
| 21> C    0.10628100  -2.35539138   1.72046726 
| 22> C    2.19938216  -2.13337523   0.78478511 
| 23> C    1.30611507  -2.64321429  -0.23126184 
| 24> C    1.47032615  -1.99364567   1.97916036 
| 25> N   -1.04464398   0.16338953  -0.51849653 
| 26> C   -2.31702675   0.48507783   0.14699463 
| 27> C   -3.12382257   1.55651021  -0.56883350 
| 28> H   -3.95334530   1.85733286   0.06965049 
| 29> H   -3.56395734   1.20572053  -1.50368605 
| 30> H   -2.53086011   2.44897108  -0.77118054 
| 31> C   -3.12679325  -0.79041227   0.34567192 
| 32> H   -2.02709166   0.86932115   1.12633161 
| 33> H   -4.04162254  -0.56082802   0.88990344 
| 34> H   -3.41018330  -1.23299996  -0.61018016 
| 35> H   -2.58379474  -1.53466320   0.92646588 
| 36> C   -0.84688529   0.37304979  -1.76273258 
| 37> C    0.50207860   0.15922601  -2.23661702 
| 38> H   -1.63169152   0.72944701  -2.42378866 
| 39> C    1.60204895   0.47542311  -1.44690922 
| 40> C    2.80741783   0.07528924  -2.09229541 
| 41> S    0.93200477  -0.56488468  -3.72010998 
| 42> C    2.59799428  -0.49101281  -3.31067928 
| 43> H    1.53189964   1.36499322  -0.65743413 
| 44> H    3.79295259   0.25282732  -1.68693519 
| 45> H    3.33606889  -0.85088437  -4.01153080 
| 46> H   -0.84859611  -3.16750134  -0.15071979 
| 47> H   -0.68901219  -2.38872919   2.45049686 
| 48> H    1.84949711  -1.59967702   2.91116577 
| 49> O    1.33046716   2.44785543   0.25231898 
| 50> O    0.53469004   0.91731717   1.66603048 
| 51> C    0.91903036   2.11085027   1.36122085 
| 52> C    0.86361492   3.09570550   2.49491636 
| 53> H    0.82278119   4.11401345   2.11807161 
| 54> H    1.77025219   2.99802750   3.09532729 
| 55> H    0.01857573   2.90666481   3.15356907 
| 56> H    3.24627155  -1.90544798   0.65018323 
| 57> H    1.57293239  -2.86784158  -1.25366769 
| 58> *
| 59> 
| 60>                          ****END OF INPUT****
================================================================================

                       *****************************
                       * Geometry Optimization Run *
                       *****************************

Geometry optimization settings:
Update method            Update   .... BFGS
Choice of coordinates    CoordSys .... Z-matrix Internals
Initial Hessian          InHess   .... Almoef's Model

Convergence Tolerances:
Energy Change            TolE     ....  5.0000e-06 Eh
Max. Gradient            TolMAXG  ....  3.0000e-04 Eh/bohr
RMS Gradient             TolRMSG  ....  1.0000e-04 Eh/bohr
Max. Displacement        TolMAXD  ....  4.0000e-03 bohr
RMS Displacement         TolRMSD  ....  2.0000e-03 bohr
Strict Convergence                ....  False
------------------------------------------------------------------------------
                        ORCA OPTIMIZATION COORDINATE SETUP
------------------------------------------------------------------------------

The optimization will be done in new redundant internal coordinates
Making redundant internal coordinates   ...  (new redundants) done
Evaluating the initial hessian          ...  (Almloef) done
Evaluating the coordinates              ...  done
Calculating the B-matrix                .... done
Calculating the G-matrix                .... done
Diagonalizing the G-matrix              .... done
Imposing constraints:
 Iter   0:  RMS(Cart)=    0.0241019023 RMS(Int)=    0.0025162626
 Iter   1:  RMS(Cart)=    0.0010182681 RMS(Int)=    0.0001191453
 Iter   2:  RMS(Cart)=    0.0000470163 RMS(Int)=    0.0000054336
 Iter   3:  RMS(Cart)=    0.0000020812 RMS(Int)=    0.0000002378
 Iter   4:  RMS(Cart)=    0.0000000886 RMS(Int)=    0.0000000101
CONVERGED
Small eigenvalue found = 1.255e-02
Small eigenvalue found = 1.597e-02
Small eigenvalue found = 2.249e-02
Small eigenvalue found = 2.319e-02
Small eigenvalue found = 2.887e-02
The first mode is                       ....  227
The number of degrees of freedom        ....  111
Storing new coordinates                 .... done

    -----------------------------------------------------------------
                    Redundant Internal Coordinates


    -----------------------------------------------------------------
         Definition                    Initial Value    Approx d2E/dq
    -----------------------------------------------------------------
      1. B(C   1,Ir  0)                  2.1576         0.086691   
      2. B(C   2,C   1)                  1.4421         0.515943   
      3. B(C   2,Ir  0)                  2.1170         0.100676   
      4. B(C   3,Ir  0)                  2.1648         0.084442   
      5. B(C   4,Ir  0)                  2.1646         0.084508   
      6. B(C   4,C   3)                  1.4458         0.509075   
      7. B(C   4,C   1)                  1.4065         0.588097   
      8. B(C   5,Ir  0)                  2.1658         0.084132   
      9. B(C   5,C   2)                  1.4347         0.530154   
     10. B(C   5,C   3)                  1.4063         0.588559   
     11. B(N   6,Ir  0)                  2.1015         0.095259   
     12. B(C   7,N   6)                  1.4715         0.414804   
     13. B(C   8,C   7)                  1.5203         0.387134   
     14. B(H   9,C   8)                  1.0892         0.361216   
     15. B(H  10,C   8)                  1.0912         0.358514   
     16. B(H  11,C   8)                  1.0904         0.359533   
     17. B(C  12,C   7)                  1.5238         0.382134   
     18. B(H  13,C   7)                  1.0912         0.358462   
     19. B(H  14,C  12)                  1.0890         0.361493   
     20. B(H  15,C  12)                  1.0908         0.359042   
     21. B(H  16,C  12)                  1.0891         0.361329   
     22. B(C  17,N   6)                  1.2755         0.846978   
     23. B(C  18,C  17)                  1.4447         0.509219   
     24. B(H  19,C  17)                  1.0863         0.365098   
     25. B(C  20,C  18)                  1.3904         0.623598   
     26. B(C  20,Ir  0)                  2.4286         0.027374 C 
     27. B(C  21,C  20)                  1.4248         0.550178   
     28. B(S  22,C  18)                  1.7058         0.527944   
     29. B(C  23,C  21)                  1.3600         0.698143   
     30. B(C  23,S  22)                  1.7174         0.506473   
     31. B(H  24,C  20)                  1.1914         0.248075   
     32. B(H  25,C  21)                  1.0804         0.373121   
     33. B(H  26,C  23)                  1.0796         0.374176   
     34. B(H  27,C   1)                  1.0806         0.372796   
     35. B(H  28,C   2)                  1.0801         0.373482   
     36. B(H  29,C   5)                  1.0806         0.372803   
     37. B(O  30,H  24)                  1.4143         0.092980 C 
     38. B(O  31,Ir  0)                  2.0345         0.122121   
     39. B(C  32,O  30)                  1.2298         1.007846   
     40. B(C  32,O  31)                  1.2905         0.806810   
     41. B(C  33,C  32)                  1.5028         0.412898   
     42. B(H  34,C  33)                  1.0866         0.364669   
     43. B(H  35,C  33)                  1.0918         0.357728   
     44. B(H  36,C  33)                  1.0880         0.362812   
     45. B(H  37,C   3)                  1.0799         0.373800   
     46. B(H  38,C   4)                  1.0803         0.373217   
     47. A(C   2,Ir  0,O  31)          105.3263         0.265675   
     48. A(C   1,Ir  0,O  31)          143.2708         0.259795   
     49. A(C   5,Ir  0,N   6)          152.9253         0.249365   
     50. A(C   1,Ir  0,C   3)           64.4751         0.247244   
     51. A(C   1,Ir  0,C   5)           64.7661         0.247112   
     52. A(C   3,Ir  0,O  31)          117.2238         0.258781   
     53. A(C   3,Ir  0,N   6)          157.2517         0.249499   
     54. A(C   2,Ir  0,C   5)           39.1242         0.252555   
     55. A(C   3,Ir  0,C   4)           39.0165         0.246332   
     56. A(C   2,Ir  0,C   4)           65.2634         0.252720   
     57. A(C   5,Ir  0,O  31)           94.0180         0.258640   
     58. A(C   4,Ir  0,N   6)          118.7860         0.249527   
     59. A(C   1,Ir  0,C   2)           39.4196         0.253668   
     60. A(C   4,Ir  0,C   5)           64.4689         0.246202   
     61. A(C   4,Ir  0,O  31)          156.0386         0.258811   
     62. A(C   1,Ir  0,N   6)          100.5712         0.250456   
     63. A(C   2,Ir  0,C   3)           65.0810         0.252692   
     64. A(C   2,Ir  0,N   6)          115.1490         0.256015   
     65. A(C   1,Ir  0,C   4)           37.9814         0.247271   
     66. A(N   6,Ir  0,O  31)           85.1580         0.262229   
     67. A(C   3,Ir  0,C   5)           37.8985         0.246174   
     68. A(Ir  0,C   1,H  27)          123.8966         0.269661   
     69. A(C   2,C   1,C   4)          108.3016         0.416077   
     70. A(Ir  0,C   1,C   4)           71.2773         0.320587   
     71. A(C   4,C   1,H  27)          125.8074         0.351825   
     72. A(Ir  0,C   1,C   2)           68.7685         0.313826   
     73. A(C   2,C   1,H  27)          125.8510         0.344153   
     74. A(C   5,C   2,H  28)          125.8721         0.345834   
     75. A(Ir  0,C   2,C   5)           72.2776         0.323001   
     76. A(C   1,C   2,C   5)          107.1982         0.408488   
     77. A(Ir  0,C   2,C   1)           71.8118         0.321566   
     78. A(Ir  0,C   2,H  28)          126.3960         0.275958   
     79. A(C   1,C   2,H  28)          126.5959         0.344259   
     80. A(Ir  0,C   3,H  37)          124.3951         0.268698   
     81. A(C   4,C   3,C   5)          108.1566         0.415144   
     82. A(C   4,C   3,H  37)          125.8616         0.343535   
     83. A(Ir  0,C   3,C   4)           70.4828         0.311816   
     84. A(Ir  0,C   3,C   5)           71.0896         0.319254   
     85. A(C   5,C   3,H  37)          125.9809         0.352032   
     86. A(Ir  0,C   4,C   1)           70.7413         0.319253   
     87. A(Ir  0,C   4,H  38)          124.7423         0.268667   
     88. A(C   1,C   4,H  38)          126.2663         0.351893   
     89. A(C   3,C   4,H  38)          125.8636         0.343445   
     90. A(Ir  0,C   4,C   3)           70.5007         0.311855   
     91. A(C   1,C   4,C   3)          107.8676         0.415086   
     92. A(Ir  0,C   5,H  29)          122.1744         0.268440   
     93. A(C   3,C   5,H  29)          125.9350         0.351873   
     94. A(C   2,C   5,H  29)          125.5251         0.345728   
     95. A(Ir  0,C   5,C   3)           71.0119         0.319062   
     96. A(C   2,C   5,C   3)          108.3434         0.418153   
     97. A(Ir  0,C   5,C   2)           68.5981         0.313684   
     98. A(Ir  0,N   6,C  17)          113.3484         0.342004   
     99. A(C   7,N   6,C  17)          122.8170         0.421570   
    100. A(Ir  0,N   6,C   7)          123.8173         0.304257   
    101. A(N   6,C   7,C   8)          113.5780         0.369876   
    102. A(N   6,C   7,C  12)          109.6015         0.369050   
    103. A(C   8,C   7,C  12)          111.6711         0.366996   
    104. A(N   6,C   7,H  13)          104.6617         0.327732   
    105. A(C   8,C   7,H  13)          108.3857         0.325981   
    106. A(C  12,C   7,H  13)          108.5969         0.325285   
    107. A(C   7,C   8,H  11)          112.0612         0.326141   
    108. A(H   9,C   8,H  11)          107.2710         0.290909   
    109. A(H  10,C   8,H  11)          108.8725         0.290566   
    110. A(C   7,C   8,H   9)          108.8329         0.326392   
    111. A(C   7,C   8,H  10)          113.0093         0.325988   
    112. A(H   9,C   8,H  10)          106.4880         0.290779   
    113. A(C   7,C  12,H  14)          109.5801         0.325735   
    114. A(C   7,C  12,H  15)          111.3107         0.325371   
    115. A(H  14,C  12,H  15)          107.7720         0.290881   
    116. A(C   7,C  12,H  16)          112.1224         0.325711   
    117. A(H  14,C  12,H  16)          107.2424         0.291172   
    118. A(H  15,C  12,H  16)          108.6372         0.290861   
    119. A(N   6,C  17,C  18)          115.5491         0.440260   
    120. A(N   6,C  17,H  19)          122.5920         0.370764   
    121. A(C  18,C  17,H  19)          121.8147         0.342198   
    122. A(C  17,C  18,C  20)          121.0261         0.419462   
    123. A(C  17,C  18,S  22)          125.7989         0.429581   
    124. A(C  20,C  18,S  22)          113.0746         0.445564   
    125. A(C  18,C  20,C  21)          110.3413         0.425300   
    126. A(C  18,C  20,H  24)          119.9794         0.331880   
    127. A(C  21,C  20,H  24)          124.0529         0.325091   
    128. A(C  20,C  21,H  25)          123.7605         0.347941   
    129. A(C  23,C  21,H  25)          123.0327         0.362284   
    130. A(C  20,C  21,C  23)          113.1163         0.434006   
    131. A(C  18,S  22,C  23)           91.0510         0.453045   
    132. A(C  21,C  23,H  26)          127.9622         0.362459   
    133. A(S  22,C  23,H  26)          119.6118         0.361150   
    134. A(C  21,C  23,S  22)          112.4045         0.451373   
    135. A(Ir  0,O  31,C  32)          126.7607         0.353710   
    136. A(O  30,C  32,O  31)          124.4945         0.491135   
    137. A(O  30,C  32,C  33)          120.8545         0.437427   
    138. A(O  31,C  32,C  33)          114.6345         0.420316   
    139. A(C  32,C  33,H  34)          110.7271         0.330398   
    140. A(C  32,C  33,H  35)          109.0025         0.329350   
    141. A(H  34,C  33,H  35)          107.8061         0.291114   
    142. A(C  32,C  33,H  36)          111.8085         0.330119   
    143. A(H  34,C  33,H  36)          110.0973         0.291760   
    144. A(H  35,C  33,H  36)          107.2486         0.290880   
    145. D(C   2,C   1,Ir  0,C   4)    119.1686         0.001707   
    146. D(C   2,C   1,Ir  0,C   5)     38.9918         0.001707   
    147. D(H  27,C   1,Ir  0,O  31)     98.8618         0.001707   
    148. D(C   4,C   1,Ir  0,C   2)   -119.1686         0.001707   
    149. D(C   2,C   1,Ir  0,O  31)    -20.8704         0.001707   
    150. D(H  27,C   1,Ir  0,C   3)   -159.1482         0.001707   
    151. D(C   4,C   1,Ir  0,O  31)   -140.0390         0.001707   
    152. D(H  27,C   1,Ir  0,C   2)    119.7322         0.001707   
    153. D(C   4,C   1,Ir  0,C   3)    -38.0490         0.001707   
    154. D(H  27,C   1,Ir  0,N   6)      2.7464         0.001707   
    155. D(C   2,C   1,Ir  0,C   3)     81.1196         0.001707   
    156. D(C   4,C   1,Ir  0,N   6)    123.8456         0.001707   
    157. D(H  27,C   1,Ir  0,C   4)   -121.0992         0.001707   
    158. D(H  27,C   1,Ir  0,C   5)    158.7240         0.001707   
    159. D(C   4,C   1,Ir  0,C   5)    -80.1768         0.001707   
    160. D(C   2,C   1,Ir  0,N   6)   -116.9857         0.001707   
    161. D(Ir  0,C   2,C   1,H  27)   -117.2213         0.021115   
    162. D(C   1,C   2,Ir  0,C   5)   -115.5774         0.001778   
    163. D(C   1,C   2,Ir  0,C   4)    -36.2745         0.001778   
    164. D(H  28,C   2,C   1,H  27)      5.0521         0.021115   
    165. D(H  28,C   2,C   1,Ir  0)    122.2734         0.021115   
    166. D(C   5,C   2,C   1,H  27)    178.6979         0.021115   
    167. D(C   1,C   2,Ir  0,C   3)    -79.4527         0.001778   
    168. D(H  28,C   2,Ir  0,C   4)   -158.7810         0.001778   
    169. D(H  28,C   2,Ir  0,C   5)    121.9161         0.001778   
    170. D(C   5,C   2,Ir  0,C   3)     36.1247         0.001778   
    171. D(C   5,C   2,Ir  0,C   1)    115.5774         0.001778   
    172. D(H  28,C   2,C   1,C   4)   -177.1465         0.021115   
    173. D(C   5,C   2,Ir  0,C   4)     79.3029         0.001778   
    174. D(C   5,C   2,C   1,Ir  0)    -64.0808         0.021115   
    175. D(H  28,C   2,Ir  0,N   6)    -47.1016         0.001778   
    176. D(H  28,C   2,Ir  0,O  31)     44.7311         0.001778   
    177. D(Ir  0,C   2,C   1,C   4)     60.5800         0.021115   
    178. D(C   5,C   2,C   1,C   4)     -3.5007         0.021115   
    179. D(C   1,C   2,Ir  0,N   6)     75.4049         0.001778   
    180. D(C   5,C   2,Ir  0,O  31)    -77.1850         0.001778   
    181. D(H  28,C   2,Ir  0,C   1)   -122.5065         0.001778   
    182. D(C   1,C   2,Ir  0,O  31)    167.2376         0.001778   
    183. D(H  28,C   2,Ir  0,C   3)    158.0408         0.001778   
    184. D(C   5,C   2,Ir  0,N   6)   -169.0177         0.001778   
    185. D(C   4,C   3,Ir  0,C   5)    118.0930         0.001696   
    186. D(C   4,C   3,Ir  0,C   1)     37.0486         0.001696   
    187. D(C   4,C   3,Ir  0,O  31)    175.9117         0.001696   
    188. D(C   4,C   3,Ir  0,C   2)     80.8202         0.001696   
    189. D(C   5,C   3,Ir  0,O  31)     57.8187         0.001696   
    190. D(C   5,C   3,Ir  0,C   2)    -37.2727         0.001696   
    191. D(C   4,C   3,Ir  0,N   6)    -15.1396         0.001696   
    192. D(H  37,C   3,Ir  0,C   4)    120.7025         0.001696   
    193. D(H  37,C   3,Ir  0,C   1)    157.7510         0.001696   
    194. D(C   5,C   3,Ir  0,C   1)    -81.0444         0.001696   
    195. D(C   5,C   3,Ir  0,C   4)   -118.0930         0.001696   
    196. D(C   5,C   3,Ir  0,N   6)   -133.2326         0.001696   
    197. D(H  37,C   3,Ir  0,C   5)   -121.2046         0.001696   
    198. D(H  37,C   3,Ir  0,N   6)    105.5628         0.001696   
    199. D(H  37,C   3,Ir  0,O  31)    -63.3858         0.001696   
    200. D(H  37,C   3,Ir  0,C   2)   -158.4773         0.001696   
    201. D(C   1,C   4,Ir  0,C   3)    117.9370         0.001697   
    202. D(H  38,C   4,C   3,H  37)      0.4398         0.020540   
    203. D(C   1,C   4,Ir  0,C   5)     81.0287         0.001697   
    204. D(C   1,C   4,Ir  0,N   6)    -68.6799         0.001697   
    205. D(C   1,C   4,Ir  0,O  31)    108.9564         0.001697   
    206. D(C   1,C   4,Ir  0,C   2)     37.6248         0.001697   
    207. D(C   3,C   4,Ir  0,C   1)   -117.9370         0.001697   
    208. D(H  38,C   4,C   3,C   5)   -179.2210         0.020540   
    209. D(C   3,C   4,Ir  0,C   5)    -36.9083         0.001697   
    210. D(C   3,C   4,Ir  0,N   6)    173.3831         0.001697   
    211. D(C   3,C   4,Ir  0,O  31)     -8.9807         0.001697   
    212. D(Ir  0,C   4,C   1,C   2)    -59.0132         0.027766   
    213. D(H  38,C   4,Ir  0,C   2)    158.9733         0.001697   
    214. D(H  38,C   4,Ir  0,C   3)   -120.7145         0.001697   
    215. D(H  38,C   4,C   1,C   2)   -178.5102         0.027766   
    216. D(H  38,C   4,Ir  0,N   6)     52.6686         0.001697   
    217. D(H  38,C   4,Ir  0,O  31)   -129.6952         0.001697   
    218. D(Ir  0,C   4,C   1,H  27)    118.7894         0.027766   
    219. D(C   3,C   4,C   1,Ir  0)     61.0444         0.027766   
    220. D(C   3,C   4,C   1,H  27)    179.8338         0.027766   
    221. D(H  38,C   4,C   1,Ir  0)   -119.4971         0.027766   
    222. D(H  38,C   4,Ir  0,C   5)   -157.6228         0.001697   
    223. D(H  38,C   4,C   1,H  27)     -0.7077         0.027766   
    224. D(Ir  0,C   4,C   3,C   5)     61.4382         0.020540   
    225. D(Ir  0,C   4,C   3,H  37)   -118.9010         0.020540   
    226. D(C   3,C   4,C   1,C   2)      2.0312         0.027766   
    227. D(C   1,C   4,C   3,C   5)      0.2403         0.020540   
    228. D(C   1,C   4,C   3,H  37)    179.9011         0.020540   
    229. D(H  38,C   4,C   3,Ir  0)    119.3408         0.020540   
    230. D(H  38,C   4,Ir  0,C   1)    121.3485         0.001697   
    231. D(C   1,C   4,C   3,Ir  0)    -61.1979         0.020540   
    232. D(C   3,C   4,Ir  0,C   2)    -80.3122         0.001697   
    233. D(C   2,C   5,Ir  0,C   1)    -39.2858         0.001695   
    234. D(H  29,C   5,C   3,C   4)   -177.5468         0.027812   
    235. D(C   2,C   5,Ir  0,C   4)    -81.5077         0.001695   
    236. D(C   2,C   5,Ir  0,N   6)     22.2642         0.001695   
    237. D(C   2,C   5,Ir  0,O  31)    109.4847         0.001695   
    238. D(C   3,C   5,Ir  0,C   1)     80.2082         0.001695   
    239. D(C   3,C   5,Ir  0,C   2)    119.4941         0.001695   
    240. D(C   3,C   5,Ir  0,C   4)     37.9864         0.001695   
    241. D(H  29,C   5,C   2,C   1)    178.7915         0.022336   
    242. D(C   3,C   5,Ir  0,O  31)   -131.0212         0.001695   
    243. D(H  29,C   5,Ir  0,C   1)   -158.6761         0.001695   
    244. D(C   3,C   5,C   2,Ir  0)    -60.1238         0.022336   
    245. D(H  29,C   5,Ir  0,C   3)    121.1157         0.001695   
    246. D(H  29,C   5,Ir  0,C   4)    159.1021         0.001695   
    247. D(H  29,C   5,Ir  0,N   6)    -97.1261         0.001695   
    248. D(H  29,C   5,Ir  0,O  31)     -9.9055         0.001695   
    249. D(Ir  0,C   5,C   2,C   1)     63.7723         0.022336   
    250. D(H  29,C   5,Ir  0,C   2)   -119.3903         0.001695   
    251. D(Ir  0,C   5,C   2,H  28)   -122.5231         0.022336   
    252. D(C   3,C   5,C   2,C   1)      3.6484         0.022336   
    253. D(C   3,C   5,C   2,H  28)    177.3530         0.022336   
    254. D(C   3,C   5,Ir  0,N   6)    141.7583         0.001695   
    255. D(H  29,C   5,C   2,Ir  0)    115.0192         0.022336   
    256. D(H  29,C   5,C   2,H  28)     -7.5039         0.022336   
    257. D(Ir  0,C   5,C   3,C   4)    -61.0528         0.027812   
    258. D(Ir  0,C   5,C   3,H  37)    119.2869         0.027812   
    259. D(C   2,C   5,C   3,Ir  0)     58.6240         0.027812   
    260. D(C   2,C   5,C   3,C   4)     -2.4288         0.027812   
    261. D(C   2,C   5,C   3,H  37)    177.9109         0.027812   
    262. D(C   2,C   5,Ir  0,C   3)   -119.4941         0.001695   
    263. D(H  29,C   5,C   3,Ir  0)   -116.4940         0.027812   
    264. D(H  29,C   5,C   3,H  37)      2.7930         0.027812   
    265. D(C  17,N   6,Ir  0,C   1)    -94.7245         0.001769   
    266. D(C   7,N   6,Ir  0,C   2)     45.1043         0.001769   
    267. D(C   7,N   6,Ir  0,C   3)    130.2828         0.001769   
    268. D(C   7,N   6,Ir  0,C   4)    119.4699         0.001769   
    269. D(C   7,N   6,Ir  0,C   5)     29.7903         0.001769   
    270. D(C   7,N   6,Ir  0,C   1)     83.7949         0.001769   
    271. D(C   7,N   6,Ir  0,O  31)    -59.5669         0.001769   
    272. D(C  17,N   6,Ir  0,C   2)   -133.4150         0.001769   
    273. D(C  17,N   6,Ir  0,C   3)    -48.2365         0.001769   
    274. D(C  17,N   6,Ir  0,C   4)    -59.0494         0.001769   
    275. D(C  17,N   6,Ir  0,C   5)   -148.7291         0.001769   
    276. D(C  17,N   6,Ir  0,O  31)    121.9137         0.001769   
    277. D(C   8,C   7,N   6,Ir  0)    158.0311         0.014675   
    278. D(C   8,C   7,N   6,C  17)    -23.5865         0.014675   
    279. D(C  12,C   7,N   6,Ir  0)    -76.2985         0.014675   
    280. D(C  12,C   7,N   6,C  17)    102.0839         0.014675   
    281. D(H  13,C   7,N   6,Ir  0)     40.0027         0.014675   
    282. D(H  13,C   7,N   6,C  17)   -141.6149         0.014675   
    283. D(H   9,C   8,C   7,N   6)   -170.2556         0.011923   
    284. D(H   9,C   8,C   7,C  12)     65.1825         0.011923   
    285. D(H   9,C   8,C   7,H  13)    -54.4014         0.011923   
    286. D(H  10,C   8,C   7,N   6)     71.6694         0.011923   
    287. D(H  10,C   8,C   7,C  12)    -52.8926         0.011923   
    288. D(H  10,C   8,C   7,H  13)   -172.4765         0.011923   
    289. D(H  11,C   8,C   7,N   6)    -51.7861         0.011923   
    290. D(H  11,C   8,C   7,C  12)   -176.3481         0.011923   
    291. D(H  11,C   8,C   7,H  13)     64.0680         0.011923   
    292. D(H  14,C  12,C   7,N   6)    176.7115         0.011632   
    293. D(H  14,C  12,C   7,C   8)    -56.5328         0.011632   
    294. D(H  14,C  12,C   7,H  13)     62.9263         0.011632   
    295. D(H  15,C  12,C   7,N   6)    -64.1779         0.011632   
    296. D(H  15,C  12,C   7,C   8)     62.5778         0.011632   
    297. D(H  15,C  12,C   7,H  13)   -177.9630         0.011632   
    298. D(H  16,C  12,C   7,N   6)     57.7512         0.011632   
    299. D(H  16,C  12,C   7,C   8)   -175.4931         0.011632   
    300. D(H  16,C  12,C   7,H  13)    -56.0339         0.011632   
    301. D(C  18,C  17,N   6,Ir  0)     -8.6846         0.062052   
    302. D(C  18,C  17,N   6,C   7)    172.7792         0.062052   
    303. D(H  19,C  17,N   6,Ir  0)    173.6934         0.062052   
    304. D(H  19,C  17,N   6,C   7)     -4.8429         0.062052   
    305. D(C  20,C  18,C  17,N   6)    -35.8878         0.017671   
    306. D(C  20,C  18,C  17,H  19)    141.7545         0.017671   
    307. D(S  22,C  18,C  17,N   6)    140.2103         0.017671   
    308. D(S  22,C  18,C  17,H  19)    -42.1474         0.017671   
    309. D(C  21,C  20,C  18,C  17)    175.3511         0.029263   
    310. D(C  21,C  20,C  18,S  22)     -1.2096         0.029263   
    311. D(H  24,C  20,C  18,C  17)    -30.0527         0.029263   
    312. D(H  24,C  20,C  18,S  22)    153.3866         0.029263   
    313. D(C  23,C  21,C  20,C  18)      0.8738         0.022472   
    314. D(C  23,C  21,C  20,H  24)   -152.4783         0.022472   
    315. D(H  25,C  21,C  20,C  18)    177.5010         0.022472   
    316. D(H  25,C  21,C  20,H  24)     24.1489         0.022472   
    317. D(C  23,S  22,C  18,C  17)   -175.4024         0.005654   
    318. D(C  23,S  22,C  18,C  20)      0.9636         0.005654   
    319. D(S  22,C  23,C  21,C  20)     -0.1672         0.034313   
    320. D(S  22,C  23,C  21,H  25)   -176.8225         0.034313   
    321. D(H  26,C  23,C  21,C  20)    178.1155         0.034313   
    322. D(H  26,C  23,C  21,H  25)      1.4601         0.034313   
    323. D(C  21,C  23,S  22,C  18)     -0.4457         0.005307   
    324. D(H  26,C  23,S  22,C  18)   -178.8884         0.005307   
    325. D(C  32,O  31,Ir  0,C   1)   -175.3662         0.001917   
    326. D(C  32,O  31,Ir  0,C   2)    171.0679         0.001917   
    327. D(C  32,O  31,Ir  0,C   3)    101.5738         0.001917   
    328. D(C  32,O  31,Ir  0,C   4)    107.9188         0.001917   
    329. D(C  32,O  31,Ir  0,C   5)    132.9849         0.001917   
    330. D(C  32,O  31,Ir  0,N   6)    -74.1601         0.001917   
    331. D(O  30,C  32,O  31,Ir  0)      3.3641         0.050271   
    332. D(C  33,C  32,O  31,Ir  0)   -175.1616         0.050271   
    333. D(H  34,C  33,C  32,O  30)     23.0922         0.012620   
    334. D(H  34,C  33,C  32,O  31)   -158.3232         0.012620   
    335. D(H  35,C  33,C  32,O  30)    -95.3400         0.012620   
    336. D(H  35,C  33,C  32,O  31)     83.2447         0.012620   
    337. D(H  36,C  33,C  32,O  30)    146.2627         0.012620   
    338. D(H  36,C  33,C  32,O  31)    -35.1526         0.012620   
    -----------------------------------------------------------------

Number of atoms                         .... 39
Number of degrees of freedom            .... 338

         *************************************************************
         *                GEOMETRY OPTIMIZATION CYCLE   1            *
         *************************************************************
---------------------------------
CARTESIAN COORDINATES (ANGSTROEM)
---------------------------------
  Ir     0.589959   -0.717883    0.448298
  C      0.040045   -2.801338    0.337937
  C      0.117773   -2.353506    1.706576
  C      2.204470   -2.126454    0.757749
  C      1.305599   -2.636503   -0.253268
  C      1.482832   -1.989666    1.957002
  N     -1.051692    0.166051   -0.521313
  C     -2.322387    0.487072    0.147728
  C     -3.131862    1.557897   -0.565990
  H     -3.959760    1.858318    0.074794
  H     -3.574429    1.206688   -1.499540
  H     -2.540015    2.450687   -0.770159
  C     -3.130814   -0.788879    0.348903
  H     -2.029914    0.871650    1.126182
  H     -4.044243   -0.559764    0.895687
  H     -3.416640   -1.231794   -0.606075
  H     -2.585718   -1.532706    0.928280
  C     -0.853029    0.373682   -1.764063
  C      0.498718    0.153901   -2.224232
  H     -1.633686    0.730543   -2.429795
  C      1.589240    0.467822   -1.420793
  C      2.801318    0.062572   -2.050532
  S      0.943989   -0.574699   -3.700927
  C      2.605168   -0.505278   -3.270668
  H      1.511901    1.358797   -0.633708
  H      3.782395    0.237508   -1.633194
  H      3.350846   -0.868879   -3.961598
  H     -0.847674   -3.164768   -0.159593
  H     -0.672769   -2.389267    2.441670
  H      1.867281   -1.596291    2.887111
  O      1.323725    2.455808    0.238851
  O      0.539953    0.920079    1.653988
  C      0.919910    2.115146    1.349418
  C      0.869458    3.097201    2.485788
  H      0.824106    4.116314    2.111606
  H      1.780044    3.000036    3.080320
  H      0.028925    2.904801    3.149258
  H      3.250085   -1.896461    0.616738
  H      1.566261   -2.859246   -1.277694

----------------------------
CARTESIAN COORDINATES (A.U.)
----------------------------
  NO LB      ZA    FRAG     MASS         X           Y           Z
   0 Ir   17.0000*   0   192.220    1.114861   -1.356602    0.847161
   1 C     6.0000    0    12.011    0.075674   -5.293761    0.638608
   2 C     6.0000    0    12.011    0.222559   -4.447482    3.224961
   3 C     6.0000    0    12.011    4.165844   -4.018416    1.431938
   4 C     6.0000    0    12.011    2.467224   -4.982269   -0.478607
   5 C     6.0000    0    12.011    2.802146   -3.759924    3.698198
   6 N     7.0000    0    14.007   -1.987410    0.313791   -0.985138
   7 C     6.0000    0    12.011   -4.388675    0.920433    0.279165
   8 C     6.0000    0    12.011   -5.918361    2.943999   -1.069566
   9 H     1.0000    0     1.008   -7.482863    3.511712    0.141339
  10 H     1.0000    0     1.008   -6.754691    2.280311   -2.833720
  11 H     1.0000    0     1.008   -4.799934    4.631127   -1.455390
  12 C     6.0000    0    12.011   -5.916381   -1.490766    0.659331
  13 H     1.0000    0     1.008   -3.835982    1.647180    2.128176
  14 H     1.0000    0     1.008   -7.642512   -1.057802    1.692603
  15 H     1.0000    0     1.008   -6.456514   -2.327753   -1.145316
  16 H     1.0000    0     1.008   -4.886300   -2.896394    1.754196
  17 C     6.0000    0    12.011   -1.611991    0.706157   -3.333597
  18 C     6.0000    0    12.011    0.942440    0.290831   -4.203188
  19 H     1.0000    0     1.008   -3.087219    1.380526   -4.591648
  20 C     6.0000    0    12.011    3.003228    0.884055   -2.684910
  21 C     6.0000    0    12.011    5.293724    0.118245   -3.874944
  22 S    16.0000    0    32.060    1.783881   -1.086023   -6.993739
  23 C     6.0000    0    12.011    4.923054   -0.954837   -6.180668
  24 H     1.0000    0     1.008    2.857078    2.567753   -1.197535
  25 H     1.0000    0     1.008    7.147691    0.448826   -3.086289
  26 H     1.0000    0     1.008    6.332181   -1.641943   -7.486334
  27 H     1.0000    0     1.008   -1.601871   -5.980545   -0.301587
  28 H     1.0000    0     1.008   -1.271350   -4.515061    4.614088
  29 H     1.0000    0     1.008    3.528649   -3.016552    5.455849
  30 O     8.0000    0    15.999    2.501478    4.640805    0.451362
  31 O     8.0000    0    15.999    1.020364    1.738697    3.125584
  32 C     6.0000    0    12.011    1.738379    3.997046    2.550030
  33 C     6.0000    0    12.011    1.643038    5.852862    4.697458
  34 H     1.0000    0     1.008    1.557335    7.778705    3.990358
  35 H     1.0000    0     1.008    3.363796    5.669246    5.820960
  36 H     1.0000    0     1.008    0.054661    5.489279    5.951235
  37 H     1.0000    0     1.008    6.141771   -3.583792    1.165466
  38 H     1.0000    0     1.008    2.959805   -5.403193   -2.414492
* core charge reduced due to ECP

--------------------------------
INTERNAL COORDINATES (ANGSTROEM)
--------------------------------
 Ir     0   0   0     0.000000000000     0.00000000     0.00000000
 C      1   0   0     2.157635078672     0.00000000     0.00000000
 C      2   1   0     1.442109190188    68.76770543     0.00000000
 C      1   2   3     2.164790430398    64.47417215    81.11980590
 C      2   1   3     1.406477867028    71.27748182   240.83124921
 C      4   1   2     1.406264290049    71.08944947   278.95536543
 N      1   2   3     2.101981507329   100.57180971   243.01367477
 C      7   1   2     1.471502551744   123.58338818    83.77614089
 C      8   7   1     1.520294955521   113.57806407   158.04205551
 H      9   8   7     1.089157487155   108.83294292   189.74440794
 H      9   8   7     1.091201771259   113.00909462    71.66937280
 H      9   8   7     1.090428910130   112.06131892   308.21375878
 C      8   7   1     1.523833798445   109.60133262   283.71247209
 H      8   7   1     1.091240672709   104.66175121    40.01383009
 H     13   8   7     1.088948807360   109.57989749   176.71147088
 H     13   8   7     1.090801073807   111.31087220   295.82213131
 H     13   8   7     1.089072289906   112.12252980    57.75118251
 C      7   1   2     1.277180203500   113.81107780   265.28565784
 C     18   7   1     1.445679994982   116.07450477   351.20933081
 H     18   7   1     1.086248101483   122.33442327   173.58523865
 C     19  18   7     1.390522846381   121.22050275   323.98044711
 C     21  19  18     1.424620856592   110.37446153   175.38236997
 S     19  18   7     1.705849983261   125.66317425   140.15462666
 C     22  21  19     1.359785089566   113.11495988     0.89076619
 H     21  19  18     1.191438972012   119.96847354   329.98537599
 H     22  21  19     1.080331171899   123.75997750   177.51136921
 H     24  22  21     1.079562190293   127.96819973   178.10830578
 H      2   1   3     1.080568184504   123.89720878   119.73233562
 H      3   2   1     1.080067537014   126.59555330   122.27375750
 H      6   4   1     1.080562815555   125.93492931   243.50724244
 O     25  21  19     1.428571430136   175.02353170     0.40324030
 O      1   2   3     2.034360058454   143.27363924   339.12855333
 C     31  25  21     1.229843923248   114.43517442    90.33329853
 C     33  31  25     1.502756202597   120.86212898   170.23763403
 H     34  33  31     1.086568193967   110.72817932    23.09256963
 H     34  33  31     1.091799164636   109.00297386   264.66077707
 H     34  33  31     1.087957263638   111.80755012   146.26351033
 H      4   1   2     1.079836048799   124.39415089   157.75111599
 H      5   2   1     1.080260442569   126.26539587   240.50204440

---------------------------
INTERNAL COORDINATES (A.U.)
---------------------------
 Ir     0   0   0     0.000000000000     0.00000000     0.00000000
 C      1   0   0     4.077339395631     0.00000000     0.00000000
 C      2   1   0     2.725191424667    68.76770543     0.00000000
 C      1   2   3     4.090861050786    64.47417215    81.11980590
 C      2   1   3     2.657857982105    71.27748182   240.83124921
 C      4   1   2     2.657454380106    71.08944947   278.95536543
 N      1   2   3     3.972169387419   100.57180971   243.01367477
 C      7   1   2     2.780736828162   123.58338818    83.77614089
 C      8   7   1     2.872941108716   113.57806407   158.04205551
 H      9   8   7     2.058209367433   108.83294292   189.74440794
 H      9   8   7     2.062072504529   113.00909462    71.66937280
 H      9   8   7     2.060612008656   112.06131892   308.21375878
 C      8   7   1     2.879628552673   109.60133262   283.71247209
 H      8   7   1     2.062146017615   104.66175121    40.01383009
 H     13   8   7     2.057815019771   109.57989749   176.71147088
 H     13   8   7     2.061315296083   111.31087220   295.82213131
 H     13   8   7     2.058048367964   112.12252980    57.75118251
 C      7   1   2     2.413520808282   113.81107780   265.28565784
 C     18   7   1     2.731939267805   116.07450477   351.20933081
 H     18   7   1     2.052711425295   122.33442327   173.58523865
 C     19  18   7     2.627707362621   121.22050275   323.98044711
 C     21  19  18     2.692143263631   110.37446153   175.38236997
 S     19  18   7     3.223589293918   125.66317425   140.15462666
 C     22  21  19     2.569621420269   113.11495988     0.89076619
 H     21  19  18     2.251493362384   119.96847354   329.98537599
 H     22  21  19     2.041530048827   123.75997750   177.51136921
 H     24  22  21     2.040076884190   127.96819973   178.10830578
 H      2   1   3     2.041977937740   123.89720878   119.73233562
 H      3   2   1     2.041031851096   126.59555330   122.27375750
 H      6   4   1     2.041967791897   125.93492931   243.50724244
 O     25  21  19     2.699608765701   175.02353170     0.40324030
 O      1   2   3     3.844383368266   143.27363924   339.12855333
 C     31  25  21     2.324068202406   114.43517442    90.33329853
 C     33  31  25     2.839797668959   120.86212898   170.23763403
 H     34  33  31     2.053316312428   110.72817932    23.09256963
 H     34  33  31     2.063201414407   109.00297386   264.66077707
 H     34  33  31     2.055941273685   111.80755012   146.26351033
 H      4   1   2     2.040594401766   124.39415089   157.75111599
 H      5   2   1     2.041396389764   126.26539587   240.50204440

---------------------
BASIS SET INFORMATION
---------------------
There are 6 groups of distinct atoms

 Group   1 Type Ir  : 7s6p5d1f contracted to 6s3p2d1f pattern {211111/411/41/1}
 Group   2 Type C   : 8s4p1d contracted to 4s2p1d pattern {5111/31/1}
 Group   3 Type N   : 8s4p1d contracted to 4s2p1d pattern {5111/31/1}
 Group   4 Type H   : 4s contracted to 2s pattern {31}
 Group   5 Type S   : 10s7p1d contracted to 4s3p1d pattern {5311/511/1}
 Group   6 Type O   : 8s4p1d contracted to 4s2p1d pattern {5111/31/1}

Atom   0Ir   basis set group =>   1
Atom   1C    basis set group =>   2
Atom   2C    basis set group =>   2
Atom   3C    basis set group =>   2
Atom   4C    basis set group =>   2
Atom   5C    basis set group =>   2
Atom   6N    basis set group =>   3
Atom   7C    basis set group =>   2
Atom   8C    basis set group =>   2
Atom   9H    basis set group =>   4
Atom  10H    basis set group =>   4
Atom  11H    basis set group =>   4
Atom  12C    basis set group =>   2
Atom  13H    basis set group =>   4
Atom  14H    basis set group =>   4
Atom  15H    basis set group =>   4
Atom  16H    basis set group =>   4
Atom  17C    basis set group =>   2
Atom  18C    basis set group =>   2
Atom  19H    basis set group =>   4
Atom  20C    basis set group =>   2
Atom  21C    basis set group =>   2
Atom  22S    basis set group =>   5
Atom  23C    basis set group =>   2
Atom  24H    basis set group =>   4
Atom  25H    basis set group =>   4
Atom  26H    basis set group =>   4
Atom  27H    basis set group =>   4
Atom  28H    basis set group =>   4
Atom  29H    basis set group =>   4
Atom  30O    basis set group =>   6
Atom  31O    basis set group =>   6
Atom  32C    basis set group =>   2
Atom  33C    basis set group =>   2
Atom  34H    basis set group =>   4
Atom  35H    basis set group =>   4
Atom  36H    basis set group =>   4
Atom  37H    basis set group =>   4
Atom  38H    basis set group =>   4
---------------------------------
AUXILIARY/J BASIS SET INFORMATION
---------------------------------
There are 6 groups of distinct atoms

 Group   1 Type Ir  : 11s5p5d3f3g contracted to 8s5p5d2f3g pattern {41111111/11111/11111/21/111}
 Group   2 Type C   : 12s5p4d2f1g contracted to 6s4p3d1f1g pattern {711111/2111/211/2/1}
 Group   3 Type N   : 12s5p4d2f1g contracted to 6s4p3d1f1g pattern {711111/2111/211/2/1}
 Group   4 Type H   : 5s2p1d contracted to 3s1p1d pattern {311/2/1}
 Group   5 Type S   : 14s5p5d2f1g contracted to 8s4p3d1f1g pattern {71111111/2111/311/2/1}
 Group   6 Type O   : 12s5p4d2f1g contracted to 6s4p3d1f1g pattern {711111/2111/211/2/1}

Atom   0Ir   basis set group =>   1
Atom   1C    basis set group =>   2
Atom   2C    basis set group =>   2
Atom   3C    basis set group =>   2
Atom   4C    basis set group =>   2
Atom   5C    basis set group =>   2
Atom   6N    basis set group =>   3
Atom   7C    basis set group =>   2
Atom   8C    basis set group =>   2
Atom   9H    basis set group =>   4
Atom  10H    basis set group =>   4
Atom  11H    basis set group =>   4
Atom  12C    basis set group =>   2
Atom  13H    basis set group =>   4
Atom  14H    basis set group =>   4
Atom  15H    basis set group =>   4
Atom  16H    basis set group =>   4
Atom  17C    basis set group =>   2
Atom  18C    basis set group =>   2
Atom  19H    basis set group =>   4
Atom  20C    basis set group =>   2
Atom  21C    basis set group =>   2
Atom  22S    basis set group =>   5
Atom  23C    basis set group =>   2
Atom  24H    basis set group =>   4
Atom  25H    basis set group =>   4
Atom  26H    basis set group =>   4
Atom  27H    basis set group =>   4
Atom  28H    basis set group =>   4
Atom  29H    basis set group =>   4
Atom  30O    basis set group =>   6
Atom  31O    basis set group =>   6
Atom  32C    basis set group =>   2
Atom  33C    basis set group =>   2
Atom  34H    basis set group =>   4
Atom  35H    basis set group =>   4
Atom  36H    basis set group =>   4
Atom  37H    basis set group =>   4
Atom  38H    basis set group =>   4
-------------------------
ECP PARAMETER INFORMATION
-------------------------

 Group 1, Type Ir ECP Def2-ECP (replacing 60 core electrons, lmax=3)

Atom   0Ir   ECP group =>   1

------------------------------------------------------------------------------
                           ORCA GTO INTEGRAL CALCULATION
                           -- RI-GTO INTEGRALS CHOSEN --
------------------------------------------------------------------------------
------------------------------------------------------------------------------
                   ___                                                        
                  /   \      - P O W E R E D   B Y -                         
                 /     \                                                     
                 |  |  |   _    _      __       _____    __    __             
                 |  |  |  | |  | |    /  \     |  _  \  |  |  /  |          
                  \  \/   | |  | |   /    \    | | | |  |  | /  /          
                 / \  \   | |__| |  /  /\  \   | |_| |  |  |/  /          
                |  |  |   |  __  | /  /__\  \  |    /   |      \           
                |  |  |   | |  | | |   __   |  |    \   |  |\   \          
                \     /   | |  | | |  |  |  |  | |\  \  |  | \   \       
                 \___/    |_|  |_| |__|  |__|  |_| \__\ |__|  \__/        
                                                                              
                      - O R C A' S   B I G   F R I E N D -                    
                                      &                                       
                       - I N T E G R A L  F E E D E R -                       
                                                                              
 v1 FN, 2020, v2 2021                                                         
------------------------------------------------------------------------------


Reading SHARK input file reaction4-IEIP_ts_guess_scan_4-6_orca.SHARKINP.tmp ... ok
----------------------
SHARK INTEGRAL PACKAGE
----------------------

Number of atoms                             ...     39
Number of basis functions                   ...    358
Number of shells                            ...    184
Maximum angular momentum                    ...      3
Integral batch strategy                     ... SHARK/LIBINT Hybrid
RI-J (if used) integral strategy            ... SPLIT-RIJ (Revised 2003 algorithm where possible)
Printlevel                                  ...      1
Contraction scheme used                     ... SEGMENTED contraction
Coulomb Range Separation                    ... NOT USED
Exchange Range Separation                   ... NOT USED
Finite Nucleus Model                        ... NOT USED
Auxiliary Coulomb fitting basis             ... AVAILABLE
   # of basis functions in Aux-J            ...   1231
   # of shells in Aux-J                     ...    405
   Maximum angular momentum in Aux-J        ...      4
Auxiliary J/K fitting basis                 ... NOT available
Auxiliary Correlation fitting basis         ... NOT available
Auxiliary 'external' fitting basis          ... NOT available
Integral threshold                          ...     2.500000e-11
Primitive cut-off                           ...     2.500000e-12
Primitive pair pre-selection threshold      ...     2.500000e-12

Calculating pre-screening integrals         ... done (  0.1 sec) Dimension = 184
Organizing shell pair data                  ... done (  0.3 sec)
Shell pair information
Total number of shell pairs                 ...     17020
Shell pairs after pre-screening             ...     12999
Total number of primitive shell pairs       ...     60705
Primitive shell pairs kept                  ...     29245
          la=0 lb=0:   4984 shell pairs
          la=1 lb=0:   4258 shell pairs
          la=1 lb=1:    857 shell pairs
          la=2 lb=0:   1755 shell pairs
          la=2 lb=1:    787 shell pairs
          la=2 lb=2:    181 shell pairs
          la=3 lb=0:    113 shell pairs
          la=3 lb=1:     42 shell pairs
          la=3 lb=2:     21 shell pairs
          la=3 lb=3:      1 shell pairs

Calculating one electron integrals          ... done (  0.1 sec)
Calculating ECP integrals                   ... done (  0.8 sec)
Calculating RI/J V-Matrix + Cholesky decomp.... done (  0.1 sec)
Calculating Nuclear repulsion               ... done (  0.0 sec) ENN=   2040.755910830375 Eh

SHARK setup successfully completed in   1.7 seconds

Maximum memory used throughout the entire GTOINT-calculation: 91.2 MB
-------------------------------------------------------------------------------
                                 ORCA SCF
-------------------------------------------------------------------------------

------------
SCF SETTINGS
------------
Hamiltonian:
 Density Functional     Method          .... DFT(GTOs)
 Exchange Functional    Exchange        .... PBE
   PBE kappa parameter   XKappa         ....  1.024500
   PBE mue parameter    XMuePBE         ....  0.123457
 Correlation Functional Correlation     .... PBE
   PBE beta parameter  CBetaPBE         ....  0.030000
 LDA part of GGA corr.  LDAOpt          .... PW91-LDA
 Gradients option       PostSCFGGA      .... off
 Hybrid DFT is turned on
   Fraction HF Exchange ScalHFX         ....  0.420000
   Scaling of DF-GGA-X  ScalDFX         ....  0.580000
   Scaling of DF-GGA-C  ScalDFC         ....  1.000000
   Scaling of DF-LDA-C  ScalLDAC        ....  1.000000
   Perturbative correction              ....  0.000000
   Density functional embedding theory  .... OFF
 RI-approximation to the Coulomb term is turned on
   Number of AuxJ basis functions       .... 1231
   RIJ-ON(X) (HFX calculated with O(N)) .... on
   Number of AuxJ basis functions       .... 1231
   RIJ-COSX (HFX calculated with COS-X)).... on


General Settings:
 Integral files         IntName         .... reaction4-IEIP_ts_guess_scan_4-6_orca
 Hartree-Fock type      HFTyp           .... RHF
 Total Charge           Charge          ....    1
 Multiplicity           Mult            ....    1
 Number of Electrons    NEL             ....  164
 Basis Dimension        Dim             ....  358
 Nuclear Repulsion      ENuc            ....   2040.7559108304 Eh

Convergence Acceleration:
 DIIS                   CNVDIIS         .... on
   Start iteration      DIISMaxIt       ....    12
   Startup error        DIISStart       ....  0.200000
   # of expansion vecs  DIISMaxEq       ....     5
   Bias factor          DIISBfac        ....   1.050
   Max. coefficient     DIISMaxC        ....  10.000
 Trust-Rad. Augm. Hess. CNVTRAH         .... auto
   Auto Start mean grad. ratio tolernc. ....  1.125000
   Auto Start start iteration           ....    20
   Auto Start num. interpolation iter.  ....    10
   Max. Number of Micro iterations      ....    16
   Max. Number of Macro iterations      .... Maxiter - #DIIS iter
   Number of Davidson start vectors     ....     2
   Converg. threshold I  (grad. norm)   ....   1.000e-05
   Converg. threshold II (energy diff.) ....   1.000e-08
   Grad. Scal. Fac. for Micro threshold ....   0.100
   Minimum threshold for Micro iter.    ....   0.010
   NR start threshold (gradient norm)   ....   0.001
   Initial trust radius                 ....   0.400
   Minimum AH scaling param. (alpha)    ....   1.000
   Maximum AH scaling param. (alpha)    .... 1000.000
   Orbital update algorithm             .... Taylor
   White noise on init. David. guess    .... on
   Maximum white noise                  ....   0.010
   Quad. conv. algorithm                .... NR
   COSX micro iterations for RIJONX calc.... off
 SOSCF                  CNVSOSCF        .... off
 Level Shifting         CNVShift        .... on
   Level shift para.    LevelShift      ....    0.2500
   Turn off err/grad.   ShiftErr        ....    0.0010
 Zerner damping         CNVZerner       .... off
 Static damping         CNVDamp         .... on
   Fraction old density DampFac         ....    0.7000
   Max. Damping (<1)    DampMax         ....    0.9800
   Min. Damping (>=0)   DampMin         ....    0.0000
   Turn off err/grad.   DampErr         ....    0.1000
 Fernandez-Rico         CNVRico         .... off

SCF Procedure:
 Maximum # iterations   MaxIter         ....   250
 SCF integral mode      SCFMode         .... Direct
   Integral package                     .... SHARK and LIBINT hybrid scheme
 Reset frequency        DirectResetFreq ....    20
 Integral Threshold     Thresh          ....  2.500e-11 Eh
 Primitive CutOff       TCut            ....  2.500e-12 Eh

Convergence Tolerance:
 Convergence Check Mode ConvCheckMode   .... Total+1el-Energy
 Convergence forced     ConvForced      .... 0
 Energy Change          TolE            ....  1.000e-08 Eh
 1-El. energy change                    ....  1.000e-05 Eh
 DIIS Error             TolErr          ....  5.000e-07


Diagonalization of the overlap matrix:
Smallest eigenvalue                        ... 1.141e-03
Time for diagonalization                   ...    0.017 sec
Threshold for overlap eigenvalues          ... 1.000e-08
Number of eigenvalues below threshold      ... 0
Time for construction of square roots      ...    0.007 sec
Total time needed                          ...    0.025 sec

--------------------
INITIAL GUESS: HCORE
--------------------
                      -----------------
                      INTIAL GUESS DONE 
                      -----------------
-------------------
DFT GRID GENERATION
-------------------

General Integration Accuracy     IntAcc      ... 4.159
Radial Grid Type                 RadialGrid  ... OptM3 with GC (2021)
Angular Grid (max. ang.)         AngularGrid ... 3 (Lebedev-194)
Angular grid pruning method      GridPruning ... 4 (adaptive)
Weight generation scheme         WeightScheme... Becke
Basis function cutoff            BFCut       ... 1.0000e-11
Integration weight cutoff        WCut        ... 1.0000e-14
Angular grids for H and He will be reduced by one unit
Partially contracted basis set               ... off
Rotationally invariant grid construction     ... off

Total number of grid points                  ...    93293
Total number of batches                      ...     1479
Average number of points per batch           ...       63
Average number of grid points per atom       ...     2392
Time for grid setup =    1.672 sec

--------------------
COSX GRID GENERATION
--------------------

GRIDX 1
-------
General Integration Accuracy     IntAcc      ... 3.816
Radial Grid Type                 RadialGrid  ... OptM3 with GC (2021)
Angular Grid (max. ang.)         AngularGrid ... 1 (Lebedev-50)
Angular grid pruning method      GridPruning ... 4 (adaptive)
Weight generation scheme         WeightScheme... Becke
Basis function cutoff            BFCut       ... 1.0000e-11
Integration weight cutoff        WCut        ... 1.0000e-14
Angular grids for H and He will be reduced by one unit
Partially contracted basis set               ... on
Rotationally invariant grid construction     ... off

Total number of grid points                  ...    23167
Total number of batches                      ...      380
Average number of points per batch           ...       60
Average number of grid points per atom       ...      594
UseSFitting                                  ... on

GRIDX 2
-------
General Integration Accuracy     IntAcc      ... 4.020
Radial Grid Type                 RadialGrid  ... OptM3 with GC (2021)
Angular Grid (max. ang.)         AngularGrid ... 2 (Lebedev-110)
Angular grid pruning method      GridPruning ... 4 (adaptive)
Weight generation scheme         WeightScheme... Becke
Basis function cutoff            BFCut       ... 1.0000e-11
Integration weight cutoff        WCut        ... 1.0000e-14
Angular grids for H and He will be reduced by one unit
Partially contracted basis set               ... on
Rotationally invariant grid construction     ... off

Total number of grid points                  ...    50284
Total number of batches                      ...      805
Average number of points per batch           ...       62
Average number of grid points per atom       ...     1289
UseSFitting                                  ... on

GRIDX 3
-------
General Integration Accuracy     IntAcc      ... 4.338
Radial Grid Type                 RadialGrid  ... OptM3 with GC (2021)
Angular Grid (max. ang.)         AngularGrid ... 3 (Lebedev-194)
Angular grid pruning method      GridPruning ... 4 (adaptive)
Weight generation scheme         WeightScheme... Becke
Basis function cutoff            BFCut       ... 1.0000e-11
Integration weight cutoff        WCut        ... 1.0000e-14
Angular grids for H and He will be reduced by one unit
Partially contracted basis set               ... on
Rotationally invariant grid construction     ... off

Total number of grid points                  ...   108758
Total number of batches                      ...     1721
Average number of points per batch           ...       63
Average number of grid points per atom       ...     2789
UseSFitting                                  ... on

Time for X-Grid setup             =    4.240 sec

--------------
SCF ITERATIONS
--------------
ITER       Energy         Delta-E        Max-DP      RMS-DP      [F,P]     Damp
               ***  Starting incremental Fock matrix formation  ***
  0   -860.0449951611   0.00000000000019.96366397  0.14881378  2.8805457 0.7000
  1  -1096.9631257260-236.918130564917 8.87757156  0.11775482  1.4769667 0.7000
  2  -1166.1169750445 -69.153849318529 5.49000452  0.06298903  1.0597856 0.7000
  3  -1192.2641579056 -26.147182861073 3.81082048  0.04435841  0.7717013 0.7000
  4  -1209.6195950221 -17.355437116494 2.68898512  0.03589878  0.4583347 0.7000
  5  -1224.4360756175 -14.816480595412 2.44115008  0.03068944  0.3678217 0.7000
  6  -1233.6946072312  -9.258531613733 1.76442668  0.02786413  0.3428996 0.7000
  7  -1241.6507331217  -7.956125890493 1.93839816  0.02519054  0.3316840 0.7000
  8  -1246.2991130359  -4.648379914136 1.75049807  0.02511411  0.3857753 0.7000
  9  -1250.2858064610  -3.986693425169 1.64373455  0.02363638  0.3582889 0.7000
 10  -1252.5319164890  -2.246110027909 1.73687760  0.02427595  0.4094978 0.7000
 11  -1254.5830448015  -2.051128312544 1.51372443  0.02354153  0.3688459 0.7000
                               ***Turning on DIIS***
 12  -1255.6304184570  -1.047373655551 1.70123298  0.02410898  0.4219264 0.7000
 13  -1256.7180725716  -1.087654114543 1.48491042  0.02038964  0.3736459 0.7000
 14  -1267.5674617160 -10.849389144395 1.03386156  0.01442589  0.2546012 0.7000
 15  -1273.8900285220  -6.322566806018 2.42393105  0.03424945  0.0997289 0.0000
 16  -1285.7790258614 -11.888997339372 0.03436806  0.00055512  0.3534510 0.7000
 17  -1285.8935271453  -0.114501283913 0.03749146  0.00088524  0.3437947 0.7000
 18  -1286.2435594700  -0.350032324678 0.04439050  0.00108963  0.3104101 0.7000
 19  -1286.6604792578  -0.416919787867 0.08037638  0.00133520  0.2700447 0.7000
               *** Restarting incremental Fock matrix formation ***
                                   *** Resetting DIIS ***

 WARNING: the maximum gradient error descreased on average only by a factor   1.0
          during the last 20 iterations

                      *** Initiating the TRAH-SCF procedure ***


TRAH GRIDX
----------

General Integration Accuracy     IntAcc      ... 3.067
Radial Grid Type                 RadialGrid  ... OptM3 with GC (2021)
Angular Grid (max. ang.)         AngularGrid ... 1 (Lebedev-50)
Angular grid pruning method      GridPruning ... 4 (adaptive)
Weight generation scheme         WeightScheme... Becke
Basis function cutoff            BFCut       ... 1.0000e-11
Integration weight cutoff        WCut        ... 1.0000e-14
Angular grids for H and He will be reduced by one unit
Partially contracted basis set               ... on
Rotationally invariant grid construction     ... off

Total number of grid points                  ...    12505
Total number of batches                      ...      219
Average number of points per batch           ...       57
Average number of grid points per atom       ...      321


TRAH GRID
---------

General Integration Accuracy     IntAcc      ... 3.467
Radial Grid Type                 RadialGrid  ... OptM3 with GC (2021)
Angular Grid (max. ang.)         AngularGrid ... 1 (Lebedev-50)
Angular grid pruning method      GridPruning ... 4 (adaptive)
Weight generation scheme         WeightScheme... Becke
Basis function cutoff            BFCut       ... 1.0000e-11
Integration weight cutoff        WCut        ... 1.0000e-14
Angular grids for H and He will be reduced by one unit
Partially contracted basis set               ... off
Rotationally invariant grid construction     ... off

Total number of grid points                  ...    29172
Total number of batches                      ...      474
Average number of points per batch           ...       61
Average number of grid points per atom       ...      748

 --------------------------------------------------------------------------------------------
   Iter.        energy            ||Error||_2        Shift      TRadius  Mac/Mic        Rej.
 --------------------------------------------------------------------------------------------
WARNING: 2 diagonal Hessian elements are negative!
    0      -1287.994878439099     1.994304e+00                     0.400 (TRAH MAcro)   No
WARNING : negative HOMO - LUMO gap : -0.059331
    0     dE    -2.233268e-01     2.476309e+00    -4.2699e-01      0.215 (TRAH MIcro)
    0     dE    -3.926252e-01     8.247555e-01    -1.1453e+00      0.400 (TRAH MIcro)
    0     dE    -4.106934e-01     2.379898e-01    -1.4265e+00      0.400 (TRAH MIcro)
    0     dE    -4.134382e-01     6.491323e-02    -1.4645e+00      0.400 (TRAH MIcro)
    0     dE    -4.136394e-01     1.801011e-02    -1.4621e+00      0.400 (TRAH MIcro)
    0     dE    -4.136532e-01     4.253890e-03    -1.4564e+00      0.400 (TRAH MIcro)
    1      -1288.376732308929     4.459484e-01                     0.480 (TRAH MAcro)   No
    1     dE    -3.490854e-02     7.301891e-01    -6.8220e-02      0.153 (TRAH MIcro)
    1     dE    -5.900750e-02     2.837936e-01    -1.0954e-01      0.278 (TRAH MIcro)
    1     dE    -6.271490e-02     8.768081e-02    -1.1504e-01      0.300 (TRAH MIcro)
    1     dE    -6.346056e-02     5.385259e-02    -1.1596e-01      0.307 (TRAH MIcro)
    1     dE    -6.361646e-02     3.269597e-02    -1.1612e-01      0.309 (TRAH MIcro)
    1     dE    -6.369171e-02     9.029107e-03    -1.1617e-01      0.311 (TRAH MIcro)
    2      -1288.442225460315     1.366298e-01                     0.576 (TRAH MAcro)   No
    2     dE    -1.054526e-03     4.717980e-01    -2.1086e-03      0.015 (TRAH MIcro)
    2     dE    -2.831732e-03     7.174919e-02    -5.6441e-03      0.059 (TRAH MIcro)
    2     dE    -2.996048e-03     7.352155e-02    -5.9668e-03      0.065 (TRAH MIcro)
    2     dE    -3.033451e-03     2.077928e-02    -6.0391e-03      0.068 (TRAH MIcro)
    2     dE    -3.040851e-03     5.230737e-03    -6.0531e-03      0.069 (TRAH MIcro)
    3      -1288.445436356393     1.325614e-02                     0.691 (TRAH MAcro)   No
    3     dE    -9.236175e-07     4.680538e-02    -1.8472e-06      0.000 (TRAH MIcro)
    3     dE    -2.621709e-05     1.707086e-02    -5.2433e-05      0.005 (TRAH MIcro)
    3     dE    -3.442771e-05     4.762160e-03    -6.8851e-05      0.008 (TRAH MIcro)
    3     dE    -3.572306e-05     1.755716e-03    -7.1440e-05      0.009 (TRAH MIcro)
    3     dE    -3.593953e-05     7.816823e-04    -7.1873e-05      0.009 (TRAH MIcro)
    4      -1288.445472669196     8.294881e-04                           (NR   MAcro)
    4     dE    -5.207581e-08     4.036629e-04                           (NR   MIcro)
    4     dE    -7.690025e-08     3.270797e-04                           (NR   MIcro)
    4     dE    -8.671023e-08     1.629005e-04                           (NR   MIcro)
    4     dE    -8.781572e-08     6.971256e-05                           (NR   MIcro)
    4     dE    -8.814485e-08     2.458119e-05                           (NR   MIcro)
    4     dE    -8.818318e-08     1.222689e-05                           (NR   MIcro)
    4     dE    -8.818979e-08     4.116015e-06                           (NR   MIcro)
    5      -1288.445472751354     4.470309e-06                           (NR   MAcro)
    5     dE    -1.185718e-12     1.835877e-06                           (NR   MIcro)
    5     dE    -1.543998e-12     9.484763e-07                           (NR   MIcro)
    6      -1288.445472751398     9.483569e-07                           (NR   MAcro)

               *****************************************************
               *                     SUCCESS                       *
               *           SCF CONVERGED AFTER  58 CYCLES          *
               *****************************************************

Old exchange energy                            =    -59.660108813 Eh
New exchange energy                            =    -59.660054810 Eh
Exchange energy change after final integration =      0.000054003 Eh
Total energy after final integration           =  -1288.445418749 Eh
Final COS-X integration done in                =    56.757 sec

----------------
TOTAL SCF ENERGY
----------------

Total Energy       :        -1288.44541875 Eh          -35060.38228 eV

Components:
Nuclear Repulsion  :         2040.75591083 Eh           55531.79152 eV
Electronic Energy  :        -3329.20132958 Eh          -90592.17379 eV
One Electron Energy:        -5836.95419383 Eh         -158831.59846 eV
Two Electron Energy:         2507.75286425 Eh           68239.42466 eV
Max COSX asymmetry :            0.00001952 Eh               0.00053 eV

Virial components:
Potential Energy   :        -2501.57487699 Eh          -68071.31308 eV
Kinetic Energy     :         1213.12945824 Eh           33010.93080 eV
Virial Ratio       :            2.06208403


DFT components:
N(Alpha)           :       82.000573104835 electrons
N(Beta)            :       82.000573104835 electrons
N(Total)           :      164.001146209669 electrons
E(X)               :      -79.594675987963 Eh       
E(C)               :       -7.455490892803 Eh       
E(XC)              :      -87.050166880766 Eh       
DFET-embed. en.    :        0.000000000000 Eh       

---------------
SCF CONVERGENCE
---------------

  Last Energy change         ...   -4.4338e-11  Tolerance :   1.0000e-08
  Last Orbital Gradient      ...    9.4836e-07  Tolerance :   1.0000e-05
  Last Orbital Rotation      ...    1.2151e-06

             **** THE GBW FILE WAS UPDATED (reaction4-IEIP_ts_guess_scan_4-6_orca.gbw) ****
             **** DENSITY reaction4-IEIP_ts_guess_scan_4-6_orca.scfp WAS UPDATED ****
             **** ENERGY FILE WAS UPDATED (reaction4-IEIP_ts_guess_scan_4-6_orca.en.tmp) ****
             **** THE GBW FILE WAS UPDATED (reaction4-IEIP_ts_guess_scan_4-6_orca.gbw) ****
             **** DENSITY reaction4-IEIP_ts_guess_scan_4-6_orca.scfp WAS UPDATED ****
----------------
ORBITAL ENERGIES
----------------

  NO   OCC          E(Eh)            E(eV) 
   0   2.0000     -89.762865     -2442.5717 
   1   2.0000     -19.623685      -533.9876 
   2   2.0000     -19.589500      -533.0574 
   3   2.0000     -14.841015      -403.8446 
   4   2.0000     -10.681327      -290.6537 
   5   2.0000     -10.662044      -290.1290 
   6   2.0000     -10.636897      -289.4447 
   7   2.0000     -10.633421      -289.3501 
   8   2.0000     -10.632882      -289.3354 
   9   2.0000     -10.631842      -289.3071 
  10   2.0000     -10.630989      -289.2839 
  11   2.0000     -10.630335      -289.2661 
  12   2.0000     -10.616235      -288.8824 
  13   2.0000     -10.610350      -288.7223 
  14   2.0000     -10.584988      -288.0322 
  15   2.0000     -10.582153      -287.9550 
  16   2.0000     -10.557096      -287.2732 
  17   2.0000     -10.552171      -287.1392 
  18   2.0000     -10.533114      -286.6206 
  19   2.0000      -8.402177      -228.6349 
  20   2.0000      -6.292228      -171.2202 
  21   2.0000      -6.288585      -171.1211 
  22   2.0000      -6.286947      -171.0765 
  23   2.0000      -4.029604      -109.6511 
  24   2.0000      -2.348662       -63.9103 
  25   2.0000      -2.314673       -62.9855 
  26   2.0000      -2.313108       -62.9429 
  27   2.0000      -1.306430       -35.5498 
  28   2.0000      -1.214588       -33.0506 
  29   2.0000      -1.209414       -32.9098 
  30   2.0000      -1.172932       -31.9171 
  31   2.0000      -1.127141       -30.6711 
  32   2.0000      -1.027698       -27.9651 
  33   2.0000      -0.987751       -26.8781 
  34   2.0000      -0.977914       -26.6104 
  35   2.0000      -0.966211       -26.2919 
  36   2.0000      -0.960560       -26.1382 
  37   2.0000      -0.927224       -25.2310 
  38   2.0000      -0.903448       -24.5841 
  39   2.0000      -0.874280       -23.7904 
  40   2.0000      -0.798597       -21.7309 
  41   2.0000      -0.788934       -21.4680 
  42   2.0000      -0.787481       -21.4285 
  43   2.0000      -0.781786       -21.2735 
  44   2.0000      -0.772529       -21.0216 
  45   2.0000      -0.757166       -20.6035 
  46   2.0000      -0.744731       -20.2652 
  47   2.0000      -0.724079       -19.7032 
  48   2.0000      -0.694223       -18.8908 
  49   2.0000      -0.674479       -18.3535 
  50   2.0000      -0.665784       -18.1169 
  51   2.0000      -0.651599       -17.7309 
  52   2.0000      -0.648542       -17.6477 
  53   2.0000      -0.640291       -17.4232 
  54   2.0000      -0.637052       -17.3351 
  55   2.0000      -0.630010       -17.1435 
  56   2.0000      -0.623525       -16.9670 
  57   2.0000      -0.612330       -16.6623 
  58   2.0000      -0.608585       -16.5605 
  59   2.0000      -0.607652       -16.5351 
  60   2.0000      -0.597908       -16.2699 
  61   2.0000      -0.589141       -16.0313 
  62   2.0000      -0.578550       -15.7431 
  63   2.0000      -0.572291       -15.5728 
  64   2.0000      -0.564151       -15.3513 
  65   2.0000      -0.555552       -15.1173 
  66   2.0000      -0.552805       -15.0426 
  67   2.0000      -0.548662       -14.9299 
  68   2.0000      -0.539675       -14.6853 
  69   2.0000      -0.536177       -14.5901 
  70   2.0000      -0.528426       -14.3792 
  71   2.0000      -0.520923       -14.1750 
  72   2.0000      -0.516287       -14.0489 
  73   2.0000      -0.505870       -13.7654 
  74   2.0000      -0.489701       -13.3254 
  75   2.0000      -0.481610       -13.1053 
  76   2.0000      -0.467480       -12.7208 
  77   2.0000      -0.449988       -12.2448 
  78   2.0000      -0.442077       -12.0295 
  79   2.0000      -0.423641       -11.5278 
[...]

----------------------
LOEWDIN ATOMIC CHARGES
----------------------
   0 Ir:   -0.224501
   1 C :   -0.039841
   2 C :   -0.065511
   3 C :   -0.054009
   4 C :   -0.055998
   5 C :   -0.023755
   6 N :   -0.005772
   7 C :   -0.069002
   8 C :   -0.364339
   9 H :    0.157295
  10 H :    0.133532
  11 H :    0.146737
  12 C :   -0.343540
  13 H :    0.156580
  14 H :    0.152936
  15 H :    0.137225
  16 H :    0.133809
  17 C :    0.034833
  18 C :   -0.184261
  19 H :    0.162592
  20 C :   -0.196093
  21 C :   -0.136789
  22 S :    0.470969
  23 C :   -0.262824
  24 H :    0.296056
  25 H :    0.162186
  26 H :    0.168014
  27 H :    0.185098
  28 H :    0.185555
  29 H :    0.193215
  30 O :   -0.276126
  31 O :   -0.206076
  32 C :    0.154886
  33 C :   -0.375839
  34 H :    0.159753
  35 H :    0.167122
  36 H :    0.153253
  37 H :    0.186681
  38 H :    0.185948

-------------------------------
LOEWDIN REDUCED ORBITAL CHARGES
-------------------------------
  0 Irs       :     2.451169  s :     2.451169
      pz      :     2.240973  p :     6.749108
      px      :     2.239514
      py      :     2.268621
      dz2     :     1.842956  d :     7.934835
      dxz     :     1.733659
      dyz     :     1.276680
      dx2y2   :     1.635753
      dxy     :     1.445787
      f0      :     0.011447  f :     0.089390
      f+1     :     0.003278
      f-1     :     0.013137
      f+2     :     0.017194
      f-2     :     0.016428
      f+3     :     0.011141
      f-3     :     0.016764
  1 C s       :     2.875581  s :     2.875581
      pz      :     1.047904  p :     3.059811
      px      :     1.087654
      py      :     0.924253
      dz2     :     0.026427  d :     0.104449
      dxz     :     0.027110
      dyz     :     0.017543
      dx2y2   :     0.018470
      dxy     :     0.014899
  2 C s       :     2.874596  s :     2.874596
      pz      :     1.046102  p :     3.088922
      px      :     1.075606
      py      :     0.967214
      dz2     :     0.025591  d :     0.101992
      dxz     :     0.027638
      dyz     :     0.017509
      dx2y2   :     0.018151
      dxy     :     0.013103
  3 C s       :     2.874682  s :     2.874682
      pz      :     1.035849  p :     3.077439
      px      :     1.077442
      py      :     0.964148
      dz2     :     0.024089  d :     0.101888
      dxz     :     0.032101
      dyz     :     0.016055
      dx2y2   :     0.015261
      dxy     :     0.014382
  4 C s       :     2.874016  s :     2.874016
      pz      :     1.092599  p :     3.079868
      px      :     1.035985
      py      :     0.951284
      dz2     :     0.022452  d :     0.102113
      dxz     :     0.031612
      dyz     :     0.012941
      dx2y2   :     0.017676
      dxy     :     0.017432
  5 C s       :     2.877396  s :     2.877396
      pz      :     1.062698  p :     3.042028
      px      :     1.033734
      py      :     0.945596
      dz2     :     0.025028  d :     0.104332
      dxz     :     0.030167
      dyz     :     0.015742
      dx2y2   :     0.015555
      dxy     :     0.017839
  6 N s       :     3.123048  s :     3.123048
      pz      :     1.267359  p :     3.784305
      px      :     1.291360
      py      :     1.225587
      dz2     :     0.030232  d :     0.098418
      dxz     :     0.027641
      dyz     :     0.019029
      dx2y2   :     0.011502
      dxy     :     0.010015
  7 C s       :     2.862271  s :     2.862271
      pz      :     1.061610  p :     3.072396
      px      :     0.936707
      py      :     1.074079
      dz2     :     0.023716  d :     0.134335
      dxz     :     0.028908
      dyz     :     0.019608
      dx2y2   :     0.029188
      dxy     :     0.032914
  8 C s       :     2.953240  s :     2.953240
      pz      :     1.130348  p :     3.343654
      px      :     1.123737
      py      :     1.089569
      dz2     :     0.011699  d :     0.067446
      dxz     :     0.017958
      dyz     :     0.010562
      dx2y2   :     0.008827
      dxy     :     0.018400
  9 H s       :     0.842705  s :     0.842705
 10 H s       :     0.866468  s :     0.866468
 11 H s       :     0.853263  s :     0.853263
 12 C s       :     2.953040  s :     2.953040
      pz      :     1.139849  p :     3.322580
      px      :     1.111719
      py      :     1.071012
      dz2     :     0.009916  d :     0.067921
      dxz     :     0.013523
      dyz     :     0.015811
      dx2y2   :     0.010971
      dxy     :     0.017699
 13 H s       :     0.843420  s :     0.843420
 14 H s       :     0.847064  s :     0.847064
 15 H s       :     0.862775  s :     0.862775
 16 H s       :     0.866191  s :     0.866191
 17 C s       :     2.878269  s :     2.878269
      pz      :     1.021799  p :     2.946335
      px      :     1.062617
      py      :     0.861919
      dz2     :     0.040646  d :     0.140563
      dxz     :     0.051164
      dyz     :     0.024577
      dx2y2   :     0.011766
      dxy     :     0.012410
 18 C s       :     2.896198  s :     2.896198
      pz      :     1.041572  p :     3.176070
      px      :     1.089303
      py      :     1.045195
      dz2     :     0.031007  d :     0.111993
      dxz     :     0.030054
      dyz     :     0.017018
      dx2y2   :     0.020580
      dxy     :     0.013334
 19 H s       :     0.837408  s :     0.837408
 20 C s       :     2.916924  s :     2.916924
      pz      :     1.101552  p :     3.189713
      px      :     1.047133
      py      :     1.041029
      dz2     :     0.010603  d :     0.089455
      dxz     :     0.033480
      dyz     :     0.009392
      dx2y2   :     0.017415
      dxy     :     0.018566
 21 C s       :     2.898218  s :     2.898218
      pz      :     1.067146  p :     3.144330
      px      :     1.089675
      py      :     0.987509
      dz2     :     0.024884  d :     0.094241
      dxz     :     0.028302
      dyz     :     0.014376
      dx2y2   :     0.016564
      dxy     :     0.010115
 22 S s       :     5.504099  s :     5.504099
      pz      :     3.288670  p :     9.871945
      px      :     3.082585
      py      :     3.500691
      dz2     :     0.039556  d :     0.152987
      dxz     :     0.032428
      dyz     :     0.023406
      dx2y2   :     0.032924
      dxy     :     0.024673
 23 C s       :     2.964887  s :     2.964887
      pz      :     1.115676  p :     3.212154
      px      :     1.021550
      py      :     1.074928
      dz2     :     0.020813  d :     0.085783
      dxz     :     0.027573
      dyz     :     0.012528
      dx2y2   :     0.013768
      dxy     :     0.011102
 24 H s       :     0.703944  s :     0.703944
 25 H s       :     0.837814  s :     0.837814
 26 H s       :     0.831986  s :     0.831986
 27 H s       :     0.814902  s :     0.814902
 28 H s       :     0.814445  s :     0.814445
 29 H s       :     0.806785  s :     0.806785
 30 O s       :     3.506925  s :     3.506925
      pz      :     1.462633  p :     4.714590
      px      :     1.528904
      py      :     1.723053
      dz2     :     0.017803  d :     0.054611
      dxz     :     0.012958
      dyz     :     0.016381
      dx2y2   :     0.004053
      dxy     :     0.003417
 31 O s       :     3.445721  s :     3.445721
      pz      :     1.695923  p :     4.701299
      px      :     1.626914
      py      :     1.378463
      dz2     :     0.009369  d :     0.059056
      dxz     :     0.003517
      dyz     :     0.016243
      dx2y2   :     0.015610
      dxy     :     0.014318
 32 C s       :     2.813660  s :     2.813660
      pz      :     1.004369  p :     2.708992
      px      :     0.754029
      py      :     0.950594
      dz2     :     0.076435  d :     0.322462
      dxz     :     0.044928
      dyz     :     0.107933
      dx2y2   :     0.045166
      dxy     :     0.048001
 33 C s       :     2.959734  s :     2.959734
      pz      :     1.096107  p :     3.353412
      px      :     1.149684
      py      :     1.107621
      dz2     :     0.005854  d :     0.062693
      dxz     :     0.017247
      dyz     :     0.019180
      dx2y2   :     0.018142
      dxy     :     0.002269
 34 H s       :     0.840247  s :     0.840247
 35 H s       :     0.832878  s :     0.832878
 36 H s       :     0.846747  s :     0.846747
 37 H s       :     0.813319  s :     0.813319
 38 H s       :     0.814052  s :     0.814052


                      *****************************
                      * MAYER POPULATION ANALYSIS *
                      *****************************

  NA   - Mulliken gross atomic population
  ZA   - Total nuclear charge
  QA   - Mulliken gross atomic charge
  VA   - Mayer's total valence
  BVA  - Mayer's bonded valence
  FA   - Mayer's free valence

  ATOM       NA         ZA         QA         VA         BVA        FA
  0 Ir    16.3861    17.0000     0.6139     3.7469     3.7469     0.0000
  1 C      6.2103     6.0000    -0.2103     3.6997     3.6997     0.0000
  2 C      6.2893     6.0000    -0.2893     3.7423     3.7423     0.0000
  3 C      6.2360     6.0000    -0.2360     3.7326     3.7326    -0.0000
  4 C      6.2457     6.0000    -0.2457     3.7232     3.7232    -0.0000
  5 C      6.1657     6.0000    -0.1657     3.6931     3.6931    -0.0000
  6 N      7.4281     7.0000    -0.4281     3.2165     3.2165    -0.0000
  7 C      6.1207     6.0000    -0.1207     3.6991     3.6991    -0.0000
  8 C      6.6920     6.0000    -0.6920     3.6866     3.6866    -0.0000
  9 H      0.7279     1.0000     0.2721     0.8966     0.8966    -0.0000
 10 H      0.7746     1.0000     0.2254     0.9098     0.9098    -0.0000
 11 H      0.7396     1.0000     0.2604     0.8976     0.8976    -0.0000
 12 C      6.6378     6.0000    -0.6378     3.6731     3.6731    -0.0000
 13 H      0.7182     1.0000     0.2818     0.8750     0.8750    -0.0000
 14 H      0.7359     1.0000     0.2641     0.8967     0.8967    -0.0000
 15 H      0.7691     1.0000     0.2309     0.9095     0.9095    -0.0000
 16 H      0.7677     1.0000     0.2323     0.9057     0.9057    -0.0000
 17 C      5.9299     6.0000     0.0701     3.6368     3.6368     0.0000
 18 C      6.1870     6.0000    -0.1870     3.7117     3.7117    -0.0000
 19 H      0.7090     1.0000     0.2910     0.8859     0.8859    -0.0000
 20 C      6.4538     6.0000    -0.4538     3.4579     3.4579    -0.0000
 21 C      6.1313     6.0000    -0.1313     3.7503     3.7503    -0.0000
 22 S     15.6934    16.0000     0.3066     2.5759     2.5759     0.0000
 23 C      6.4307     6.0000    -0.4307     3.7453     3.7453     0.0000
 24 H      0.5001     1.0000     0.4999     0.7352     0.7352    -0.0000
 25 H      0.7339     1.0000     0.2661     0.9031     0.9031     0.0000
 26 H      0.7026     1.0000     0.2974     0.8974     0.8974     0.0000
 27 H      0.7087     1.0000     0.2913     0.9019     0.9019    -0.0000
 28 H      0.7079     1.0000     0.2921     0.9052     0.9052     0.0000
 29 H      0.6942     1.0000     0.3058     0.8921     0.8921     0.0000
 30 O      8.4823     8.0000    -0.4823     2.1191     2.1191     0.0000
 31 O      8.5386     8.0000    -0.5386     2.0764     2.0764     0.0000
 32 C      5.3830     6.0000     0.6170     3.9176     3.9176     0.0000
 33 C      6.7453     6.0000    -0.7453     3.6682     3.6682    -0.0000
 34 H      0.7305     1.0000     0.2695     0.8953     0.8953    -0.0000
 35 H      0.7337     1.0000     0.2663     0.8954     0.8954    -0.0000
 36 H      0.7468     1.0000     0.2532     0.9010     0.9010    -0.0000
 37 H      0.7072     1.0000     0.2928     0.9020     0.9020     0.0000
 38 H      0.7055     1.0000     0.2945     0.9030     0.9030    -0.0000

  Mayer bond orders larger than 0.100000
B(  0-Ir,  1-C ) :   0.4196 B(  0-Ir,  2-C ) :   0.5265 B(  0-Ir,  3-C ) :   0.4610 
B(  0-Ir,  4-C ) :   0.4512 B(  0-Ir,  5-C ) :   0.4021 B(  0-Ir,  6-N ) :   0.4641 
B(  0-Ir, 20-C ) :   0.2667 B(  0-Ir, 31-O ) :   0.5776 B(  1-C ,  2-C ) :   1.1193 
B(  1-C ,  4-C ) :   1.2439 B(  1-C , 27-H ) :   0.9033 B(  2-C ,  5-C ) :   1.1369 
B(  2-C , 28-H ) :   0.9076 B(  3-C ,  4-C ) :   1.1068 B(  3-C ,  5-C ) :   1.2314 
B(  3-C , 37-H ) :   0.9049 B(  4-C , 38-H ) :   0.8997 B(  5-C , 29-H ) :   0.8981 
B(  6-N ,  7-C ) :   0.8917 B(  6-N , 17-C ) :   1.6868 B(  7-C ,  8-C ) :   0.9919 
B(  7-C , 12-C ) :   0.9687 B(  7-C , 13-H ) :   0.8723 B(  8-C ,  9-H ) :   0.9036 
B(  8-C , 10-H ) :   0.9126 B(  8-C , 11-H ) :   0.9084 B( 12-C , 14-H ) :   0.9065 
B( 12-C , 15-H ) :   0.9155 B( 12-C , 16-H ) :   0.9116 B( 17-C , 18-C ) :   1.0612 
B( 17-C , 19-H ) :   0.8743 B( 18-C , 20-C ) :   1.2887 B( 18-C , 22-S ) :   1.2295 
B( 20-C , 21-C ) :   1.2657 B( 20-C , 24-H ) :   0.4624 B( 21-C , 23-C ) :   1.5479 
B( 21-C , 25-H ) :   0.9044 B( 22-S , 23-C ) :   1.2039 B( 23-C , 26-H ) :   0.8921 
B( 24-H , 30-O ) :   0.2474 B( 30-O , 32-C ) :   1.6830 B( 31-O , 32-C ) :   1.2827 
B( 32-C , 33-C ) :   0.9466 B( 33-C , 34-H ) :   0.9049 B( 33-C , 35-H ) :   0.8986 
B( 33-C , 36-H ) :   0.9095 


------------------
HIRSHFELD ANALYSIS
------------------

Total integrated alpha density =     82.000568661
Total integrated beta density  =     82.000568661

  ATOM     CHARGE      SPIN    
   0 Ir   0.201409    0.000000
   1 C    0.007340    0.000000
   2 C   -0.000577    0.000000
   3 C    0.001012    0.000000
   4 C   -0.004272    0.000000
   5 C    0.018550    0.000000
   6 N   -0.066968    0.000000
   7 C    0.053916    0.000000
   8 C   -0.071033    0.000000
   9 H    0.053945    0.000000
  10 H    0.037775    0.000000
  11 H    0.043754    0.000000
  12 C   -0.070449    0.000000
  13 H    0.046802    0.000000
  14 H    0.051537    0.000000
  15 H    0.036606    0.000000
  16 H    0.030634    0.000000
  17 C    0.100799    0.000000
  18 C   -0.004911    0.000000
  19 H    0.078327    0.000000
  20 C   -0.069902    0.000000
  21 C   -0.031423    0.000000
  22 S    0.125094    0.000000
  23 C   -0.027095    0.000000
  24 H    0.063763    0.000000
  25 H    0.069616    0.000000
  26 H    0.077703    0.000000
  27 H    0.083855    0.000000
  28 H    0.085107    0.000000
  29 H    0.094533    0.000000
  30 O   -0.256442    0.000000
  31 O   -0.258810    0.000000
  32 C    0.242150    0.000000
  33 C   -0.067670    0.000000
  34 H    0.054305    0.000000
  35 H    0.059174    0.000000
  36 H    0.048246    0.000000
  37 H    0.085230    0.000000
  38 H    0.077232    0.000000

  TOTAL   0.998863    0.000000

-------
TIMINGS
-------

Total SCF time: 0 days 0 hours 4 min 28 sec 

Total time                  ....     268.356 sec
Sum of individual times     ....     267.901 sec  ( 99.8%)

Fock matrix formation       ....     260.189 sec  ( 97.0%)
  Split-RI-J                ....      19.344 sec  (  7.4% of F)
  Chain of spheres X        ....     229.051 sec  ( 88.0% of F)
  XC integration            ....      11.764 sec  (  4.5% of F)
    Basis function eval.    ....       5.410 sec  ( 46.0% of XC)
    Density eval.           ....       3.080 sec  ( 26.2% of XC)
    XC-Functional eval.     ....       0.857 sec  (  7.3% of XC)
    XC-Potential eval.      ....       1.942 sec  ( 16.5% of XC)
Diagonalization             ....       0.179 sec  (  0.1%)
Density matrix formation    ....       0.029 sec  (  0.0%)
Population analysis         ....       1.142 sec  (  0.4%)
Initial guess               ....       0.026 sec  (  0.0%)
Orbital Transformation      ....       0.000 sec  (  0.0%)
Orbital Orthonormalization  ....       0.019 sec  (  0.0%)
DIIS solution               ....       0.072 sec  (  0.0%)
Grid generation             ....       6.264 sec  (  2.3%)

Maximum memory used throughout the entire SCF-calculation: 173.5 MB


-------------------------------------------------------------------------------
                          DFT DISPERSION CORRECTION                            
                                                                               
                              DFTD3 V3.1  Rev 1                                
                          USING Becke-Johnson damping                          
-------------------------------------------------------------------------------
The PBEh-3c composite method is recognized
Using three-body term ABC
Active option DFTDOPT                   ...         4   

molecular C6(AA) [au] = 19555.114402 


            DFT-D V3
 parameters
 s6 scaling factor         :     1.0000 
 a1 scaling factor         :     0.4860 
 s8 scaling factor         :     0.0000 
 a2 scaling factor         :     4.5000 
 Damping factor alpha9(ATM):    16.0000 
 ad hoc parameters k1-k3   :    16.0000     1.3333    -4.0000 

 Edisp/kcal,au: -19.351230068292  -0.030838144767 
 E6   /kcal   : -19.699195379 
 E8   /kcal   :  -0.000000000 
 E6(ABC)      :   0.347965311 
 % E8         :   0.000000000 
 % E6(ABC)    :  -1.798156032 

-------------------------   ----------------
Dispersion correction           -0.030838145
-------------------------   ----------------

 ** NOTE ** -> element ir will be treated as co
NOTIFICATION: Different basis set in ORCA and otool_gcp:
ORCA: 358  gCP: 357 
If you are NOT using ECPs, check your basis set inputs!
------------------   -----------------
gCP correction             0.078251122
------------------   -----------------

-------------------------   --------------------
FINAL SINGLE POINT ENERGY     -1288.398279994174
-------------------------   --------------------

                                *** OPTIMIZATION RUN DONE ***

                            ***************************************
                            *     ORCA property calculations      *
                            ***************************************

                                    ---------------------
                                    Active property flags
                                    ---------------------
   (+) Dipole Moment


------------------------------------------------------------------------------
                       ORCA ELECTRIC PROPERTIES CALCULATION
------------------------------------------------------------------------------

Dipole Moment Calculation                       ... on
Quadrupole Moment Calculation                   ... off
Polarizability Calculation                      ... off
GBWName                                         ... reaction4-IEIP_ts_guess_scan_4-6_orca.gbw
Electron density                                ... reaction4-IEIP_ts_guess_scan_4-6_orca.scfp
The origin for moment calculation is the CENTER OF MASS  = ( 0.851745, -0.621183 -0.133032)

-------------
DIPOLE MOMENT
-------------
                                X             Y             Z
Electronic contribution:     35.61138     -68.15782      74.00587
Nuclear contribution   :    -36.23768      66.97854     -74.28519
                        -----------------------------------------
Total Dipole Moment    :     -0.62630      -1.17927      -0.27932
                        -----------------------------------------
Magnitude (a.u.)       :      1.36417
Magnitude (Debye)      :      3.46744



--------------------
Rotational spectrum 
--------------------
 
Rotational constants in cm-1:     0.010664     0.009065     0.008232 
Rotational constants in MHz :   319.687724   271.758273   246.783652 

 Dipole components along the rotational axes: 
x,y,z [a.u.] :    -0.221406    -0.432610     1.274671 
x,y,z [Debye]:    -0.562769    -1.099608     3.239956 

 

Timings for individual modules:

Sum of individual times         ...     5754.586 sec (=  95.910 min)
GTO integral calculation        ...       16.930 sec (=   0.282 min)   0.3 %
SCF iterations                  ...     4669.993 sec (=  77.833 min)  81.2 %
SCF Gradient evaluation         ...     1065.224 sec (=  17.754 min)  18.5 %
Geometry relaxation             ...        2.439 sec (=   0.041 min)   0.0 %
                             ****ORCA TERMINATED NORMALLY****
TOTAL RUN TIME: 0 days 1 hours 35 minutes 58 seconds 353 msec
