
                                 *****************
                                 * O   R   C   A *
                                 *****************

                                            #,                                       
                                            ###                                      
                                            ####                                     
                                            #####                                    
                                            ######                                   
                                           ########,                                 
                                     ,,################,,,,,                         
                               ,,#################################,,                 
                          ,,##########################################,,             
                       ,#########################################, ''#####,          
                    ,#############################################,,   '####,        
                  ,##################################################,,,,####,       
                ,###########''''           ''''###############################       
              ,#####''   ,,,,##########,,,,          '''####'''          '####       
            ,##' ,,,,###########################,,,                        '##       
           ' ,,###''''                  '''############,,,                           
         ,,##''                                '''############,,,,        ,,,,,,###''
      ,#''                                            '''#######################'''  
     '                                                          ''''####''''         
             ,#######,   #######,   ,#######,      ##                                
            ,#'     '#,  ##    ##  ,#'     '#,    #''#        ######   ,####,        
            ##       ##  ##   ,#'  ##            #'  '#       #        #'  '#        
            ##       ##  #######   ##           ,######,      #####,   #    #        
            '#,     ,#'  ##    ##  '#,     ,#' ,#      #,         ##   #,  ,#        
             '#######'   ##     ##  '#######'  #'      '#     #####' # '####'        



                  #######################################################
                  #                        -***-                        #
                  #          Department of theory and spectroscopy      #
                  #    Directorship and core code : Frank Neese         #
                  #        Max Planck Institute fuer Kohlenforschung    #
                  #                Kaiser Wilhelm Platz 1               #
                  #                 D-45470 Muelheim/Ruhr               #
                  #                      Germany                        #
                  #                                                     #
                  #                  All rights reserved                #
                  #                        -***-                        #
                  #######################################################


                         Program Version 5.0.3 -  RELEASE  -


 With contributions from (in alphabetic order):
   Daniel Aravena         : Magnetic Suceptibility
   Michael Atanasov       : Ab Initio Ligand Field Theory (pilot matlab implementation)
   Alexander A. Auer      : GIAO ZORA, VPT2 properties, NMR spectrum
   Ute Becker             : Parallelization
   Giovanni Bistoni       : ED, misc. LED, open-shell LED, HFLD
   Martin Brehm           : Molecular dynamics
   Dmytro Bykov           : SCF Hessian
   Vijay G. Chilkuri      : MRCI spin determinant printing, contributions to CSF-ICE
   Dipayan Datta          : RHF DLPNO-CCSD density
   Achintya Kumar Dutta   : EOM-CC, STEOM-CC
   Dmitry Ganyushin       : Spin-Orbit,Spin-Spin,Magnetic field MRCI
   Miquel Garcia          : C-PCM and meta-GGA Hessian, CC/C-PCM, Gaussian charge scheme
   Yang Guo               : DLPNO-NEVPT2, F12-NEVPT2, CIM, IAO-localization
   Andreas Hansen         : Spin unrestricted coupled pair/coupled cluster methods
   Benjamin Helmich-Paris : MC-RPA, TRAH-SCF, COSX integrals
   Lee Huntington         : MR-EOM, pCC
   Robert Izsak           : Overlap fitted RIJCOSX, COSX-SCS-MP3, EOM
   Marcus Kettner         : VPT2
   Christian Kollmar      : KDIIS, OOCD, Brueckner-CCSD(T), CCSD density, CASPT2, CASPT2-K
   Simone Kossmann        : Meta GGA functionals, TD-DFT gradient, OOMP2, MP2 Hessian
   Martin Krupicka        : Initial AUTO-CI
   Lucas Lang             : DCDCAS
   Marvin Lechner         : AUTO-CI (C++ implementation), FIC-MRCC
   Dagmar Lenk            : GEPOL surface, SMD
   Dimitrios Liakos       : Extrapolation schemes; Compound Job, initial MDCI parallelization
   Dimitrios Manganas     : Further ROCIS development; embedding schemes
   Dimitrios Pantazis     : SARC Basis sets
   Anastasios Papadopoulos: AUTO-CI, single reference methods and gradients
   Taras Petrenko         : DFT Hessian,TD-DFT gradient, ASA, ECA, R-Raman, ABS, FL, XAS/XES, NRVS
   Peter Pinski           : DLPNO-MP2, DLPNO-MP2 Gradient
   Christoph Reimann      : Effective Core Potentials
   Marius Retegan         : Local ZFS, SOC
   Christoph Riplinger    : Optimizer, TS searches, QM/MM, DLPNO-CCSD(T), (RO)-DLPNO pert. Triples
   Tobias Risthaus        : Range-separated hybrids, TD-DFT gradient, RPA, STAB
   Michael Roemelt        : Original ROCIS implementation
   Masaaki Saitow         : Open-shell DLPNO-CCSD energy and density
   Barbara Sandhoefer     : DKH picture change effects
   Avijit Sen             : IP-ROCIS
   Kantharuban Sivalingam : CASSCF convergence, NEVPT2, FIC-MRCI
   Bernardo de Souza      : ESD, SOC TD-DFT
   Georgi Stoychev        : AutoAux, RI-MP2 NMR, DLPNO-MP2 response
   Willem Van den Heuvel  : Paramagnetic NMR
   Boris Wezisla          : Elementary symmetry handling
   Frank Wennmohs         : Technical directorship


 We gratefully acknowledge several colleagues who have allowed us to
 interface, adapt or use parts of their codes:
   Stefan Grimme, W. Hujo, H. Kruse, P. Pracht,  : VdW corrections, initial TS optimization,
                  C. Bannwarth, S. Ehlert          DFT functionals, gCP, sTDA/sTD-DF
   Ed Valeev, F. Pavosevic, A. Kumar             : LibInt (2-el integral package), F12 methods
   Garnet Chan, S. Sharma, J. Yang, R. Olivares  : DMRG
   Ulf Ekstrom                                   : XCFun DFT Library
   Mihaly Kallay                                 : mrcc  (arbitrary order and MRCC methods)
   Jiri Pittner, Ondrej Demel                    : Mk-CCSD
   Frank Weinhold                                : gennbo (NPA and NBO analysis)
   Christopher J. Cramer and Donald G. Truhlar   : smd solvation model
   Lars Goerigk                                  : TD-DFT with DH, B97 family of functionals
   V. Asgeirsson, H. Jonsson                     : NEB implementation
   FAccTs GmbH                                   : IRC, NEB, NEB-TS, DLPNO-Multilevel, CI-OPT
                                                   MM, QMMM, 2- and 3-layer-ONIOM, Crystal-QMMM,
                                                   LR-CPCM, SF, NACMEs, symmetry and pop. for TD-DFT,
                                                   nearIR, NL-DFT gradient (VV10), updates on ESD,
                                                   ML-optimized integration grids
   S Lehtola, MJT Oliveira, MAL Marques          : LibXC Library
   Liviu Ungur et al                             : ANISO software


 Your calculation uses the libint2 library for the computation of 2-el integrals
 For citations please refer to: http://libint.valeyev.net

 Your ORCA version has been built with support for libXC version: 5.1.0
 For citations please refer to: https://tddft.org/programs/libxc/

 This ORCA versions uses:
   CBLAS   interface :  Fast vector & matrix operations
   LAPACKE interface :  Fast linear algebra routines
   SCALAPACK package :  Parallel linear algebra routines
   Shared memory     :  Shared parallel matrices
   BLAS/LAPACK       :  OpenBLAS 0.3.15  USE64BITINT DYNAMIC_ARCH NO_AFFINITY SkylakeX SINGLE_THREADED
        Core in use  :  SkylakeX
   Copyright (c) 2011-2014, The OpenBLAS Project


Your calculation utilizes the geometrical counterpoise correction gCP
Please cite in your paper:
H.Kruse, S. Grimme J.Chem.Phys., 136, (2012), 154101 
   

Your calculation utilizes the atom-pairwise dispersion correction
with the Becke-Johnson damping scheme (D3BJ)
Cite in your paper:
S.Grimme, S.Ehrlich, L.Goerigk, J Comput Chem, (2011), 32, 1456–1465 
S.Grimme, J.Antony, S.Ehrlich and H.Krieg, J.Chem.Phys., 132, (2010), 154104 
   

Your calculation employs the composite approach PBEh-3c.
Please cite in your paper:
S. Grimme, J. G. Brandenburg, C. Bannwarth, A. Hansen J.Chem.Phys., 143, (2015), 054107 
   

================================================================================

cite the ECPs for Ir [Def2-ECP] as follows:
Ce-Yb(ecp-28): M. Dolg, H. Stoll, H.Preuss, J. Chem. Phys., 1989, 90, 1730-1734.
Y-Cd(ecp-28), Hf-Hg(ecp-46): D. Andrae,U. Haeussermann, M. Dolg, H. Stoll, H. Preuss, Theor. Chim. Acta, 1990, 77, 123-141.
In-Sb(ecp-28), Tl-Bi(ecp-46): B. Metz, H. Stoll, M. Dolg, J. Chem. Phys., 2000, 113, 2563-2569.
Te-Xe(ecp-28), Po-Rn(ecp-46): K. A. Peterson, D. Figgen, E. Goll, H. Stoll, M. Dolg, J. Chem. Phys., 2003, 119, 11113-11123.
Rb(ecp-28), Cs(ecp-46): T. Leininger, A. Nicklass, W. Kuechle, H. Stoll, M. Dolg, A. Bergner, Chem. Phys. Lett., 1996, 255, 274-280.
Sr(ecp-28), Ba(ecp-46): M. Kaupp, P. V. Schleyer, H. Stoll and H. Preuss, J. Chem. Phys., 1991, 94, 1360-1366.
La(ecp-46): M. Dolg, H. Stoll, A. Savin, H. Preuss, Theor. Chim. Acta, 1989, 75, 173-194.
Lu(ecp-28): X. Cao, M. Dolg, J. Chem. Phys., 2001, 115, 7348-7355.

ECP parameters for Ir [Def2-ECP] have been obtained from:
TURBOMOLE (7.0.2)

----- Orbital basis set information -----
Your calculation utilizes the basis: def2-mSVP

----- AuxJ basis set information -----
Your calculation utilizes the auxiliary basis: def2/J
   F. Weigend, Phys. Chem. Chem. Phys. 8, 1057 (2006).

================================================================================
                                        WARNINGS
                       Please study these warnings very carefully!
================================================================================


WARNING: Geometry Optimization
  ===> : Switching off AutoStart
         For restart on a previous wavefunction, please use MOREAD

WARNING: No Hueckel Guess possible with ECP basis!
  ===> : Switching to HCORE guess!

INFO   : the flag for use of the SHARK integral package has been found!

================================================================================
                                       INPUT FILE
================================================================================
NAME = reaction4-IEIP_ts_guess_scan_8-1_orca.inp
|  1> ! Opt PBEh-3c
|  2> %geom Constraints
|  3> { B 0 20 2.257142857142857 C }
|  4> { B 24 30 1.4857142857142858 C }
|  5>     end
|  6> end
|  7> %output 
|  8> xyzfile=True 
|  9> end 
| 10> %scf 
| 11> maxiter 250 
| 12> end
| 13> %output
| 14> Print[P_Hirshfeld] = 1
| 15> end
| 16> % maxcore
| 17> 4000
| 18> *xyz 1 1
| 19> Ir   0.61883833  -0.70571148   0.41850781 
| 20> C    0.07569259  -2.80186947   0.34167961 
| 21> C    0.11420647  -2.34193332   1.70501466 
| 22> C    2.22476705  -2.10609778   0.80442445 
| 23> C    1.35689159  -2.64145092  -0.21938996 
| 24> C    1.46387050  -1.95412776   1.98067859 
| 25> N   -1.04674753   0.16290821  -0.52970729 
| 26> C   -2.30940158   0.46876751   0.15948701 
| 27> C   -3.10742930   1.58189638  -0.50066984 
| 28> H   -3.92967610   1.86313422   0.15589348 
| 29> H   -3.55690556   1.27896498  -1.44760863 
| 30> H   -2.50352813   2.47461414  -0.66553014 
| 31> C   -3.13078448  -0.80724152   0.30247883 
| 32> H   -2.00794201   0.80165884   1.15369778 
| 33> H   -4.03555639  -0.59759966   0.87104747 
| 34> H   -3.43123734  -1.19642527  -0.67116660 
| 35> H   -2.58583254  -1.58586598   0.83417556 
| 36> C   -0.87218495   0.38612301  -1.77544774 
| 37> C    0.47045816   0.16318050  -2.25576234 
| 38> H   -1.66190782   0.75669396  -2.42195896 
| 39> C    1.55195940   0.35610968  -1.39582977 
| 40> C    2.76668753  -0.02946690  -2.03948640 
| 41> S    0.92278674  -0.46008312  -3.76832918 
| 42> C    2.57802527  -0.48514110  -3.30537972 
| 43> H    1.52047506   1.28646944  -0.67113066 
| 44> H    3.74359680   0.08042454  -1.59157249 
| 45> H    3.32443018  -0.81291440  -4.01300465 
| 46> H   -0.79488918  -3.18040848  -0.17449040 
| 47> H   -0.69575676  -2.37049013   2.41846550 
| 48> H    1.81906807  -1.53970694   2.91333935 
| 49> O    1.33333459   2.47652888   0.22259019 
| 50> O    0.53602748   0.93788321   1.62484338 
| 51> C    0.91639616   2.13369063   1.32701956 
| 52> C    0.84971664   3.11416011   2.46506030 
| 53> H    0.81652276   4.13451678   2.09313711 
| 54> H    1.74791852   3.01009144   3.07684439 
| 55> H   -0.00455536   2.92438121   3.11156240 
| 56> H    3.27619584  -1.88605050   0.69709371 
| 57> H    1.64583933  -2.89042299  -1.22983629 
| 58> *
| 59> 
| 60>                          ****END OF INPUT****
================================================================================

                       *****************************
                       * Geometry Optimization Run *
                       *****************************

Geometry optimization settings:
Update method            Update   .... BFGS
Choice of coordinates    CoordSys .... Z-matrix Internals
Initial Hessian          InHess   .... Almoef's Model

Convergence Tolerances:
Energy Change            TolE     ....  5.0000e-06 Eh
Max. Gradient            TolMAXG  ....  3.0000e-04 Eh/bohr
RMS Gradient             TolRMSG  ....  1.0000e-04 Eh/bohr
Max. Displacement        TolMAXD  ....  4.0000e-03 bohr
RMS Displacement         TolRMSD  ....  2.0000e-03 bohr
Strict Convergence                ....  False
------------------------------------------------------------------------------
                        ORCA OPTIMIZATION COORDINATE SETUP
------------------------------------------------------------------------------

The optimization will be done in new redundant internal coordinates
Making redundant internal coordinates   ...  (new redundants) done
Evaluating the initial hessian          ...  (Almloef) done
Evaluating the coordinates              ...  done
Calculating the B-matrix                .... done
Calculating the G-matrix                .... done
Diagonalizing the G-matrix              .... done
Imposing constraints:
 Iter   0:  RMS(Cart)=    0.0176690108 RMS(Int)=    0.0075610723
 Iter   1:  RMS(Cart)=    0.0022498389 RMS(Int)=    0.0009980652
 Iter   2:  RMS(Cart)=    0.0002967036 RMS(Int)=    0.0001316821
 Iter   3:  RMS(Cart)=    0.0000391106 RMS(Int)=    0.0000173422
 Iter   4:  RMS(Cart)=    0.0000051488 RMS(Int)=    0.0000022821
 Iter   5:  RMS(Cart)=    0.0000006774 RMS(Int)=    0.0000003002
 Iter   6:  RMS(Cart)=    0.0000000891 RMS(Int)=    0.0000000395
CONVERGED
Small eigenvalue found = 1.353e-02
Small eigenvalue found = 2.334e-02
The first mode is                       ....  280
The number of degrees of freedom        ....  111
Storing new coordinates                 .... done

    -----------------------------------------------------------------
                    Redundant Internal Coordinates


    -----------------------------------------------------------------
         Definition                    Initial Value    Approx d2E/dq
    -----------------------------------------------------------------
      1. B(C   1,Ir  0)                  2.1666         0.083838   
      2. B(C   2,C   1)                  1.4390         0.521213   
      3. B(C   2,Ir  0)                  2.1415         0.091910   
      4. B(C   3,Ir  0)                  2.1652         0.084249   
      5. B(C   4,C   3)                  1.4451         0.510505   
      6. B(C   4,Ir  0)                  2.1675         0.083559   
      7. B(C   4,C   1)                  1.4082         0.585169   
      8. B(C   5,Ir  0)                  2.1705         0.082555   
      9. B(C   5,C   2)                  1.4323         0.537286   
     10. B(C   5,C   3)                  1.4099         0.582407   
     11. B(N   6,Ir  0)                  2.1045         0.094475   
     12. B(C   7,N   6)                  1.4707         0.416094   
     13. B(C   8,C   7)                  1.5204         0.386940   
     14. B(H   9,C   8)                  1.0892         0.361219   
     15. B(H  10,C   8)                  1.0911         0.358654   
     16. B(H  11,C   8)                  1.0903         0.359663   
     17. B(C  12,C   7)                  1.5242         0.381560   
     18. B(H  13,C   7)                  1.0909         0.358859   
     19. B(H  14,C  12)                  1.0890         0.361479   
     20. B(H  15,C  12)                  1.0907         0.359118   
     21. B(H  16,C  12)                  1.0890         0.361420   
     22. B(C  17,N   6)                  1.2724         0.845789   
     23. B(C  18,C  17)                  1.4384         0.513703   
     24. B(H  19,C  17)                  1.0858         0.365699   
     25. B(C  20,Ir  0)                  2.2571         0.051386 C 
     26. B(C  20,C  18)                  1.3948         0.613162   
     27. B(C  21,C  20)                  1.4285         0.543849   
     28. B(S  22,C  18)                  1.6973         0.544737   
     29. B(C  23,C  21)                  1.3583         0.701261   
     30. B(C  23,S  22)                  1.7181         0.503152   
     31. B(H  24,C  20)                  1.1801         0.258985   
     32. B(H  25,C  21)                  1.0803         0.373159   
     33. B(H  26,C  23)                  1.0795         0.374282   
     34. B(H  27,C   1)                  1.0806         0.372791   
     35. B(H  28,C   2)                  1.0798         0.373913   
     36. B(H  29,C   5)                  1.0806         0.372708   
     37. B(O  30,H  24)                  1.4857         0.071521 C 
     38. B(O  31,Ir  0)                  2.0401         0.119412   
     39. B(C  32,O  30)                  1.2294         1.009920   
     40. B(C  32,O  31)                  1.2895         0.808895   
     41. B(C  33,C  32)                  1.5036         0.411575   
     42. B(H  34,C  33)                  1.0865         0.364714   
     43. B(H  35,C  33)                  1.0917         0.357817   
     44. B(H  36,C  33)                  1.0880         0.362745   
     45. B(H  37,C   3)                  1.0796         0.374183   
     46. B(H  38,C   4)                  1.0800         0.373524   
     47. A(C   1,Ir  0,N   6)          100.6084         0.248939   
     48. A(C   1,Ir  0,C   3)           64.3455         0.245968   
     49. A(C   2,Ir  0,N   6)          113.4409         0.252301   
     50. A(C   2,Ir  0,C   5)           38.7926         0.248533   
     51. A(N   6,Ir  0,O  31)           84.3330         0.261029   
     52. A(C  20,Ir  0,O  31)           96.3824         0.239959   
     53. A(C   2,Ir  0,C  20)          157.1879         0.232300   
     54. A(C   2,Ir  0,O  31)          104.5371         0.261193   
     55. A(C   1,Ir  0,C   5)           64.3511         0.245248   
     56. A(C   3,Ir  0,C   4)           38.9666         0.245849   
     57. A(C   2,Ir  0,C   3)           64.8148         0.249268   
     58. A(C   3,Ir  0,C  20)           97.8239         0.229505   
     59. A(C   4,Ir  0,N   6)          120.3758         0.248818   
     60. A(C   1,Ir  0,O  31)          142.2019         0.257647   
     61. A(C   5,Ir  0,O  31)           93.0744         0.257059   
     62. A(C   5,Ir  0,C  20)          132.3666         0.228860   
     63. A(C   4,Ir  0,C  20)           92.3385         0.229244   
     64. A(C   2,Ir  0,C   4)           64.8494         0.248970   
     65. A(C   1,Ir  0,C  20)          121.3353         0.229349   
     66. A(C   3,Ir  0,N   6)          159.1365         0.249116   
     67. A(C   1,Ir  0,C   4)           37.9198         0.245676   
     68. A(C   4,Ir  0,O  31)          155.1286         0.257520   
     69. A(C   1,Ir  0,C   2)           39.0197         0.249091   
     70. A(C   3,Ir  0,O  31)          116.4773         0.257834   
     71. A(C   5,Ir  0,N   6)          150.3473         0.248381   
     72. A(C   3,Ir  0,C   5)           37.9522         0.245421   
     73. A(N   6,Ir  0,C  20)           77.1888         0.232164   
     74. A(C   4,Ir  0,C   5)           64.2778         0.245130   
     75. A(C   2,C   1,H  27)          125.8551         0.344740   
     76. A(Ir  0,C   1,C   2)           69.5460         0.312643   
     77. A(C   2,C   1,C   4)          108.4844         0.416460   
     78. A(C   4,C   1,H  27)          125.6393         0.351528   
     79. A(Ir  0,C   1,H  27)          123.9150         0.268297   
     80. A(Ir  0,C   1,C   4)           71.0712         0.318579   
     81. A(Ir  0,C   2,C   1)           71.4344         0.317345   
     82. A(Ir  0,C   2,C   5)           71.6976         0.318920   
     83. A(C   1,C   2,C   5)          107.1016         0.410193   
     84. A(Ir  0,C   2,H  28)          126.4408         0.272191   
     85. A(C   5,C   2,H  28)          125.9898         0.346679   
     86. A(C   1,C   2,H  28)          126.6724         0.344914   
     87. A(C   4,C   3,C   5)          107.8557         0.414576   
     88. A(Ir  0,C   3,C   4)           70.6015         0.311841   
     89. A(Ir  0,C   3,C   5)           71.2273         0.318588   
     90. A(Ir  0,C   3,H  37)          124.9536         0.268647   
     91. A(C   5,C   3,H  37)          125.9659         0.351468   
     92. A(C   4,C   3,H  37)          126.1594         0.343756   
     93. A(Ir  0,C   4,C   1)           71.0090         0.318406   
     94. A(Ir  0,C   4,H  38)          124.9163         0.268241   
     95. A(Ir  0,C   4,C   3)           70.4319         0.311427   
     96. A(C   3,C   4,H  38)          125.9678         0.343654   
     97. A(C   1,C   4,C   3)          107.8739         0.414925   
     98. A(C   1,C   4,H  38)          126.1501         0.351645   
     99. A(Ir  0,C   5,H  29)          121.9036         0.267663   
    100. A(Ir  0,C   5,C   2)           69.5098         0.313401   
    101. A(C   3,C   5,H  29)          125.7480         0.351234   
    102. A(Ir  0,C   5,C   3)           70.8205         0.317534   
    103. A(C   2,C   5,C   3)          108.6079         0.418366   
    104. A(C   2,C   5,H  29)          125.4773         0.346491   
    105. A(Ir  0,N   6,C  17)          113.6700         0.341451   
    106. A(C   7,N   6,C  17)          122.5974         0.421698   
    107. A(Ir  0,N   6,C   7)          123.7247         0.304005   
    108. A(C   8,C   7,H  13)          108.5017         0.326013   
    109. A(C  12,C   7,H  13)          108.5939         0.325263   
    110. A(N   6,C   7,C   8)          113.5419         0.370041   
    111. A(N   6,C   7,C  12)          109.4220         0.369152   
    112. A(C   8,C   7,C  12)          111.7634         0.366870   
    113. A(N   6,C   7,H  13)          104.6725         0.327960   
    114. A(C   7,C   8,H   9)          108.8778         0.326365   
    115. A(C   7,C   8,H  10)          112.9410         0.325983   
    116. A(H   9,C   8,H  10)          106.4911         0.290797   
    117. A(C   7,C   8,H  11)          111.9851         0.326133   
    118. A(H   9,C   8,H  11)          107.3298         0.290926   
    119. A(H  10,C   8,H  11)          108.9206         0.290600   
    120. A(C   7,C  12,H  14)          109.6061         0.325653   
    121. A(C   7,C  12,H  15)          111.3086         0.325302   
    122. A(H  14,C  12,H  15)          107.8119         0.290889   
    123. A(C   7,C  12,H  16)          112.0050         0.325644   
    124. A(H  14,C  12,H  16)          107.3674         0.291182   
    125. A(H  15,C  12,H  16)          108.5757         0.290882   
    126. A(N   6,C  17,C  18)          114.5196         0.440846   
    127. A(N   6,C  17,H  19)          123.0328         0.370779   
    128. A(C  18,C  17,H  19)          122.4004         0.342795   
    129. A(C  17,C  18,S  22)          126.9109         0.432685   
    130. A(C  20,C  18,S  22)          113.3510         0.446731   
    131. A(C  17,C  18,C  20)          119.5074         0.418856   
    132. A(C  18,C  20,C  21)          109.9007         0.423142   
    133. A(Ir  0,C  20,H  24)           82.4678         0.236791   
    134. A(C  18,C  20,H  24)          117.9095         0.333323   
    135. A(C  21,C  20,H  24)          120.9174         0.326778   
    136. A(Ir  0,C  20,C  18)           96.8397         0.296686   
    137. A(Ir  0,C  20,C  21)          124.7317         0.291123   
    138. A(C  20,C  21,C  23)          113.2489         0.433451   
    139. A(C  20,C  21,H  25)          123.6437         0.347270   
    140. A(C  23,C  21,H  25)          123.0205         0.362566   
    141. A(C  18,S  22,C  23)           91.2011         0.455089   
    142. A(C  21,C  23,S  22)          112.2974         0.451199   
    143. A(C  21,C  23,H  26)          128.0805         0.362752   
    144. A(S  22,C  23,H  26)          119.5946         0.360763   
    145. A(Ir  0,O  31,C  32)          126.5764         0.352523   
    146. A(O  30,C  32,O  31)          124.4175         0.491557   
    147. A(O  30,C  32,C  33)          120.9057         0.437336   
    148. A(O  31,C  32,C  33)          114.6590         0.420269   
    149. A(C  32,C  33,H  34)          110.7708         0.330230   
    150. A(C  32,C  33,H  35)          108.9952         0.329189   
    151. A(H  34,C  33,H  35)          107.8467         0.291131   
    152. A(C  32,C  33,H  36)          111.7657         0.329934   
    153. A(H  34,C  33,H  36)          110.0730         0.291757   
    154. A(H  35,C  33,H  36)          107.2400         0.290883   
    155. D(C   2,C   1,Ir  0,N   6)   -114.3120         0.001694   
    156. D(C   4,C   1,Ir  0,C   2)   -119.0539         0.001694   
    157. D(H  27,C   1,Ir  0,C   3)   -158.8719         0.001694   
    158. D(C   4,C   1,Ir  0,C  20)     45.2659         0.001694   
    159. D(C   2,C   1,Ir  0,C   3)     80.9593         0.001694   
    160. D(C   4,C   1,Ir  0,N   6)    126.6341         0.001694   
    161. D(H  27,C   1,Ir  0,C   2)    120.1688         0.001694   
    162. D(C   2,C   1,Ir  0,O  31)    -19.8639         0.001694   
    163. D(H  27,C   1,Ir  0,N   6)      5.8568         0.001694   
    164. D(C   2,C   1,Ir  0,C  20)    164.3198         0.001694   
    165. D(C   4,C   1,Ir  0,C   3)    -38.0945         0.001694   
    166. D(H  27,C   1,Ir  0,C  20)    -75.5114         0.001694   
    167. D(H  27,C   1,Ir  0,C   4)   -120.7774         0.001694   
    168. D(H  27,C   1,Ir  0,O  31)    100.3049         0.001694   
    169. D(C   2,C   1,Ir  0,C   5)     38.6697         0.001694   
    170. D(H  27,C   1,Ir  0,C   5)    158.8385         0.001694   
    171. D(C   4,C   1,Ir  0,C   5)    -80.3841         0.001694   
    172. D(C   4,C   1,Ir  0,O  31)   -138.9177         0.001694   
    173. D(C   2,C   1,Ir  0,C   4)    119.0539         0.001694   
    174. D(H  28,C   2,Ir  0,C   5)    121.6794         0.001732   
    175. D(H  28,C   2,C   1,C   4)   -177.2409         0.021563   
    176. D(C   5,C   2,C   1,H  27)    179.0164         0.021563   
    177. D(C   1,C   2,Ir  0,N   6)     77.5053         0.001732   
    178. D(C   1,C   2,Ir  0,C   3)    -79.6535         0.001732   
    179. D(Ir  0,C   2,C   1,C   4)     60.6767         0.021563   
    180. D(H  28,C   2,Ir  0,C   1)   -122.3548         0.001732   
    181. D(H  28,C   2,Ir  0,C  20)   -158.8966         0.001732   
    182. D(C   1,C   2,Ir  0,C   5)   -115.9657         0.001732   
    183. D(C   5,C   2,Ir  0,C   3)     36.3122         0.001732   
    184. D(H  28,C   2,Ir  0,C   4)   -158.7600         0.001732   
    185. D(H  28,C   2,Ir  0,C   3)    157.9917         0.001732   
    186. D(Ir  0,C   2,C   1,H  27)   -117.7231         0.021563   
    187. D(C   1,C   2,Ir  0,C   4)    -36.4051         0.001732   
    188. D(C   5,C   2,Ir  0,C   1)    115.9657         0.001732   
    189. D(C   1,C   2,Ir  0,C  20)    -36.5418         0.001732   
    190. D(C   5,C   2,Ir  0,O  31)    -76.4578         0.001732   
    191. D(C   5,C   2,Ir  0,N   6)   -166.5290         0.001732   
    192. D(H  28,C   2,C   1,Ir  0)    122.0823         0.021563   
    193. D(C   5,C   2,C   1,Ir  0)    -63.2605         0.021563   
    194. D(C   1,C   2,Ir  0,O  31)    167.5765         0.001732   
    195. D(C   5,C   2,Ir  0,C  20)     79.4240         0.001732   
    196. D(H  28,C   2,Ir  0,N   6)    -44.8496         0.001732   
    197. D(C   5,C   2,Ir  0,C   4)     79.5606         0.001732   
    198. D(C   5,C   2,C   1,C   4)     -2.5838         0.021563   
    199. D(H  28,C   2,Ir  0,O  31)     45.2216         0.001732   
    200. D(H  28,C   2,C   1,H  27)      4.3593         0.021563   
    201. D(C   4,C   3,Ir  0,N   6)     -9.5496         0.001695   
    202. D(C   5,C   3,Ir  0,C   1)    -80.5031         0.001695   
    203. D(H  37,C   3,Ir  0,C   5)   -121.2808         0.001695   
    204. D(H  37,C   3,Ir  0,C   2)   -158.3843         0.001695   
    205. D(C   4,C   3,Ir  0,O  31)    174.8178         0.001695   
    206. D(H  37,C   3,Ir  0,N   6)    111.5871         0.001695   
    207. D(C   5,C   3,Ir  0,C  20)    158.4096         0.001695   
    208. D(H  37,C   3,Ir  0,C   1)    158.2161         0.001695   
    209. D(H  37,C   3,Ir  0,C   4)    121.1366         0.001695   
    210. D(C   4,C   3,Ir  0,C   5)    117.5826         0.001695   
    211. D(C   5,C   3,Ir  0,C   4)   -117.5826         0.001695   
    212. D(C   5,C   3,Ir  0,O  31)     57.2352         0.001695   
    213. D(C   4,C   3,Ir  0,C  20)    -84.0078         0.001695   
    214. D(C   4,C   3,Ir  0,C   1)     37.0795         0.001695   
    215. D(C   4,C   3,Ir  0,C   2)     80.4790         0.001695   
    216. D(C   5,C   3,Ir  0,N   6)   -127.1322         0.001695   
    217. D(C   5,C   3,Ir  0,C   2)    -37.1036         0.001695   
    218. D(H  37,C   3,Ir  0,C  20)     37.1288         0.001695   
    219. D(H  37,C   3,Ir  0,O  31)    -64.0456         0.001695   
    220. D(C   1,C   4,Ir  0,C  20)   -142.6077         0.001692   
    221. D(C   1,C   4,Ir  0,C   2)     37.4453         0.001692   
    222. D(C   3,C   4,Ir  0,C   2)    -80.3826         0.001692   
    223. D(C   1,C   4,Ir  0,C   5)     80.5946         0.001692   
    224. D(C   1,C   4,Ir  0,N   6)    -66.0991         0.001692   
    225. D(C   3,C   4,Ir  0,C   5)    -37.2333         0.001692   
    226. D(C   3,C   4,Ir  0,C   1)   -117.8279         0.001692   
    227. D(C   1,C   4,Ir  0,O  31)    106.7448         0.001692   
    228. D(C   1,C   4,Ir  0,C   3)    117.8279         0.001692   
    229. D(H  38,C   4,C   1,Ir  0)   -119.8833         0.027474   
    230. D(C   3,C   4,Ir  0,C  20)     99.5644         0.001692   
    231. D(C   3,C   4,Ir  0,O  31)    -11.0831         0.001692   
    232. D(Ir  0,C   4,C   1,C   2)    -59.7236         0.027474   
    233. D(H  38,C   4,Ir  0,C   1)    121.3716         0.001692   
    234. D(H  38,C   4,Ir  0,C   3)   -120.8005         0.001692   
    235. D(H  38,C   4,Ir  0,C   5)   -158.0338         0.001692   
    236. D(H  38,C   4,Ir  0,N   6)     55.2725         0.001692   
    237. D(H  38,C   4,Ir  0,C  20)    -21.2361         0.001692   
    238. D(H  38,C   4,Ir  0,C   2)    158.8169         0.001692   
    239. D(Ir  0,C   4,C   1,H  27)    118.6805         0.027474   
    240. D(H  38,C   4,Ir  0,O  31)   -131.8836         0.001692   
    241. D(C   3,C   4,C   1,Ir  0)     61.1084         0.027474   
    242. D(C   3,C   4,C   1,C   2)      1.3848         0.027474   
    243. D(H  38,C   4,C   1,C   2)   -179.6069         0.027474   
    244. D(C   3,C   4,Ir  0,N   6)    176.0730         0.001692   
    245. D(C   3,C   4,C   1,H  27)    179.7889         0.027474   
    246. D(Ir  0,C   4,C   3,H  37)   -119.6677         0.020659   
    247. D(Ir  0,C   4,C   3,C   5)     61.8434         0.020659   
    248. D(H  38,C   4,C   3,C   5)   -178.6442         0.020659   
    249. D(C   1,C   4,C   3,C   5)      0.3664         0.020659   
    250. D(C   1,C   4,C   3,H  37)    178.8553         0.020659   
    251. D(H  38,C   4,C   3,Ir  0)    119.5124         0.020659   
    252. D(H  38,C   4,C   1,H  27)     -1.2028         0.027474   
    253. D(H  38,C   4,C   3,H  37)     -0.1553         0.020659   
    254. D(C   1,C   4,C   3,Ir  0)    -61.4770         0.020659   
    255. D(H  29,C   5,C   2,H  28)     -6.9645         0.022965   
    256. D(C   2,C   5,Ir  0,C   4)    -81.1615         0.001688   
    257. D(C   2,C   5,Ir  0,C   3)   -119.3828         0.001688   
    258. D(C   3,C   5,C   2,C   1)      2.8149         0.022965   
    259. D(C   2,C   5,Ir  0,C  20)   -148.9467         0.001688   
    260. D(C   2,C   5,Ir  0,O  31)    109.5364         0.001688   
    261. D(H  29,C   5,Ir  0,O  31)    -10.2782         0.001688   
    262. D(C   3,C   5,Ir  0,C   2)    119.3828         0.001688   
    263. D(C   3,C   5,Ir  0,C   4)     38.2213         0.001688   
    264. D(C   3,C   5,Ir  0,N   6)    144.9772         0.001688   
    265. D(C   3,C   5,Ir  0,C  20)    -29.5639         0.001688   
    266. D(C   3,C   5,Ir  0,O  31)   -131.0808         0.001688   
    267. D(H  29,C   5,Ir  0,C   1)   -158.7103         0.001688   
    268. D(H  29,C   5,Ir  0,C   2)   -119.8145         0.001688   
    269. D(H  29,C   5,Ir  0,C   3)    120.8027         0.001688   
    270. D(H  29,C   5,Ir  0,C   4)    159.0240         0.001688   
    271. D(H  29,C   5,Ir  0,N   6)    -94.2201         0.001688   
    272. D(C   3,C   5,Ir  0,C   1)     80.4870         0.001688   
    273. D(H  29,C   5,Ir  0,C  20)     91.2388         0.001688   
    274. D(Ir  0,C   5,C   2,C   1)     63.0871         0.022965   
    275. D(Ir  0,C   5,C   2,H  28)   -122.2091         0.022965   
    276. D(C   2,C   5,Ir  0,N   6)     25.5945         0.001688   
    277. D(C   3,C   5,C   2,Ir  0)    -60.2722         0.022965   
    278. D(H  29,C   5,C   2,Ir  0)    115.2446         0.022965   
    279. D(C   3,C   5,C   2,H  28)    177.5187         0.022965   
    280. D(C   2,C   5,Ir  0,C   1)    -38.8958         0.001688   
    281. D(H  29,C   5,C   2,C   1)    178.3317         0.022965   
    282. D(H  29,C   5,C   3,H  37)      4.0213         0.027200   
    283. D(Ir  0,C   5,C   3,H  37)    120.0652         0.027200   
    284. D(C   2,C   5,C   3,Ir  0)     59.4577         0.027200   
    285. D(C   2,C   5,C   3,C   4)     -1.9845         0.027200   
    286. D(C   2,C   5,C   3,H  37)    179.5229         0.027200   
    287. D(H  29,C   5,C   3,Ir  0)   -116.0438         0.027200   
    288. D(Ir  0,C   5,C   3,C   4)    -61.4422         0.027200   
    289. D(H  29,C   5,C   3,C   4)   -177.4861         0.027200   
    290. D(C   7,N   6,Ir  0,C   1)     83.0692         0.001764   
    291. D(C   7,N   6,Ir  0,C   2)     44.3602         0.001764   
    292. D(C   7,N   6,Ir  0,C   3)    124.8788         0.001764   
    293. D(C   7,N   6,Ir  0,C   4)    117.9330         0.001764   
    294. D(C   7,N   6,Ir  0,C   5)     27.2030         0.001764   
    295. D(C   7,N   6,Ir  0,C  20)   -156.9305         0.001764   
    296. D(C   7,N   6,Ir  0,O  31)    -59.0489         0.001764   
    297. D(C  17,N   6,Ir  0,C   1)    -95.9345         0.001764   
    298. D(C  17,N   6,Ir  0,C   2)   -134.6434         0.001764   
    299. D(C  17,N   6,Ir  0,C   3)    -54.1249         0.001764   
    300. D(C  17,N   6,Ir  0,C   4)    -61.0707         0.001764   
    301. D(C  17,N   6,Ir  0,C   5)   -151.8006         0.001764   
    302. D(C  17,N   6,Ir  0,C  20)     24.0658         0.001764   
    303. D(C  17,N   6,Ir  0,O  31)    121.9474         0.001764   
    304. D(C   8,C   7,N   6,Ir  0)    155.0599         0.014765   
    305. D(C   8,C   7,N   6,C  17)    -26.0232         0.014765   
    306. D(C  12,C   7,N   6,Ir  0)    -79.3166         0.014765   
    307. D(C  12,C   7,N   6,C  17)     99.6002         0.014765   
    308. D(H  13,C   7,N   6,Ir  0)     36.9030         0.014765   
    309. D(H  13,C   7,N   6,C  17)   -144.1802         0.014765   
    310. D(H   9,C   8,C   7,N   6)   -170.3310         0.011912   
    311. D(H   9,C   8,C   7,C  12)     65.3024         0.011912   
    312. D(H   9,C   8,C   7,H  13)    -54.4094         0.011912   
    313. D(H  10,C   8,C   7,N   6)     71.6022         0.011912   
    314. D(H  10,C   8,C   7,C  12)    -52.7645         0.011912   
    315. D(H  10,C   8,C   7,H  13)   -172.4762         0.011912   
    316. D(H  11,C   8,C   7,N   6)    -51.8060         0.011912   
    317. D(H  11,C   8,C   7,C  12)   -176.1726         0.011912   
    318. D(H  11,C   8,C   7,H  13)     64.1156         0.011912   
    319. D(H  14,C  12,C   7,N   6)    176.2239         0.011598   
    320. D(H  14,C  12,C   7,C   8)    -57.1359         0.011598   
    321. D(H  14,C  12,C   7,H  13)     62.5216         0.011598   
    322. D(H  15,C  12,C   7,N   6)    -64.6005         0.011598   
    323. D(H  15,C  12,C   7,C   8)     62.0397         0.011598   
    324. D(H  15,C  12,C   7,H  13)   -178.3028         0.011598   
    325. D(H  16,C  12,C   7,N   6)     57.1643         0.011598   
    326. D(H  16,C  12,C   7,C   8)   -176.1955         0.011598   
    327. D(H  16,C  12,C   7,H  13)    -56.5380         0.011598   
    328. D(C  18,C  17,N   6,Ir  0)     -7.2226         0.061855   
    329. D(C  18,C  17,N   6,C   7)    173.7610         0.061855   
    330. D(H  19,C  17,N   6,Ir  0)    175.2249         0.061855   
    331. D(H  19,C  17,N   6,C   7)     -3.7915         0.061855   
    332. D(C  20,C  18,C  17,N   6)    -29.8552         0.017988   
    333. D(C  20,C  18,C  17,H  19)    147.7146         0.017988   
    334. D(S  22,C  18,C  17,N   6)    144.2393         0.017988   
    335. D(S  22,C  18,C  17,H  19)    -38.1910         0.017988   
    336. D(C  18,C  20,Ir  0,C   1)     61.4283         0.001574   
    337. D(H  24,C  20,C  18,C  17)    -40.8118         0.028230   
    338. D(C  18,C  20,Ir  0,C   3)    126.0889         0.001574   
    339. D(C  18,C  20,Ir  0,C   4)     87.3367         0.001574   
    340. D(Ir  0,C  20,C  18,C  17)     44.2623         0.028230   
    341. D(C  18,C  20,Ir  0,N   6)    -33.3088         0.001574   
    342. D(C  18,C  20,Ir  0,O  31)   -115.9931         0.001574   
    343. D(H  24,C  20,Ir  0,C   4)   -155.2971         0.001574   
    344. D(C  21,C  20,Ir  0,C   2)    -32.5599         0.001574   
    345. D(C  21,C  20,Ir  0,C   3)      6.0685         0.001574   
    346. D(C  21,C  20,Ir  0,C   4)    -32.6836         0.001574   
    347. D(C  21,C  20,Ir  0,C   5)     23.9043         0.001574   
    348. D(C  21,C  20,Ir  0,N   6)   -153.3291         0.001574   
    349. D(C  21,C  20,Ir  0,O  31)    123.9866         0.001574   
    350. D(H  24,C  20,Ir  0,C   1)    178.7944         0.001574   
    351. D(H  24,C  20,Ir  0,C   2)   -155.1733         0.001574   
    352. D(C  21,C  20,Ir  0,C   1)    -58.5921         0.001574   
    353. D(H  24,C  20,Ir  0,C   3)   -116.5450         0.001574   
    354. D(H  24,C  20,Ir  0,C   5)    -98.7092         0.001574   
    355. D(H  24,C  20,Ir  0,N   6)     84.0574         0.001574   
    356. D(C  18,C  20,Ir  0,C   5)    143.9247         0.001574   
    357. D(H  24,C  20,Ir  0,O  31)      1.3731         0.001574   
    358. D(Ir  0,C  20,C  18,S  22)   -130.5967         0.028230   
    359. D(C  21,C  20,C  18,C  17)    175.0821         0.028230   
    360. D(C  18,C  20,Ir  0,C   2)     87.4605         0.001574   
    361. D(C  21,C  20,C  18,S  22)      0.2230         0.028230   
    362. D(H  24,C  20,C  18,S  22)    144.3292         0.028230   
    363. D(C  23,C  21,C  20,Ir  0)    113.5870         0.021938   
    364. D(C  23,C  21,C  20,C  18)     -0.3090         0.021938   
    365. D(C  23,C  21,C  20,H  24)   -143.1591         0.021938   
    366. D(H  25,C  21,C  20,Ir  0)    -69.7151         0.021938   
    367. D(H  25,C  21,C  20,C  18)    176.3890         0.021938   
    368. D(H  25,C  21,C  20,H  24)     33.5388         0.021938   
    369. D(C  23,S  22,C  18,C  17)   -174.4734         0.005937   
    370. D(C  23,S  22,C  18,C  20)     -0.0705         0.005937   
    371. D(S  22,C  23,C  21,C  20)      0.2623         0.034646   
    372. D(S  22,C  23,C  21,H  25)   -176.4592         0.034646   
    373. D(H  26,C  23,C  21,C  20)    178.3245         0.034646   
    374. D(H  26,C  23,C  21,H  25)      1.6030         0.034646   
    375. D(C  21,C  23,S  22,C  18)     -0.1116         0.005255   
    376. D(H  26,C  23,S  22,C  18)   -178.3574         0.005255   
    377. D(C  32,O  31,Ir  0,C   1)   -175.9795         0.001899   
    378. D(C  32,O  31,Ir  0,C   2)    171.2527         0.001899   
    379. D(C  32,O  31,Ir  0,C   3)    102.4743         0.001899   
    380. D(C  32,O  31,Ir  0,C   4)    110.2360         0.001899   
    381. D(C  32,O  31,Ir  0,C   5)    133.6659         0.001899   
    382. D(C  32,O  31,Ir  0,N   6)    -75.9640         0.001899   
    383. D(C  32,O  31,Ir  0,C  20)      0.4256         0.001899   
    384. D(O  30,C  32,O  31,Ir  0)      3.8354         0.050563   
    385. D(C  33,C  32,O  31,Ir  0)   -174.6355         0.050563   
    386. D(H  34,C  33,C  32,O  30)     22.5664         0.012542   
    387. D(H  34,C  33,C  32,O  31)   -158.9038         0.012542   
    388. D(H  35,C  33,C  32,O  30)    -95.9372         0.012542   
    389. D(H  35,C  33,C  32,O  31)     82.5927         0.012542   
    390. D(H  36,C  33,C  32,O  30)    145.7067         0.012542   
    391. D(H  36,C  33,C  32,O  31)    -35.7635         0.012542   
    -----------------------------------------------------------------

Number of atoms                         .... 39
Number of degrees of freedom            .... 391

         *************************************************************
         *                GEOMETRY OPTIMIZATION CYCLE   1            *
         *************************************************************
---------------------------------
CARTESIAN COORDINATES (ANGSTROEM)
---------------------------------
  Ir     0.622075   -0.700566    0.407989
  C      0.081910   -2.797211    0.326410
  C      0.120938   -2.340694    1.690493
  C      2.231280   -2.098613    0.787394
  C      1.362393   -2.633164   -0.236098
  C      1.471373   -1.950853    1.965695
  N     -1.048356    0.166784   -0.533407
  C     -2.309769    0.470232    0.159130
  C     -3.110824    1.583046   -0.497900
  H     -3.931875    1.862485    0.160931
  H     -3.562158    1.280571   -1.444102
  H     -2.508482    2.476735   -0.663213
  C     -3.129144   -0.807008    0.302670
  H     -2.006378    0.802422    1.152990
  H     -4.032836   -0.599176    0.873624
  H     -3.431405   -1.195511   -0.670689
  H     -2.581908   -1.585506    0.832211
  C     -0.876578    0.390367   -1.774158
  C      0.464147    0.160919   -2.242065
  H     -1.663279    0.763677   -2.422791
  C      1.537079    0.345900   -1.370316
  C      2.754266   -0.045526   -2.007377
  S      0.924034   -0.462854   -3.752063
  C      2.574263   -0.498532   -3.275210
  H      1.504607    1.275281   -0.643771
  H      3.728490    0.058860   -1.552254
  H      3.324969   -0.829089   -3.977009
  H     -0.788688   -3.175885   -0.189633
  H     -0.688367   -2.372468    2.404562
  H      1.827221   -1.538014    2.898811
  O      1.331659    2.476811    0.212828
  O      0.538134    0.939826    1.617953
  C      0.917114    2.135506    1.318792
  C      0.852243    3.117141    2.455934
  H      0.817819    4.137090    2.083004
  H      1.751718    3.014144    3.066031
  H     -0.000645    2.927635    3.104344
  H      3.282119   -1.876453    0.678614
  H      1.650208   -2.879117   -1.247612

----------------------------
CARTESIAN COORDINATES (A.U.)
----------------------------
  NO LB      ZA    FRAG     MASS         X           Y           Z
   0 Ir   17.0000*   0   192.220    1.175552   -1.323877    0.770988
   1 C     6.0000    0    12.011    0.154788   -5.285963    0.616825
   2 C     6.0000    0    12.011    0.228541   -4.423271    3.194569
   3 C     6.0000    0    12.011    4.216509   -3.965804    1.487959
   4 C     6.0000    0    12.011    2.574550   -4.975958   -0.446161
   5 C     6.0000    0    12.011    2.780493   -3.686578    3.714625
   6 N     7.0000    0    14.007   -1.981106    0.315176   -1.007993
   7 C     6.0000    0    12.011   -4.364831    0.888611    0.300712
   8 C     6.0000    0    12.011   -5.878605    2.991523   -0.940894
   9 H     1.0000    0     1.008   -7.430168    3.519586    0.304116
  10 H     1.0000    0     1.008   -6.731503    2.419929   -2.728958
  11 H     1.0000    0     1.008   -4.740344    4.680351   -1.253291
  12 C     6.0000    0    12.011   -5.913224   -1.525024    0.571964
  13 H     1.0000    0     1.008   -3.791505    1.516357    2.178836
  14 H     1.0000    0     1.008   -7.620956   -1.132279    1.650909
  15 H     1.0000    0     1.008   -6.484416   -2.259188   -1.267419
  16 H     1.0000    0     1.008   -4.879099   -2.996173    1.572651
  17 C     6.0000    0    12.011   -1.656492    0.737686   -3.352674
  18 C     6.0000    0    12.011    0.877110    0.304094   -4.236890
  19 H     1.0000    0     1.008   -3.143141    1.443141   -4.578411
  20 C     6.0000    0    12.011    2.904659    0.653657   -2.589523
  21 C     6.0000    0    12.011    5.204808   -0.086031   -3.793392
  22 S    16.0000    0    32.060    1.746172   -0.874668   -7.090372
  23 C     6.0000    0    12.011    4.864652   -0.942088   -6.189250
  24 H     1.0000    0     1.008    2.843295    2.409932   -1.216551
  25 H     1.0000    0     1.008    7.045824    0.111229   -2.933335
  26 H     1.0000    0     1.008    6.283281   -1.566752   -7.515457
  27 H     1.0000    0     1.008   -1.490405   -6.001552   -0.358355
  28 H     1.0000    0     1.008   -1.300825   -4.483315    4.543963
  29 H     1.0000    0     1.008    3.452947   -2.906425    5.477958
  30 O     8.0000    0    15.999    2.516471    4.680495    0.402186
  31 O     8.0000    0    15.999    1.016926    1.776014    3.057488
  32 C     6.0000    0    12.011    1.733095    4.035521    2.492155
  33 C     6.0000    0    12.011    1.610507    5.890542    4.641043
  34 H     1.0000    0     1.008    1.545455    7.817967    3.936307
  35 H     1.0000    0     1.008    3.310268    5.695906    5.793960
  36 H     1.0000    0     1.008   -0.001219    5.532428    5.866361
  37 H     1.0000    0     1.008    6.202306   -3.545983    1.282395
  38 H     1.0000    0     1.008    3.118441   -5.440743   -2.357646
* core charge reduced due to ECP

--------------------------------
INTERNAL COORDINATES (ANGSTROEM)
--------------------------------
 Ir     0   0   0     0.000000000000     0.00000000     0.00000000
 C      1   0   0     2.166745990243     0.00000000     0.00000000
 C      2   1   0     1.439342572006    69.54761711     0.00000000
 C      1   2   3     2.165414624495    64.31569586    80.90691215
 C      2   1   3     1.407836656422    71.08116150   240.97703707
 C      4   1   2     1.409124639146    71.24989090   279.49295216
 N      1   2   3     2.104231046904   100.65834163   245.57667377
 C      7   1   2     1.470657657149   123.66008893    82.98382317
 C      8   7   1     1.520431251230   113.54194631   155.06612695
 H      9   8   7     1.089155597666   108.87777178   189.66908398
 H      9   8   7     1.091095510675   112.94084836    71.60230109
 H      9   8   7     1.090330473142   111.98513411   308.19393073
 C      8   7   1     1.524242622958   109.42186951   280.68953312
 H      8   7   1     1.090939762369   104.67246620    36.90937799
 H     13   8   7     1.088959235684   109.60603298   176.22387795
 H     13   8   7     1.090743478416   111.30885392   295.39955603
 H     13   8   7     1.089004168639   112.00498773    57.16433944
 C      7   1   2     1.277562605136   113.78891665   263.99341547
 C     18   7   1     1.443293455458   115.12670371   352.53204491
 H     18   7   1     1.085800072744   122.74108122   175.00647483
 C     19  18   7     1.395116706790   119.64703568   329.93621330
 C     21  19  18     1.427770144736   110.13988218   175.02982654
 S     19  18   7     1.697326465288   126.95565408   144.08283564
 C     22  21  19     1.358572163160   113.10953718   359.80951863
 H     21  19  18     1.179724267245   117.84060934   319.23900153
 H     22  21  19     1.080303069129   123.70889584   176.51578895
 H     24  22  21     1.079485371565   128.07010398   178.30920566
 H      2   1   3     1.080572014986   123.90366045   120.18879854
 H      3   2   1     1.079753687859   126.67944792   122.06508257
 H      6   4   1     1.080632233013   125.75433328   243.95662540
 O     25  21  19     1.499999994657   174.27310816    16.88986787
 O      1   2   3     2.040467262497   142.18992321   340.13687469
 C     31  25  21     1.229284325692   110.87608945    81.63973563
 C     33  31  25     1.503630036112   120.87545666   170.50148653
 H     34  33  31     1.086534135194   110.77088464    22.56464734
 H     34  33  31     1.091731046590   108.99512244   264.06104467
 H     34  33  31     1.088008109425   111.76576206   145.70492836
 H      4   1   2     1.079556943206   124.94331390   158.23203714
 H      5   2   1     1.080036885436   126.16103827   240.12459058

---------------------------
INTERNAL COORDINATES (A.U.)
---------------------------
 Ir     0   0   0     0.000000000000     0.00000000     0.00000000
 C      1   0   0     4.094556523332     0.00000000     0.00000000
 C      2   1   0     2.719963273985    69.54761711     0.00000000
 C      1   2   3     4.092040606684    64.31569586    80.90691215
 C      2   1   3     2.660425721933    71.08116150   240.97703707
 C      4   1   2     2.662859656546    71.24989090   279.49295216
 N      1   2   3     3.976420401143   100.65834163   245.57667377
 C      7   1   2     2.779140208765   123.66008893    82.98382317
 C      8   7   1     2.873198670281   113.54194631   155.06612695
 H      9   8   7     2.058205796816   108.87777178   189.66908398
 H      9   8   7     2.061871701128   112.94084836    71.60230109
 H      9   8   7     2.060425989708   111.98513411   308.19393073
 C      8   7   1     2.880401119040   109.42186951   280.68953312
 H      8   7   1     2.061577379483   104.67246620    36.90937799
 H     13   8   7     2.057834726446   109.60603298   176.22387795
 H     13   8   7     2.061206456566   111.30885392   295.39955603
 H     13   8   7     2.057919637426   112.00498773    57.16433944
 C      7   1   2     2.414243442646   113.78891665   263.99341547
 C     18   7   1     2.727429361697   115.12670371   352.53204491
 H     18   7   1     2.051864773678   122.74108122   175.00647483
 C     19  18   7     2.636388500691   119.64703568   329.93621330
 C     21  19  18     2.698094555741   110.13988218   175.02982654
 S     19  18   7     3.207482179251   126.95565408   144.08283564
 C     22  21  19     2.567329321542   113.10953718   359.80951863
 H     21  19  18     2.229355778634   117.84060934   319.23900153
 H     22  21  19     2.041476942288   123.70889584   176.51578895
 H     24  22  21     2.039931717832   128.07010398   178.30920566
 H      2   1   3     2.041985176304   123.90366045   120.18879854
 H      3   2   1     2.040438762146   126.67944792   122.06508257
 H      6   4   1     2.042098971883   125.75433328   243.95662540
 O     25  21  19     2.834589190784   174.27310816    16.88986787
 O      1   2   3     3.855924311351   142.18992321   340.13687469
 C     31  25  21     2.323010716280   110.87608945    81.63973563
 C     33  31  25     2.841448974990   120.87545666   170.50148653
 H     34  33  31     2.053251950674   110.77088464    22.56464734
 H     34  33  31     2.063072689954   108.99512244   264.06104467
 H     34  33  31     2.056037358298   111.76576206   145.70492836
 H      4   1   2     2.040066968633   124.94331390   158.23203714
 H      5   2   1     2.040973928007   126.16103827   240.12459058

---------------------
BASIS SET INFORMATION
---------------------
There are 6 groups of distinct atoms

 Group   1 Type Ir  : 7s6p5d1f contracted to 6s3p2d1f pattern {211111/411/41/1}
 Group   2 Type C   : 8s4p1d contracted to 4s2p1d pattern {5111/31/1}
 Group   3 Type N   : 8s4p1d contracted to 4s2p1d pattern {5111/31/1}
 Group   4 Type H   : 4s contracted to 2s pattern {31}
 Group   5 Type S   : 10s7p1d contracted to 4s3p1d pattern {5311/511/1}
 Group   6 Type O   : 8s4p1d contracted to 4s2p1d pattern {5111/31/1}

Atom   0Ir   basis set group =>   1
Atom   1C    basis set group =>   2
Atom   2C    basis set group =>   2
Atom   3C    basis set group =>   2
Atom   4C    basis set group =>   2
Atom   5C    basis set group =>   2
Atom   6N    basis set group =>   3
Atom   7C    basis set group =>   2
Atom   8C    basis set group =>   2
Atom   9H    basis set group =>   4
Atom  10H    basis set group =>   4
Atom  11H    basis set group =>   4
Atom  12C    basis set group =>   2
Atom  13H    basis set group =>   4
Atom  14H    basis set group =>   4
Atom  15H    basis set group =>   4
Atom  16H    basis set group =>   4
Atom  17C    basis set group =>   2
Atom  18C    basis set group =>   2
Atom  19H    basis set group =>   4
Atom  20C    basis set group =>   2
Atom  21C    basis set group =>   2
Atom  22S    basis set group =>   5
Atom  23C    basis set group =>   2
Atom  24H    basis set group =>   4
Atom  25H    basis set group =>   4
Atom  26H    basis set group =>   4
Atom  27H    basis set group =>   4
Atom  28H    basis set group =>   4
Atom  29H    basis set group =>   4
Atom  30O    basis set group =>   6
Atom  31O    basis set group =>   6
Atom  32C    basis set group =>   2
Atom  33C    basis set group =>   2
Atom  34H    basis set group =>   4
Atom  35H    basis set group =>   4
Atom  36H    basis set group =>   4
Atom  37H    basis set group =>   4
Atom  38H    basis set group =>   4
---------------------------------
AUXILIARY/J BASIS SET INFORMATION
---------------------------------
There are 6 groups of distinct atoms

 Group   1 Type Ir  : 11s5p5d3f3g contracted to 8s5p5d2f3g pattern {41111111/11111/11111/21/111}
 Group   2 Type C   : 12s5p4d2f1g contracted to 6s4p3d1f1g pattern {711111/2111/211/2/1}
 Group   3 Type N   : 12s5p4d2f1g contracted to 6s4p3d1f1g pattern {711111/2111/211/2/1}
 Group   4 Type H   : 5s2p1d contracted to 3s1p1d pattern {311/2/1}
 Group   5 Type S   : 14s5p5d2f1g contracted to 8s4p3d1f1g pattern {71111111/2111/311/2/1}
 Group   6 Type O   : 12s5p4d2f1g contracted to 6s4p3d1f1g pattern {711111/2111/211/2/1}

Atom   0Ir   basis set group =>   1
Atom   1C    basis set group =>   2
Atom   2C    basis set group =>   2
Atom   3C    basis set group =>   2
Atom   4C    basis set group =>   2
Atom   5C    basis set group =>   2
Atom   6N    basis set group =>   3
Atom   7C    basis set group =>   2
Atom   8C    basis set group =>   2
Atom   9H    basis set group =>   4
Atom  10H    basis set group =>   4
Atom  11H    basis set group =>   4
Atom  12C    basis set group =>   2
Atom  13H    basis set group =>   4
Atom  14H    basis set group =>   4
Atom  15H    basis set group =>   4
Atom  16H    basis set group =>   4
Atom  17C    basis set group =>   2
Atom  18C    basis set group =>   2
Atom  19H    basis set group =>   4
Atom  20C    basis set group =>   2
Atom  21C    basis set group =>   2
Atom  22S    basis set group =>   5
Atom  23C    basis set group =>   2
Atom  24H    basis set group =>   4
Atom  25H    basis set group =>   4
Atom  26H    basis set group =>   4
Atom  27H    basis set group =>   4
Atom  28H    basis set group =>   4
Atom  29H    basis set group =>   4
Atom  30O    basis set group =>   6
Atom  31O    basis set group =>   6
Atom  32C    basis set group =>   2
Atom  33C    basis set group =>   2
Atom  34H    basis set group =>   4
Atom  35H    basis set group =>   4
Atom  36H    basis set group =>   4
Atom  37H    basis set group =>   4
Atom  38H    basis set group =>   4
-------------------------
ECP PARAMETER INFORMATION
-------------------------

 Group 1, Type Ir ECP Def2-ECP (replacing 60 core electrons, lmax=3)

Atom   0Ir   ECP group =>   1

------------------------------------------------------------------------------
                           ORCA GTO INTEGRAL CALCULATION
                           -- RI-GTO INTEGRALS CHOSEN --
------------------------------------------------------------------------------
------------------------------------------------------------------------------
                   ___                                                        
                  /   \      - P O W E R E D   B Y -                         
                 /     \                                                     
                 |  |  |   _    _      __       _____    __    __             
                 |  |  |  | |  | |    /  \     |  _  \  |  |  /  |          
                  \  \/   | |  | |   /    \    | | | |  |  | /  /          
                 / \  \   | |__| |  /  /\  \   | |_| |  |  |/  /          
                |  |  |   |  __  | /  /__\  \  |    /   |      \           
                |  |  |   | |  | | |   __   |  |    \   |  |\   \          
                \     /   | |  | | |  |  |  |  | |\  \  |  | \   \       
                 \___/    |_|  |_| |__|  |__|  |_| \__\ |__|  \__/        
                                                                              
                      - O R C A' S   B I G   F R I E N D -                    
                                      &                                       
                       - I N T E G R A L  F E E D E R -                       
                                                                              
 v1 FN, 2020, v2 2021                                                         
------------------------------------------------------------------------------


Reading SHARK input file reaction4-IEIP_ts_guess_scan_8-1_orca.SHARKINP.tmp ... ok
----------------------
SHARK INTEGRAL PACKAGE
----------------------

Number of atoms                             ...     39
Number of basis functions                   ...    358
Number of shells                            ...    184
Maximum angular momentum                    ...      3
Integral batch strategy                     ... SHARK/LIBINT Hybrid
RI-J (if used) integral strategy            ... SPLIT-RIJ (Revised 2003 algorithm where possible)
Printlevel                                  ...      1
Contraction scheme used                     ... SEGMENTED contraction
Coulomb Range Separation                    ... NOT USED
Exchange Range Separation                   ... NOT USED
Finite Nucleus Model                        ... NOT USED
Auxiliary Coulomb fitting basis             ... AVAILABLE
   # of basis functions in Aux-J            ...   1231
   # of shells in Aux-J                     ...    405
   Maximum angular momentum in Aux-J        ...      4
Auxiliary J/K fitting basis                 ... NOT available
Auxiliary Correlation fitting basis         ... NOT available
Auxiliary 'external' fitting basis          ... NOT available
Integral threshold                          ...     2.500000e-11
Primitive cut-off                           ...     2.500000e-12
Primitive pair pre-selection threshold      ...     2.500000e-12

Calculating pre-screening integrals         ... done (  0.1 sec) Dimension = 184
Organizing shell pair data                  ... done (  0.1 sec)
Shell pair information
Total number of shell pairs                 ...     17020
Shell pairs after pre-screening             ...     13025
Total number of primitive shell pairs       ...     60705
Primitive shell pairs kept                  ...     29325
          la=0 lb=0:   4990 shell pairs
          la=1 lb=0:   4265 shell pairs
          la=1 lb=1:    858 shell pairs
          la=2 lb=0:   1761 shell pairs
          la=2 lb=1:    793 shell pairs
          la=2 lb=2:    181 shell pairs
          la=3 lb=0:    113 shell pairs
          la=3 lb=1:     42 shell pairs
          la=3 lb=2:     21 shell pairs
          la=3 lb=3:      1 shell pairs

Calculating one electron integrals          ... done (  0.1 sec)
Calculating ECP integrals                   ... done (  0.8 sec)
Calculating RI/J V-Matrix + Cholesky decomp.... done (  0.1 sec)
Calculating Nuclear repulsion               ... done (  0.0 sec) ENN=   2045.614612624829 Eh

SHARK setup successfully completed in   1.4 seconds

Maximum memory used throughout the entire GTOINT-calculation: 91.6 MB
-------------------------------------------------------------------------------
                                 ORCA SCF
-------------------------------------------------------------------------------

------------
SCF SETTINGS
------------
Hamiltonian:
 Density Functional     Method          .... DFT(GTOs)
 Exchange Functional    Exchange        .... PBE
   PBE kappa parameter   XKappa         ....  1.024500
   PBE mue parameter    XMuePBE         ....  0.123457
 Correlation Functional Correlation     .... PBE
   PBE beta parameter  CBetaPBE         ....  0.030000
 LDA part of GGA corr.  LDAOpt          .... PW91-LDA
 Gradients option       PostSCFGGA      .... off
 Hybrid DFT is turned on
   Fraction HF Exchange ScalHFX         ....  0.420000
   Scaling of DF-GGA-X  ScalDFX         ....  0.580000
   Scaling of DF-GGA-C  ScalDFC         ....  1.000000
   Scaling of DF-LDA-C  ScalLDAC        ....  1.000000
   Perturbative correction              ....  0.000000
   Density functional embedding theory  .... OFF
 RI-approximation to the Coulomb term is turned on
   Number of AuxJ basis functions       .... 1231
   RIJ-ON(X) (HFX calculated with O(N)) .... on
   Number of AuxJ basis functions       .... 1231
   RIJ-COSX (HFX calculated with COS-X)).... on


General Settings:
 Integral files         IntName         .... reaction4-IEIP_ts_guess_scan_8-1_orca
 Hartree-Fock type      HFTyp           .... RHF
 Total Charge           Charge          ....    1
 Multiplicity           Mult            ....    1
 Number of Electrons    NEL             ....  164
 Basis Dimension        Dim             ....  358
 Nuclear Repulsion      ENuc            ....   2045.6146126248 Eh

Convergence Acceleration:
 DIIS                   CNVDIIS         .... on
   Start iteration      DIISMaxIt       ....    12
   Startup error        DIISStart       ....  0.200000
   # of expansion vecs  DIISMaxEq       ....     5
   Bias factor          DIISBfac        ....   1.050
   Max. coefficient     DIISMaxC        ....  10.000
 Trust-Rad. Augm. Hess. CNVTRAH         .... auto
   Auto Start mean grad. ratio tolernc. ....  1.125000
   Auto Start start iteration           ....    20
   Auto Start num. interpolation iter.  ....    10
   Max. Number of Micro iterations      ....    16
   Max. Number of Macro iterations      .... Maxiter - #DIIS iter
   Number of Davidson start vectors     ....     2
   Converg. threshold I  (grad. norm)   ....   1.000e-05
   Converg. threshold II (energy diff.) ....   1.000e-08
   Grad. Scal. Fac. for Micro threshold ....   0.100
   Minimum threshold for Micro iter.    ....   0.010
   NR start threshold (gradient norm)   ....   0.001
   Initial trust radius                 ....   0.400
   Minimum AH scaling param. (alpha)    ....   1.000
   Maximum AH scaling param. (alpha)    .... 1000.000
   Orbital update algorithm             .... Taylor
   White noise on init. David. guess    .... on
   Maximum white noise                  ....   0.010
   Quad. conv. algorithm                .... NR
   COSX micro iterations for RIJONX calc.... off
 SOSCF                  CNVSOSCF        .... off
 Level Shifting         CNVShift        .... on
   Level shift para.    LevelShift      ....    0.2500
   Turn off err/grad.   ShiftErr        ....    0.0010
 Zerner damping         CNVZerner       .... off
 Static damping         CNVDamp         .... on
   Fraction old density DampFac         ....    0.7000
   Max. Damping (<1)    DampMax         ....    0.9800
   Min. Damping (>=0)   DampMin         ....    0.0000
   Turn off err/grad.   DampErr         ....    0.1000
 Fernandez-Rico         CNVRico         .... off

SCF Procedure:
 Maximum # iterations   MaxIter         ....   250
 SCF integral mode      SCFMode         .... Direct
   Integral package                     .... SHARK and LIBINT hybrid scheme
 Reset frequency        DirectResetFreq ....    20
 Integral Threshold     Thresh          ....  2.500e-11 Eh
 Primitive CutOff       TCut            ....  2.500e-12 Eh

Convergence Tolerance:
 Convergence Check Mode ConvCheckMode   .... Total+1el-Energy
 Convergence forced     ConvForced      .... 0
 Energy Change          TolE            ....  1.000e-08 Eh
 1-El. energy change                    ....  1.000e-05 Eh
 DIIS Error             TolErr          ....  5.000e-07


Diagonalization of the overlap matrix:
Smallest eigenvalue                        ... 1.228e-03
Time for diagonalization                   ...    0.019 sec
Threshold for overlap eigenvalues          ... 1.000e-08
Number of eigenvalues below threshold      ... 0
Time for construction of square roots      ...    0.007 sec
Total time needed                          ...    0.027 sec

--------------------
INITIAL GUESS: HCORE
--------------------
                      -----------------
                      INTIAL GUESS DONE 
                      -----------------
-------------------
DFT GRID GENERATION
-------------------

General Integration Accuracy     IntAcc      ... 4.159
Radial Grid Type                 RadialGrid  ... OptM3 with GC (2021)
Angular Grid (max. ang.)         AngularGrid ... 3 (Lebedev-194)
Angular grid pruning method      GridPruning ... 4 (adaptive)
Weight generation scheme         WeightScheme... Becke
Basis function cutoff            BFCut       ... 1.0000e-11
Integration weight cutoff        WCut        ... 1.0000e-14
Angular grids for H and He will be reduced by one unit
Partially contracted basis set               ... off
Rotationally invariant grid construction     ... off

Total number of grid points                  ...    93241
Total number of batches                      ...     1476
Average number of points per batch           ...       63
Average number of grid points per atom       ...     2391
Time for grid setup =    1.721 sec

--------------------
COSX GRID GENERATION
--------------------

GRIDX 1
-------
General Integration Accuracy     IntAcc      ... 3.816
Radial Grid Type                 RadialGrid  ... OptM3 with GC (2021)
Angular Grid (max. ang.)         AngularGrid ... 1 (Lebedev-50)
Angular grid pruning method      GridPruning ... 4 (adaptive)
Weight generation scheme         WeightScheme... Becke
Basis function cutoff            BFCut       ... 1.0000e-11
Integration weight cutoff        WCut        ... 1.0000e-14
Angular grids for H and He will be reduced by one unit
Partially contracted basis set               ... on
Rotationally invariant grid construction     ... off

Total number of grid points                  ...    23151
Total number of batches                      ...      381
Average number of points per batch           ...       60
Average number of grid points per atom       ...      594
UseSFitting                                  ... on

GRIDX 2
-------
General Integration Accuracy     IntAcc      ... 4.020
Radial Grid Type                 RadialGrid  ... OptM3 with GC (2021)
Angular Grid (max. ang.)         AngularGrid ... 2 (Lebedev-110)
Angular grid pruning method      GridPruning ... 4 (adaptive)
Weight generation scheme         WeightScheme... Becke
Basis function cutoff            BFCut       ... 1.0000e-11
Integration weight cutoff        WCut        ... 1.0000e-14
Angular grids for H and He will be reduced by one unit
Partially contracted basis set               ... on
Rotationally invariant grid construction     ... off

Total number of grid points                  ...    50273
Total number of batches                      ...      806
Average number of points per batch           ...       62
Average number of grid points per atom       ...     1289
UseSFitting                                  ... on

GRIDX 3
-------
General Integration Accuracy     IntAcc      ... 4.338
Radial Grid Type                 RadialGrid  ... OptM3 with GC (2021)
Angular Grid (max. ang.)         AngularGrid ... 3 (Lebedev-194)
Angular grid pruning method      GridPruning ... 4 (adaptive)
Weight generation scheme         WeightScheme... Becke
Basis function cutoff            BFCut       ... 1.0000e-11
Integration weight cutoff        WCut        ... 1.0000e-14
Angular grids for H and He will be reduced by one unit
Partially contracted basis set               ... on
Rotationally invariant grid construction     ... off

Total number of grid points                  ...   108696
Total number of batches                      ...     1716
Average number of points per batch           ...       63
Average number of grid points per atom       ...     2787
UseSFitting                                  ... on

Time for X-Grid setup             =    4.598 sec

--------------
SCF ITERATIONS
--------------
ITER       Energy         Delta-E        Max-DP      RMS-DP      [F,P]     Damp
               ***  Starting incremental Fock matrix formation  ***
  0   -850.3513614890   0.00000000000020.18900747  0.14883843  2.6885859 0.7000
  1  -1088.7697155587-238.41835406974210.59781586  0.13506779  1.4758151 0.7000
  2  -1157.7309429022 -68.961227343469 5.61545852  0.07062336  1.0618855 0.7000
  3  -1183.7524307828 -26.021487880575 3.90047323  0.04709057  0.7745025 0.7000
  4  -1204.4457579148 -20.693327132049 2.74174582  0.03912262  0.4607446 0.7000
  5  -1218.2952730361 -13.849515121224 2.49988013  0.03352858  0.3732880 0.7000
  6  -1228.1954191217  -9.900146085662 1.74188018  0.02981427  0.3665181 0.7000
  7  -1236.1529675156  -7.957548393881 1.95719176  0.02694182  0.3305144 0.7000
  8  -1242.1377915869  -5.984824071288 1.63445221  0.02572948  0.3848543 0.7000
  9  -1247.5827236667  -5.444932079795 1.65678392  0.02435045  0.3491441 0.7000
 10  -1250.8782796318  -3.295555965087 1.54950642  0.02449236  0.3860851 0.7000
 11  -1253.8261939666  -2.947914334786 1.41826153  0.02262214  0.3472881 0.7000
                               ***Turning on DIIS***
 12  -1256.4038748712  -2.577680904667 1.53380589  0.02418677  0.3785570 0.7000
 13  -1257.5854344411  -1.181559569833 1.30842380  0.01964205  0.3411803 0.7000
 14  -1267.2607408420  -9.675306400905 0.93370285  0.01387556  0.2243065 0.7000
 15  -1273.9662987104  -6.705557868404 0.65352047  0.00981286  0.1677851 0.7000
 16  -1278.4751208317  -4.508822121297 1.50613807  0.02311353  0.0991502 0.0000
 17  -1288.2267490341  -9.751628202400 0.01943887  0.00040656  0.1003437 0.7000
 18  -1288.2787096602  -0.051960626131 0.05886632  0.00153897  0.0788558 0.0000
 19  -1288.4135105442  -0.134800883996 0.06009606  0.00090156  0.0235640 0.0000
               *** Restarting incremental Fock matrix formation ***
                                   *** Resetting DIIS ***
 20  -1288.4377317610  -0.024221216779 0.05885518  0.00082794  0.0243817 0.0000
 21  -1288.4395802892  -0.001848528235 0.02803053  0.00032743  0.0298812 0.0000
 22  -1288.4472918280  -0.007711538762 0.00560479  0.00013779  0.0078795 0.0000
 23  -1288.4480654031  -0.000773575116 0.00687422  0.00006919  0.0040002 0.0000
 24  -1288.4482431118  -0.000177708745 0.00197572  0.00003576  0.0011364 0.0000
 25  -1288.4482789238  -0.000035812007 0.00192685  0.00003424  0.0005003 0.0000
               *** Restarting incremental Fock matrix formation ***
                                   *** Resetting DIIS ***
 26  -1288.4493469807  -0.001068056835 0.00418515  0.00008488  0.0006850 0.0000
 27  -1288.4493622973  -0.000015316634 0.00087167  0.00001043  0.0010162 0.0000
 28  -1288.4493668691  -0.000004571819 0.00030450  0.00000618  0.0002316 0.0000
 29  -1288.4493674524  -0.000000583237 0.00016964  0.00000207  0.0000840 0.0000
 30  -1288.4493675034  -0.000000051031 0.00017337  0.00000158  0.0000762 0.0000
 31  -1288.4493675418  -0.000000038366 0.00006853  0.00000075  0.0000483 0.0000
 32  -1288.4493675689  -0.000000027094 0.00002773  0.00000037  0.0000145 0.0000
 33  -1288.4493675671   0.000000001731 0.00001259  0.00000019  0.0000067 0.0000
                 **** Energy Check signals convergence ****

               *****************************************************
               *                     SUCCESS                       *
               *           SCF CONVERGED AFTER  34 CYCLES          *
               *****************************************************

Old exchange energy                            =    -59.662953328 Eh
New exchange energy                            =    -59.662877247 Eh
Exchange energy change after final integration =      0.000076081 Eh
Total energy after final integration           =  -1288.449291480 Eh
Final COS-X integration done in                =    59.388 sec

----------------
TOTAL SCF ENERGY
----------------

Total Energy       :        -1288.44929148 Eh          -35060.48766 eV

Components:
Nuclear Repulsion  :         2045.61461262 Eh           55664.00351 eV
Electronic Energy  :        -3334.06390410 Eh          -90724.49117 eV
One Electron Energy:        -5846.64241564 Eh         -159095.22837 eV
Two Electron Energy:         2512.57851154 Eh           68370.73720 eV
Max COSX asymmetry :            0.00002403 Eh               0.00065 eV

Virial components:
Potential Energy   :        -2501.60474615 Eh          -68072.12586 eV
Kinetic Energy     :         1213.15545467 Eh           33011.63820 eV
Virial Ratio       :            2.06206446


DFT components:
N(Alpha)           :       82.000669132111 electrons
N(Beta)            :       82.000669132111 electrons
N(Total)           :      164.001338264221 electrons
E(X)               :      -79.600727402196 Eh       
E(C)               :       -7.458388067657 Eh       
E(XC)              :      -87.059115469853 Eh       
DFET-embed. en.    :        0.000000000000 Eh       

---------------
SCF CONVERGENCE
---------------

  Last Energy change         ...    5.8699e-09  Tolerance :   1.0000e-08
  Last MAX-Density change    ...    0.0000e+00  Tolerance :   1.0000e-07
  Last RMS-Density change    ...    0.0000e+00  Tolerance :   5.0000e-09
  Last DIIS Error            ...    1.7605e-06  Tolerance :   5.0000e-07

             **** THE GBW FILE WAS UPDATED (reaction4-IEIP_ts_guess_scan_8-1_orca.gbw) ****
             **** DENSITY reaction4-IEIP_ts_guess_scan_8-1_orca.scfp WAS UPDATED ****
             **** ENERGY FILE WAS UPDATED (reaction4-IEIP_ts_guess_scan_8-1_orca.en.tmp) ****
             **** THE GBW FILE WAS UPDATED (reaction4-IEIP_ts_guess_scan_8-1_orca.gbw) ****
             **** DENSITY reaction4-IEIP_ts_guess_scan_8-1_orca.scfp WAS UPDATED ****
----------------
ORBITAL ENERGIES
----------------

  NO   OCC          E(Eh)            E(eV) 
   0   2.0000     -89.769551     -2442.7537 
   1   2.0000     -19.621017      -533.9150 
   2   2.0000     -19.588905      -533.0412 
   3   2.0000     -14.841477      -403.8571 
   4   2.0000     -10.678290      -290.5710 
   5   2.0000     -10.661595      -290.1167 
   6   2.0000     -10.637978      -289.4741 
   7   2.0000     -10.633851      -289.3618 
   8   2.0000     -10.631190      -289.2894 
   9   2.0000     -10.627216      -289.1813 
  10   2.0000     -10.626113      -289.1512 
  11   2.0000     -10.626036      -289.1491 
  12   2.0000     -10.615519      -288.8629 
  13   2.0000     -10.613828      -288.8169 
  14   2.0000     -10.591275      -288.2032 
  15   2.0000     -10.587772      -288.1079 
  16   2.0000     -10.556702      -287.2625 
  17   2.0000     -10.552034      -287.1354 
  18   2.0000     -10.532125      -286.5937 
  19   2.0000      -8.408919      -228.8183 
  20   2.0000      -6.298874      -171.4011 
  21   2.0000      -6.295224      -171.3018 
  22   2.0000      -6.293838      -171.2640 
  23   2.0000      -4.026594      -109.5692 
  24   2.0000      -2.345074       -63.8127 
  25   2.0000      -2.311761       -62.9062 
  26   2.0000      -2.310588       -62.8743 
  27   2.0000      -1.303614       -35.4731 
  28   2.0000      -1.217415       -33.1276 
  29   2.0000      -1.206113       -32.8200 
  30   2.0000      -1.168950       -31.8087 
  31   2.0000      -1.133012       -30.8308 
  32   2.0000      -1.029610       -28.0171 
  33   2.0000      -0.983210       -26.7545 
  34   2.0000      -0.974870       -26.5276 
  35   2.0000      -0.972285       -26.4572 
  36   2.0000      -0.964459       -26.2443 
  37   2.0000      -0.925348       -25.1800 
  38   2.0000      -0.903217       -24.5778 
  39   2.0000      -0.876853       -23.8604 
  40   2.0000      -0.801946       -21.8221 
  41   2.0000      -0.786748       -21.4085 
  42   2.0000      -0.785230       -21.3672 
  43   2.0000      -0.783321       -21.3152 
  44   2.0000      -0.769504       -20.9393 
  45   2.0000      -0.756668       -20.5900 
  46   2.0000      -0.743956       -20.2441 
  47   2.0000      -0.725792       -19.7498 
  48   2.0000      -0.693463       -18.8701 
  49   2.0000      -0.674117       -18.3437 
  50   2.0000      -0.666475       -18.1357 
  51   2.0000      -0.651024       -17.7153 
  52   2.0000      -0.646140       -17.5824 
  53   2.0000      -0.638384       -17.3713 
  54   2.0000      -0.634544       -17.2668 
  55   2.0000      -0.627834       -17.0842 
  56   2.0000      -0.622875       -16.9493 
  57   2.0000      -0.615197       -16.7403 
  58   2.0000      -0.605056       -16.4644 
  59   2.0000      -0.604579       -16.4514 
  60   2.0000      -0.601280       -16.3617 
  61   2.0000      -0.592142       -16.1130 
  62   2.0000      -0.583157       -15.8685 
  63   2.0000      -0.576545       -15.6886 
  64   2.0000      -0.565208       -15.3801 
  65   2.0000      -0.555209       -15.1080 
  66   2.0000      -0.552514       -15.0347 
  67   2.0000      -0.548697       -14.9308 
  68   2.0000      -0.541346       -14.7308 
  69   2.0000      -0.536652       -14.6030 
  70   2.0000      -0.528441       -14.3796 
  71   2.0000      -0.520138       -14.1537 
  72   2.0000      -0.516160       -14.0454 
  73   2.0000      -0.501838       -13.6557 
  74   2.0000      -0.487585       -13.2679 
  75   2.0000      -0.482505       -13.1296 
  76   2.0000      -0.474816       -12.9204 
  77   2.0000      -0.446329       -12.1452 
  78   2.0000      -0.442349       -12.0369 
  79   2.0000      -0.425504       -11.5785 
  80   2.0000      -0.416210       -11.3256 
  81   2.0000      -0.400435       -10.8964 
  82   0.0000      -0.205811        -5.6004 
  83   0.0000      -0.152237        -4.1426 
  84   0.0000      -0.141585        -3.8527 
  85   0.0000      -0.098633        -2.6839 
  86   0.0000      -0.078352        -2.1321 
  87   0.0000      -0.068474        -1.8633 
  88   0.0000      -0.060243        -1.6393 
  89   0.0000      -0.051561        -1.4030 
  90   0.0000      -0.046320        -1.2604 
  91   0.0000      -0.032759        -0.8914 
[...]

----------------------
LOEWDIN ATOMIC CHARGES
----------------------
   0 Ir:   -0.244225
   1 C :   -0.045096
   2 C :   -0.077969
   3 C :   -0.070246
   4 C :   -0.054358
   5 C :   -0.017758
   6 N :    0.001787
   7 C :   -0.070161
   8 C :   -0.363196
   9 H :    0.157073
  10 H :    0.132824
  11 H :    0.146802
  12 C :   -0.343314
  13 H :    0.157341
  14 H :    0.152590
  15 H :    0.137135
  16 H :    0.133690
  17 C :    0.031886
  18 C :   -0.170475
  19 H :    0.162834
  20 C :   -0.204961
  21 C :   -0.122404
  22 S :    0.491975
  23 C :   -0.263304
  24 H :    0.304519
  25 H :    0.164159
  26 H :    0.169419
  27 H :    0.183443
  28 H :    0.183510
  29 H :    0.192296
  30 O :   -0.271823
  31 O :   -0.205969
  32 C :    0.149873
  33 C :   -0.375806
  34 H :    0.159339
  35 H :    0.166934
  36 H :    0.152818
  37 H :    0.184294
  38 H :    0.184523

-------------------------------
LOEWDIN REDUCED ORBITAL CHARGES
-------------------------------
  0 Irs       :     2.446818  s :     2.446818
      pz      :     2.247466  p :     6.762289
      px      :     2.246131
      py      :     2.268692
      dz2     :     1.820549  d :     7.944845
      dxz     :     1.711987
      dyz     :     1.315235
      dx2y2   :     1.618425
      dxy     :     1.478649
      f0      :     0.011399  f :     0.090274
      f+1     :     0.003947
      f-1     :     0.014176
      f+2     :     0.016547
      f-2     :     0.016621
      f+3     :     0.011016
      f-3     :     0.016567
  1 C s       :     2.875319  s :     2.875319
      pz      :     1.049642  p :     3.065709
      px      :     1.084259
      py      :     0.931808
      dz2     :     0.026287  d :     0.104068
      dxz     :     0.026661
      dyz     :     0.017321
      dx2y2   :     0.018524
      dxy     :     0.015276
  2 C s       :     2.874910  s :     2.874910
      pz      :     1.043814  p :     3.102686
      px      :     1.079838
      py      :     0.979033
      dz2     :     0.025061  d :     0.100373
      dxz     :     0.027643
      dyz     :     0.017111
      dx2y2   :     0.017709
      dxy     :     0.012849
  3 C s       :     2.872749  s :     2.872749
      pz      :     1.032789  p :     3.096672
      px      :     1.080102
      py      :     0.983782
      dz2     :     0.023427  d :     0.100825
      dxz     :     0.031747
      dyz     :     0.015690
      dx2y2   :     0.015669
      dxy     :     0.014292
  4 C s       :     2.874259  s :     2.874259
      pz      :     1.089206  p :     3.077743
      px      :     1.038630
      py      :     0.949907
      dz2     :     0.022365  d :     0.102356
      dxz     :     0.030806
      dyz     :     0.013023
      dx2y2   :     0.018170
      dxy     :     0.017991
  5 C s       :     2.878112  s :     2.878112
      pz      :     1.057874  p :     3.034775
      px      :     1.035377
      py      :     0.941524
      dz2     :     0.023996  d :     0.104871
      dxz     :     0.030516
      dyz     :     0.015977
      dx2y2   :     0.015660
      dxy     :     0.018722
  6 N s       :     3.123968  s :     3.123968
      pz      :     1.260116  p :     3.775410
      px      :     1.292822
      py      :     1.222471
      dz2     :     0.030768  d :     0.098835
      dxz     :     0.027628
      dyz     :     0.019133
      dx2y2   :     0.011447
      dxy     :     0.009858
  7 C s       :     2.862517  s :     2.862517
      pz      :     1.059546  p :     3.073371
      px      :     0.939312
      py      :     1.074513
      dz2     :     0.025254  d :     0.134273
      dxz     :     0.029469
      dyz     :     0.017085
      dx2y2   :     0.029315
      dxy     :     0.033150
  8 C s       :     2.953273  s :     2.953273
      pz      :     1.133444  p :     3.342485
      px      :     1.124326
      py      :     1.084715
      dz2     :     0.012865  d :     0.067438
      dxz     :     0.017797
      dyz     :     0.008546
      dx2y2   :     0.009350
      dxy     :     0.018879
  9 H s       :     0.842927  s :     0.842927
 10 H s       :     0.867176  s :     0.867176
 11 H s       :     0.853198  s :     0.853198
 12 C s       :     2.953337  s :     2.953337
      pz      :     1.142668  p :     3.322040
      px      :     1.109535
      py      :     1.069836
      dz2     :     0.011588  d :     0.067937
      dxz     :     0.014209
      dyz     :     0.012716
      dx2y2   :     0.011179
      dxy     :     0.018244
 13 H s       :     0.842659  s :     0.842659
 14 H s       :     0.847410  s :     0.847410
 15 H s       :     0.862865  s :     0.862865
 16 H s       :     0.866310  s :     0.866310
 17 C s       :     2.877331  s :     2.877331
      pz      :     1.018665  p :     2.950832
      px      :     1.060052
      py      :     0.872115
      dz2     :     0.040452  d :     0.139950
      dxz     :     0.050413
      dyz     :     0.025006
      dx2y2   :     0.011830
      dxy     :     0.012248
 18 C s       :     2.895955  s :     2.895955
      pz      :     1.046762  p :     3.162117
      px      :     1.090583
      py      :     1.024773
      dz2     :     0.032124  d :     0.112402
      dxz     :     0.031966
      dyz     :     0.017682
      dx2y2   :     0.018116
      dxy     :     0.012515
 19 H s       :     0.837166  s :     0.837166
 20 C s       :     2.897979  s :     2.897979
      pz      :     1.112273  p :     3.213475
      px      :     1.051587
      py      :     1.049615
      dz2     :     0.011640  d :     0.093508
      dxz     :     0.035588
      dyz     :     0.010951
      dx2y2   :     0.018514
      dxy     :     0.016814
 21 C s       :     2.897358  s :     2.897358
      pz      :     1.073392  p :     3.130851
      px      :     1.087639
      py      :     0.969820
      dz2     :     0.026536  d :     0.094195
      dxz     :     0.030115
      dyz     :     0.014141
      dx2y2   :     0.014917
      dxy     :     0.008487
 22 S s       :     5.501085  s :     5.501085
      pz      :     3.277319  p :     9.852447
      px      :     3.083137
      py      :     3.491991
      dz2     :     0.042780  d :     0.154493
      dxz     :     0.034391
      dyz     :     0.021619
      dx2y2   :     0.031367
      dxy     :     0.024336
 23 C s       :     2.964087  s :     2.964087
      pz      :     1.117190  p :     3.213811
      px      :     1.020856
      py      :     1.075765
      dz2     :     0.021993  d :     0.085406
      dxz     :     0.029186
      dyz     :     0.012403
      dx2y2   :     0.012384
      dxy     :     0.009441
 24 H s       :     0.695481  s :     0.695481
 25 H s       :     0.835841  s :     0.835841
 26 H s       :     0.830581  s :     0.830581
 27 H s       :     0.816557  s :     0.816557
 28 H s       :     0.816490  s :     0.816490
 29 H s       :     0.807704  s :     0.807704
 30 O s       :     3.510970  s :     3.510970
      pz      :     1.466345  p :     4.706429
      px      :     1.527248
      py      :     1.712836
      dz2     :     0.018047  d :     0.054424
      dxz     :     0.013405
      dyz     :     0.015545
      dx2y2   :     0.004056
      dxy     :     0.003371
 31 O s       :     3.447054  s :     3.447054
      pz      :     1.693776  p :     4.699799
      px      :     1.629102
      py      :     1.376921
      dz2     :     0.009332  d :     0.059115
      dxz     :     0.003499
      dyz     :     0.016132
      dx2y2   :     0.015709
      dxy     :     0.014443
 32 C s       :     2.814309  s :     2.814309
      pz      :     1.003683  p :     2.713615
      px      :     0.757286
      py      :     0.952645
      dz2     :     0.076028  d :     0.322204
      dxz     :     0.044998
      dyz     :     0.107294
      dx2y2   :     0.045430
      dxy     :     0.048454
 33 C s       :     2.959940  s :     2.959940
      pz      :     1.096798  p :     3.353179
      px      :     1.149587
      py      :     1.106794
      dz2     :     0.005611  d :     0.062686
      dxz     :     0.017352
      dyz     :     0.019259
      dx2y2   :     0.018181
      dxy     :     0.002284
 34 H s       :     0.840661  s :     0.840661
 35 H s       :     0.833066  s :     0.833066
 36 H s       :     0.847182  s :     0.847182
 37 H s       :     0.815706  s :     0.815706
 38 H s       :     0.815477  s :     0.815477


                      *****************************
                      * MAYER POPULATION ANALYSIS *
                      *****************************

  NA   - Mulliken gross atomic population
  ZA   - Total nuclear charge
  QA   - Mulliken gross atomic charge
  VA   - Mayer's total valence
  BVA  - Mayer's bonded valence
  FA   - Mayer's free valence

  ATOM       NA         ZA         QA         VA         BVA        FA
  0 Ir    16.3939    17.0000     0.6061     3.7412     3.7412    -0.0000
  1 C      6.2175     6.0000    -0.2175     3.7088     3.7088     0.0000
  2 C      6.2758     6.0000    -0.2758     3.7388     3.7388     0.0000
  3 C      6.2496     6.0000    -0.2496     3.7385     3.7385    -0.0000
  4 C      6.2413     6.0000    -0.2413     3.7207     3.7207     0.0000
  5 C      6.1608     6.0000    -0.1608     3.6966     3.6966     0.0000
  6 N      7.4237     7.0000    -0.4237     3.2168     3.2168     0.0000
  7 C      6.1271     6.0000    -0.1271     3.6988     3.6988     0.0000
  8 C      6.6865     6.0000    -0.6865     3.6854     3.6854     0.0000
  9 H      0.7290     1.0000     0.2710     0.8969     0.8969     0.0000
 10 H      0.7762     1.0000     0.2238     0.9107     0.9107     0.0000
 11 H      0.7394     1.0000     0.2606     0.8977     0.8977     0.0000
 12 C      6.6354     6.0000    -0.6354     3.6722     3.6722    -0.0000
 13 H      0.7160     1.0000     0.2840     0.8744     0.8744    -0.0000
 14 H      0.7371     1.0000     0.2629     0.8973     0.8973     0.0000
 15 H      0.7691     1.0000     0.2309     0.9097     0.9097    -0.0000
 16 H      0.7674     1.0000     0.2326     0.9061     0.9061     0.0000
 17 C      5.9271     6.0000     0.0729     3.6391     3.6391    -0.0000
 18 C      6.1505     6.0000    -0.1505     3.7090     3.7090     0.0000
 19 H      0.7095     1.0000     0.2905     0.8862     0.8862     0.0000
 20 C      6.5212     6.0000    -0.5212     3.4948     3.4948     0.0000
 21 C      6.1061     6.0000    -0.1061     3.7391     3.7391     0.0000
 22 S     15.6736    16.0000     0.3264     2.5996     2.5996     0.0000
 23 C      6.4343     6.0000    -0.4343     3.7473     3.7473     0.0000
 24 H      0.5114     1.0000     0.4886     0.7505     0.7505     0.0000
 25 H      0.7310     1.0000     0.2690     0.9022     0.9022    -0.0000
 26 H      0.7004     1.0000     0.2996     0.8965     0.8965     0.0000
 27 H      0.7117     1.0000     0.2883     0.9034     0.9034    -0.0000
 28 H      0.7116     1.0000     0.2884     0.9067     0.9067     0.0000
 29 H      0.6955     1.0000     0.3045     0.8925     0.8925    -0.0000
 30 O      8.4717     8.0000    -0.4717     2.1440     2.1440     0.0000
 31 O      8.5359     8.0000    -0.5359     2.0768     2.0768    -0.0000
 32 C      5.3860     6.0000     0.6140     3.9238     3.9238     0.0000
 33 C      6.7441     6.0000    -0.7441     3.6689     3.6689    -0.0000
 34 H      0.7313     1.0000     0.2687     0.8956     0.8956    -0.0000
 35 H      0.7338     1.0000     0.2662     0.8954     0.8954    -0.0000
 36 H      0.7476     1.0000     0.2524     0.9012     0.9012    -0.0000
 37 H      0.7123     1.0000     0.2877     0.9055     0.9055     0.0000
 38 H      0.7077     1.0000     0.2923     0.9039     0.9039    -0.0000

  Mayer bond orders larger than 0.100000
B(  0-Ir,  1-C ) :   0.4167 B(  0-Ir,  2-C ) :   0.4801 B(  0-Ir,  3-C ) :   0.4635 
B(  0-Ir,  4-C ) :   0.4412 B(  0-Ir,  5-C ) :   0.3958 B(  0-Ir,  6-N ) :   0.4602 
B(  0-Ir, 20-C ) :   0.3444 B(  0-Ir, 31-O ) :   0.5714 B(  1-C ,  2-C ) :   1.1264 
B(  1-C ,  4-C ) :   1.2447 B(  1-C , 27-H ) :   0.9051 B(  2-C ,  5-C ) :   1.1563 
B(  2-C , 28-H ) :   0.9091 B(  3-C ,  4-C ) :   1.1113 B(  3-C ,  5-C ) :   1.2176 
B(  3-C , 37-H ) :   0.9087 B(  4-C , 38-H ) :   0.9003 B(  5-C , 29-H ) :   0.8985 
B(  6-N ,  7-C ) :   0.8922 B(  6-N , 17-C ) :   1.6778 B(  7-C ,  8-C ) :   0.9909 
B(  7-C , 12-C ) :   0.9674 B(  7-C , 13-H ) :   0.8721 B(  8-C ,  9-H ) :   0.9041 
B(  8-C , 10-H ) :   0.9132 B(  8-C , 11-H ) :   0.9087 B( 12-C , 14-H ) :   0.9068 
B( 12-C , 15-H ) :   0.9156 B( 12-C , 16-H ) :   0.9120 B( 17-C , 18-C ) :   1.0729 
B( 17-C , 19-H ) :   0.8752 B( 18-C , 20-C ) :   1.2523 B( 18-C , 22-S ) :   1.2579 
B( 20-C , 21-C ) :   1.2510 B( 20-C , 24-H ) :   0.4619 B( 21-C , 23-C ) :   1.5567 
B( 21-C , 25-H ) :   0.9029 B( 22-S , 23-C ) :   1.1998 B( 23-C , 26-H ) :   0.8911 
B( 24-H , 30-O ) :   0.2562 B( 30-O , 32-C ) :   1.6903 B( 31-O , 32-C ) :   1.2849 
B( 32-C , 33-C ) :   0.9443 B( 33-C , 34-H ) :   0.9052 B( 33-C , 35-H ) :   0.8989 
B( 33-C , 36-H ) :   0.9097 


------------------
HIRSHFELD ANALYSIS
------------------

Total integrated alpha density =     82.000445290
Total integrated beta density  =     82.000445290

  ATOM     CHARGE      SPIN    
   0 Ir   0.191787    0.000000
   1 C    0.003967    0.000000
   2 C   -0.006576    0.000000
   3 C   -0.007615    0.000000
   4 C   -0.004113    0.000000
   5 C    0.020289    0.000000
   6 N   -0.062917    0.000000
   7 C    0.053472    0.000000
   8 C   -0.071124    0.000000
   9 H    0.053871    0.000000
  10 H    0.037426    0.000000
  11 H    0.043564    0.000000
  12 C   -0.070468    0.000000
  13 H    0.046526    0.000000
  14 H    0.051368    0.000000
  15 H    0.036655    0.000000
  16 H    0.030693    0.000000
  17 C    0.099294    0.000000
  18 C    0.004516    0.000000
  19 H    0.079326    0.000000
  20 C   -0.074133    0.000000
  21 C   -0.022825    0.000000
  22 S    0.142148    0.000000
  23 C   -0.026431    0.000000
  24 H    0.069638    0.000000
  25 H    0.071499    0.000000
  26 H    0.079012    0.000000
  27 H    0.082415    0.000000
  28 H    0.082952    0.000000
  29 H    0.093800    0.000000
  30 O   -0.262730    0.000000
  31 O   -0.258918    0.000000
  32 C    0.239531    0.000000
  33 C   -0.067471    0.000000
  34 H    0.054003    0.000000
  35 H    0.059040    0.000000
  36 H    0.047887    0.000000
  37 H    0.083094    0.000000
  38 H    0.076655    0.000000

  TOTAL   0.999109    0.000000

-------
TIMINGS
-------

Total SCF time: 0 days 0 hours 5 min 13 sec 

Total time                  ....     313.954 sec
Sum of individual times     ....     313.266 sec  ( 99.8%)

Fock matrix formation       ....     304.584 sec  ( 97.0%)
  Split-RI-J                ....      23.697 sec  (  7.8% of F)
  Chain of spheres X        ....     264.124 sec  ( 86.7% of F)
  XC integration            ....      16.724 sec  (  5.5% of F)
    Basis function eval.    ....       7.757 sec  ( 46.4% of XC)
    Density eval.           ....       4.377 sec  ( 26.2% of XC)
    XC-Functional eval.     ....       1.223 sec  (  7.3% of XC)
    XC-Potential eval.      ....       2.742 sec  ( 16.4% of XC)
Diagonalization             ....       0.251 sec  (  0.1%)
Density matrix formation    ....       0.040 sec  (  0.0%)
Population analysis         ....       1.441 sec  (  0.5%)
Initial guess               ....       0.041 sec  (  0.0%)
Orbital Transformation      ....       0.000 sec  (  0.0%)
Orbital Orthonormalization  ....       0.030 sec  (  0.0%)
DIIS solution               ....       0.104 sec  (  0.0%)
Grid generation             ....       6.804 sec  (  2.2%)

Maximum memory used throughout the entire SCF-calculation: 173.8 MB


-------------------------------------------------------------------------------
                          DFT DISPERSION CORRECTION                            
                                                                               
                              DFTD3 V3.1  Rev 1                                
                          USING Becke-Johnson damping                          
-------------------------------------------------------------------------------
The PBEh-3c composite method is recognized
Using three-body term ABC
Active option DFTDOPT                   ...         4   

molecular C6(AA) [au] = 19547.352037 


            DFT-D V3
 parameters
 s6 scaling factor         :     1.0000 
 a1 scaling factor         :     0.4860 
 s8 scaling factor         :     0.0000 
 a2 scaling factor         :     4.5000 
 Damping factor alpha9(ATM):    16.0000 
 ad hoc parameters k1-k3   :    16.0000     1.3333    -4.0000 

 Edisp/kcal,au: -19.419432649095  -0.030946832487 
 E6   /kcal   : -19.767189507 
 E8   /kcal   :  -0.000000000 
 E6(ABC)      :   0.347756858 
 % E8         :   0.000000000 
 % E6(ABC)    :  -1.790767341 

-------------------------   ----------------
Dispersion correction           -0.030946832
-------------------------   ----------------

 ** NOTE ** -> element ir will be treated as co
NOTIFICATION: Different basis set in ORCA and otool_gcp:
ORCA: 358  gCP: 357 
If you are NOT using ECPs, check your basis set inputs!
------------------   -----------------
gCP correction             0.079989424
------------------   -----------------

-------------------------   --------------------
FINAL SINGLE POINT ENERGY     -1288.400585179248
-------------------------   --------------------

                                *** OPTIMIZATION RUN DONE ***

                            ***************************************
                            *     ORCA property calculations      *
                            ***************************************

                                    ---------------------
                                    Active property flags
                                    ---------------------
   (+) Dipole Moment


------------------------------------------------------------------------------
                       ORCA ELECTRIC PROPERTIES CALCULATION
------------------------------------------------------------------------------

Dipole Moment Calculation                       ... on
Quadrupole Moment Calculation                   ... off
Polarizability Calculation                      ... off
GBWName                                         ... reaction4-IEIP_ts_guess_scan_8-1_orca.gbw
Electron density                                ... reaction4-IEIP_ts_guess_scan_8-1_orca.scfp
The origin for moment calculation is the CENTER OF MASS  = ( 0.871552, -0.596838 -0.174263)

-------------
DIPOLE MOMENT
-------------
                                X             Y             Z
Electronic contribution:     38.85523     -67.92727      70.52607
Nuclear contribution   :    -39.48521      66.81361     -70.98353
                        -----------------------------------------
Total Dipole Moment    :     -0.62998      -1.11366      -0.45746
                        -----------------------------------------
Magnitude (a.u.)       :      1.35882
Magnitude (Debye)      :      3.45384



--------------------
Rotational spectrum 
--------------------
 
Rotational constants in cm-1:     0.010648     0.009164     0.008236 
Rotational constants in MHz :   319.218032   274.737406   246.912992 

 Dipole components along the rotational axes: 
x,y,z [a.u.] :    -0.360946    -0.329125     1.267983 
x,y,z [Debye]:    -0.917452    -0.836569     3.222956 

 

Timings for individual modules:

Sum of individual times         ...     7770.723 sec (= 129.512 min)
GTO integral calculation        ...       25.409 sec (=   0.423 min)   0.3 %
SCF iterations                  ...     6081.113 sec (= 101.352 min)  78.3 %
SCF Gradient evaluation         ...     1659.986 sec (=  27.666 min)  21.4 %
Geometry relaxation             ...        4.215 sec (=   0.070 min)   0.1 %
                             ****ORCA TERMINATED NORMALLY****
TOTAL RUN TIME: 0 days 2 hours 9 minutes 36 seconds 317 msec
