
                                 *****************
                                 * O   R   C   A *
                                 *****************

                                            #,                                       
                                            ###                                      
                                            ####                                     
                                            #####                                    
                                            ######                                   
                                           ########,                                 
                                     ,,################,,,,,                         
                               ,,#################################,,                 
                          ,,##########################################,,             
                       ,#########################################, ''#####,          
                    ,#############################################,,   '####,        
                  ,##################################################,,,,####,       
                ,###########''''           ''''###############################       
              ,#####''   ,,,,##########,,,,          '''####'''          '####       
            ,##' ,,,,###########################,,,                        '##       
           ' ,,###''''                  '''############,,,                           
         ,,##''                                '''############,,,,        ,,,,,,###''
      ,#''                                            '''#######################'''  
     '                                                          ''''####''''         
             ,#######,   #######,   ,#######,      ##                                
            ,#'     '#,  ##    ##  ,#'     '#,    #''#        ######   ,####,        
            ##       ##  ##   ,#'  ##            #'  '#       #        #'  '#        
            ##       ##  #######   ##           ,######,      #####,   #    #        
            '#,     ,#'  ##    ##  '#,     ,#' ,#      #,         ##   #,  ,#        
             '#######'   ##     ##  '#######'  #'      '#     #####' # '####'        



                  #######################################################
                  #                        -***-                        #
                  #          Department of theory and spectroscopy      #
                  #    Directorship and core code : Frank Neese         #
                  #        Max Planck Institute fuer Kohlenforschung    #
                  #                Kaiser Wilhelm Platz 1               #
                  #                 D-45470 Muelheim/Ruhr               #
                  #                      Germany                        #
                  #                                                     #
                  #                  All rights reserved                #
                  #                        -***-                        #
                  #######################################################


                         Program Version 5.0.3 -  RELEASE  -


 With contributions from (in alphabetic order):
   Daniel Aravena         : Magnetic Suceptibility
   Michael Atanasov       : Ab Initio Ligand Field Theory (pilot matlab implementation)
   Alexander A. Auer      : GIAO ZORA, VPT2 properties, NMR spectrum
   Ute Becker             : Parallelization
   Giovanni Bistoni       : ED, misc. LED, open-shell LED, HFLD
   Martin Brehm           : Molecular dynamics
   Dmytro Bykov           : SCF Hessian
   Vijay G. Chilkuri      : MRCI spin determinant printing, contributions to CSF-ICE
   Dipayan Datta          : RHF DLPNO-CCSD density
   Achintya Kumar Dutta   : EOM-CC, STEOM-CC
   Dmitry Ganyushin       : Spin-Orbit,Spin-Spin,Magnetic field MRCI
   Miquel Garcia          : C-PCM and meta-GGA Hessian, CC/C-PCM, Gaussian charge scheme
   Yang Guo               : DLPNO-NEVPT2, F12-NEVPT2, CIM, IAO-localization
   Andreas Hansen         : Spin unrestricted coupled pair/coupled cluster methods
   Benjamin Helmich-Paris : MC-RPA, TRAH-SCF, COSX integrals
   Lee Huntington         : MR-EOM, pCC
   Robert Izsak           : Overlap fitted RIJCOSX, COSX-SCS-MP3, EOM
   Marcus Kettner         : VPT2
   Christian Kollmar      : KDIIS, OOCD, Brueckner-CCSD(T), CCSD density, CASPT2, CASPT2-K
   Simone Kossmann        : Meta GGA functionals, TD-DFT gradient, OOMP2, MP2 Hessian
   Martin Krupicka        : Initial AUTO-CI
   Lucas Lang             : DCDCAS
   Marvin Lechner         : AUTO-CI (C++ implementation), FIC-MRCC
   Dagmar Lenk            : GEPOL surface, SMD
   Dimitrios Liakos       : Extrapolation schemes; Compound Job, initial MDCI parallelization
   Dimitrios Manganas     : Further ROCIS development; embedding schemes
   Dimitrios Pantazis     : SARC Basis sets
   Anastasios Papadopoulos: AUTO-CI, single reference methods and gradients
   Taras Petrenko         : DFT Hessian,TD-DFT gradient, ASA, ECA, R-Raman, ABS, FL, XAS/XES, NRVS
   Peter Pinski           : DLPNO-MP2, DLPNO-MP2 Gradient
   Christoph Reimann      : Effective Core Potentials
   Marius Retegan         : Local ZFS, SOC
   Christoph Riplinger    : Optimizer, TS searches, QM/MM, DLPNO-CCSD(T), (RO)-DLPNO pert. Triples
   Tobias Risthaus        : Range-separated hybrids, TD-DFT gradient, RPA, STAB
   Michael Roemelt        : Original ROCIS implementation
   Masaaki Saitow         : Open-shell DLPNO-CCSD energy and density
   Barbara Sandhoefer     : DKH picture change effects
   Avijit Sen             : IP-ROCIS
   Kantharuban Sivalingam : CASSCF convergence, NEVPT2, FIC-MRCI
   Bernardo de Souza      : ESD, SOC TD-DFT
   Georgi Stoychev        : AutoAux, RI-MP2 NMR, DLPNO-MP2 response
   Willem Van den Heuvel  : Paramagnetic NMR
   Boris Wezisla          : Elementary symmetry handling
   Frank Wennmohs         : Technical directorship


 We gratefully acknowledge several colleagues who have allowed us to
 interface, adapt or use parts of their codes:
   Stefan Grimme, W. Hujo, H. Kruse, P. Pracht,  : VdW corrections, initial TS optimization,
                  C. Bannwarth, S. Ehlert          DFT functionals, gCP, sTDA/sTD-DF
   Ed Valeev, F. Pavosevic, A. Kumar             : LibInt (2-el integral package), F12 methods
   Garnet Chan, S. Sharma, J. Yang, R. Olivares  : DMRG
   Ulf Ekstrom                                   : XCFun DFT Library
   Mihaly Kallay                                 : mrcc  (arbitrary order and MRCC methods)
   Jiri Pittner, Ondrej Demel                    : Mk-CCSD
   Frank Weinhold                                : gennbo (NPA and NBO analysis)
   Christopher J. Cramer and Donald G. Truhlar   : smd solvation model
   Lars Goerigk                                  : TD-DFT with DH, B97 family of functionals
   V. Asgeirsson, H. Jonsson                     : NEB implementation
   FAccTs GmbH                                   : IRC, NEB, NEB-TS, DLPNO-Multilevel, CI-OPT
                                                   MM, QMMM, 2- and 3-layer-ONIOM, Crystal-QMMM,
                                                   LR-CPCM, SF, NACMEs, symmetry and pop. for TD-DFT,
                                                   nearIR, NL-DFT gradient (VV10), updates on ESD,
                                                   ML-optimized integration grids
   S Lehtola, MJT Oliveira, MAL Marques          : LibXC Library
   Liviu Ungur et al                             : ANISO software


 Your calculation uses the libint2 library for the computation of 2-el integrals
 For citations please refer to: http://libint.valeyev.net

 Your ORCA version has been built with support for libXC version: 5.1.0
 For citations please refer to: https://tddft.org/programs/libxc/

 This ORCA versions uses:
   CBLAS   interface :  Fast vector & matrix operations
   LAPACKE interface :  Fast linear algebra routines
   SCALAPACK package :  Parallel linear algebra routines
   Shared memory     :  Shared parallel matrices
   BLAS/LAPACK       :  OpenBLAS 0.3.15  USE64BITINT DYNAMIC_ARCH NO_AFFINITY SkylakeX SINGLE_THREADED
        Core in use  :  SkylakeX
   Copyright (c) 2011-2014, The OpenBLAS Project


Your calculation utilizes the geometrical counterpoise correction gCP
Please cite in your paper:
H.Kruse, S. Grimme J.Chem.Phys., 136, (2012), 154101 
   

Your calculation utilizes the atom-pairwise dispersion correction
with the Becke-Johnson damping scheme (D3BJ)
Cite in your paper:
S.Grimme, S.Ehrlich, L.Goerigk, J Comput Chem, (2011), 32, 1456–1465 
S.Grimme, J.Antony, S.Ehrlich and H.Krieg, J.Chem.Phys., 132, (2010), 154104 
   

Your calculation employs the composite approach PBEh-3c.
Please cite in your paper:
S. Grimme, J. G. Brandenburg, C. Bannwarth, A. Hansen J.Chem.Phys., 143, (2015), 054107 
   

================================================================================

cite the ECPs for Ir [Def2-ECP] as follows:
Ce-Yb(ecp-28): M. Dolg, H. Stoll, H.Preuss, J. Chem. Phys., 1989, 90, 1730-1734.
Y-Cd(ecp-28), Hf-Hg(ecp-46): D. Andrae,U. Haeussermann, M. Dolg, H. Stoll, H. Preuss, Theor. Chim. Acta, 1990, 77, 123-141.
In-Sb(ecp-28), Tl-Bi(ecp-46): B. Metz, H. Stoll, M. Dolg, J. Chem. Phys., 2000, 113, 2563-2569.
Te-Xe(ecp-28), Po-Rn(ecp-46): K. A. Peterson, D. Figgen, E. Goll, H. Stoll, M. Dolg, J. Chem. Phys., 2003, 119, 11113-11123.
Rb(ecp-28), Cs(ecp-46): T. Leininger, A. Nicklass, W. Kuechle, H. Stoll, M. Dolg, A. Bergner, Chem. Phys. Lett., 1996, 255, 274-280.
Sr(ecp-28), Ba(ecp-46): M. Kaupp, P. V. Schleyer, H. Stoll and H. Preuss, J. Chem. Phys., 1991, 94, 1360-1366.
La(ecp-46): M. Dolg, H. Stoll, A. Savin, H. Preuss, Theor. Chim. Acta, 1989, 75, 173-194.
Lu(ecp-28): X. Cao, M. Dolg, J. Chem. Phys., 2001, 115, 7348-7355.

ECP parameters for Ir [Def2-ECP] have been obtained from:
TURBOMOLE (7.0.2)

----- Orbital basis set information -----
Your calculation utilizes the basis: def2-mSVP

----- AuxJ basis set information -----
Your calculation utilizes the auxiliary basis: def2/J
   F. Weigend, Phys. Chem. Chem. Phys. 8, 1057 (2006).

================================================================================
                                        WARNINGS
                       Please study these warnings very carefully!
================================================================================


WARNING: Geometry Optimization
  ===> : Switching off AutoStart
         For restart on a previous wavefunction, please use MOREAD

WARNING: No Hueckel Guess possible with ECP basis!
  ===> : Switching to HCORE guess!

INFO   : the flag for use of the SHARK integral package has been found!

================================================================================
                                       INPUT FILE
================================================================================
NAME = reaction4-IEIP_ts_guess_scan_14-6_orca.inp
|  1> ! Opt PBEh-3c
|  2> %geom Constraints
|  3> { B 0 20 2.0 C }
|  4> { B 24 30 1.4142857142857144 C }
|  5>     end
|  6> end
|  7> %output 
|  8> xyzfile=True 
|  9> end 
| 10> %scf 
| 11> maxiter 250 
| 12> end
| 13> %output
| 14> Print[P_Hirshfeld] = 1
| 15> end
| 16> % maxcore
| 17> 4000
| 18> *xyz 1 1
| 19> Ir   0.62327895  -0.72927629   0.39351048 
| 20> C    0.16758614  -2.85186319   0.31683267 
| 21> C   -0.07077650  -2.41414796   1.66859104 
| 22> C    2.15982780  -2.05494985   1.17291509 
| 23> C    1.53707661  -2.65545094   0.02767289 
| 24> C    1.15659724  -1.94263070   2.17933329 
| 25> N   -1.07373807   0.12020055  -0.51252450 
| 26> C   -2.33738527   0.31882133   0.21134740 
| 27> C   -3.13178533   1.52807529  -0.26072784 
| 28> H   -3.95748349   1.69723463   0.42857882 
| 29> H   -3.57422585   1.38628587  -1.24770708 
| 30> H   -2.52553852   2.43413261  -0.27401213 
| 31> C   -3.16614353  -0.95900160   0.13373710 
| 32> H   -2.04541737   0.48715805   1.24904781 
| 33> H   -4.06347174  -0.85683979   0.74266987 
| 34> H   -3.47940671  -1.16219231  -0.89109262 
| 35> H   -2.61747964  -1.82543988   0.49923796 
| 36> C   -0.92955166   0.48191631  -1.73471160 
| 37> C    0.38697655   0.29491366  -2.26329144 
| 38> H   -1.73584997   0.92557025  -2.30919955 
| 39> C    1.40412930   0.02439168  -1.33724733 
| 40> C    2.62909392  -0.21691615  -2.04513537 
| 41> S    0.90179569   0.27745266  -3.87502534 
| 42> C    2.50204505  -0.10899221  -3.39470938 
| 43> H    1.60661499   1.12942320  -0.69811618 
| 44> H    3.57730073  -0.39982900  -1.56025618 
| 45> H    3.27389047  -0.21350690  -4.14203553 
| 46> H   -0.55815741  -3.29774667  -0.34744857 
| 47> H   -1.00208849  -2.47273187   2.21065257 
| 48> H    1.29911035  -1.49804141   3.15414927 
| 49> O    1.70544605   2.33458874   0.06255774 
| 50> O    0.59234912   1.02971493   1.48232462 
| 51> C    1.13245325   2.13239968   1.14875251 
| 52> C    1.08619024   3.23938356   2.16208519 
| 53> H    0.98422026   4.20454889   1.67168700 
| 54> H    2.02885369   3.25322678   2.71191924 
| 55> H    0.28056610   3.09501295   2.87661511 
| 56> H    3.20747985  -1.82593611   1.29182261 
| 57> H    2.02498720  -2.90976888  -0.90205963 
| 58> *
| 59> 
| 60>                          ****END OF INPUT****
================================================================================

                       *****************************
                       * Geometry Optimization Run *
                       *****************************

Geometry optimization settings:
Update method            Update   .... BFGS
Choice of coordinates    CoordSys .... Z-matrix Internals
Initial Hessian          InHess   .... Almoef's Model

Convergence Tolerances:
Energy Change            TolE     ....  5.0000e-06 Eh
Max. Gradient            TolMAXG  ....  3.0000e-04 Eh/bohr
RMS Gradient             TolRMSG  ....  1.0000e-04 Eh/bohr
Max. Displacement        TolMAXD  ....  4.0000e-03 bohr
RMS Displacement         TolRMSD  ....  2.0000e-03 bohr
Strict Convergence                ....  False
------------------------------------------------------------------------------
                        ORCA OPTIMIZATION COORDINATE SETUP
------------------------------------------------------------------------------

The optimization will be done in new redundant internal coordinates
Making redundant internal coordinates   ...  (new redundants) done
Evaluating the initial hessian          ...  (Almloef) done
Evaluating the coordinates              ...  done
Calculating the B-matrix                .... done
Calculating the G-matrix                .... done
Diagonalizing the G-matrix              .... done
Imposing constraints:
 Iter   0:  RMS(Cart)=    0.0186370241 RMS(Int)=    0.0065464113
 Iter   1:  RMS(Cart)=    0.0020386960 RMS(Int)=    0.0007473266
 Iter   2:  RMS(Cart)=    0.0002321947 RMS(Int)=    0.0000849156
 Iter   3:  RMS(Cart)=    0.0000263336 RMS(Int)=    0.0000095994
 Iter   4:  RMS(Cart)=    0.0000029743 RMS(Int)=    0.0000010825
 Iter   5:  RMS(Cart)=    0.0000003353 RMS(Int)=    0.0000001220
 Iter   6:  RMS(Cart)=    0.0000000378 RMS(Int)=    0.0000000137
CONVERGED
Small eigenvalue found = 1.425e-02
Small eigenvalue found = 2.174e-02
The first mode is                       ....  280
The number of degrees of freedom        ....  111
Storing new coordinates                 .... done

    -----------------------------------------------------------------
                    Redundant Internal Coordinates


    -----------------------------------------------------------------
         Definition                    Initial Value    Approx d2E/dq
    -----------------------------------------------------------------
      1. B(C   1,Ir  0)                  2.1722         0.082143   
      2. B(C   2,C   1)                  1.4406         0.518591   
      3. B(C   2,Ir  0)                  2.2238         0.067926   
      4. B(C   3,Ir  0)                  2.1737         0.081662   
      5. B(C   4,C   3)                  1.4350         0.529070   
      6. B(C   4,Ir  0)                  2.1630         0.084968   
      7. B(C   4,C   1)                  1.4137         0.573334   
      8. B(C   5,Ir  0)                  2.2235         0.067955   
      9. B(C   5,C   2)                  1.4114         0.579379   
     10. B(C   5,C   3)                  1.4266         0.548464   
     11. B(N   6,Ir  0)                  2.1035         0.094922   
     12. B(C   7,N   6)                  1.4698         0.417442   
     13. B(C   8,C   7)                  1.5219         0.384838   
     14. B(H   9,C   8)                  1.0888         0.361660   
     15. B(H  10,C   8)                  1.0909         0.358958   
     16. B(H  11,C   8)                  1.0903         0.359766   
     17. B(C  12,C   7)                  1.5250         0.380468   
     18. B(H  13,C   7)                  1.0911         0.358705   
     19. B(H  14,C  12)                  1.0892         0.361113   
     20. B(H  15,C  12)                  1.0907         0.359133   
     21. B(H  16,C  12)                  1.0887         0.361781   
     22. B(C  17,N   6)                  1.2779         0.829917   
     23. B(C  18,C  17)                  1.4264         0.537537   
     24. B(H  19,C  17)                  1.0849         0.366926   
     25. B(C  20,Ir  0)                  2.0000         0.132159 C 
     26. B(C  20,C  18)                  1.4031         0.598059   
     27. B(C  21,C  20)                  1.4359         0.529156   
     28. B(S  22,C  18)                  1.6919         0.555401   
     29. B(C  23,C  21)                  1.3597         0.698027   
     30. B(C  23,S  22)                  1.7142         0.510703   
     31. B(H  24,C  20)                  1.2930         0.171132   
     32. B(H  25,C  21)                  1.0806         0.372775   
     33. B(H  26,C  23)                  1.0795         0.374360   
     34. B(H  27,C   1)                  1.0802         0.373330   
     35. B(H  28,C   2)                  1.0792         0.374718   
     36. B(H  29,C   5)                  1.0809         0.372411   
     37. B(O  30,H  24)                  1.4143         0.092980 C 
     38. B(O  31,Ir  0)                  2.0685         0.107551   
     39. B(C  32,O  30)                  1.2447         0.954680   
     40. B(C  32,O  31)                  1.2721         0.862114   
     41. B(C  33,C  32)                  1.5015         0.414862   
     42. B(H  34,C  33)                  1.0874         0.363560   
     43. B(H  35,C  33)                  1.0914         0.358271   
     44. B(H  36,C  33)                  1.0865         0.364795   
     45. B(H  37,C   3)                  1.0790         0.375001   
     46. B(H  38,C   4)                  1.0803         0.373107   
     47. A(C   1,Ir  0,N   6)          102.0881         0.248371   
     48. A(C   1,Ir  0,C   3)           64.2370         0.244145   
     49. A(C   2,Ir  0,N   6)          107.4448         0.241662   
     50. A(C   2,Ir  0,C   5)           37.0079         0.231559   
     51. A(N   6,Ir  0,O  31)           82.5982         0.257184   
     52. A(C  20,Ir  0,O  31)           97.9435         0.271572   
     53. A(C   2,Ir  0,C  20)          152.1540         0.254722   
     54. A(C   2,Ir  0,O  31)          109.7512         0.246039   
     55. A(C   1,Ir  0,C   5)           62.9906         0.237825   
     56. A(C   3,Ir  0,C   4)           38.6441         0.245336   
     57. A(C   2,Ir  0,C   3)           63.5019         0.237613   
     58. A(C   3,Ir  0,C  20)          104.8608         0.261775   
     59. A(C   4,Ir  0,N   6)          128.8726         0.249595   
     60. A(C   1,Ir  0,O  31)          147.8139         0.252941   
     61. A(C   5,Ir  0,O  31)           92.5726         0.246054   
     62. A(C   5,Ir  0,C  20)          142.0899         0.254738   
     63. A(C   4,Ir  0,C  20)           91.2807         0.263334   
     64. A(C   2,Ir  0,C   4)           63.5485         0.238954   
     65. A(C   1,Ir  0,C  20)          114.2217         0.262005   
     66. A(C   3,Ir  0,N   6)          166.1846         0.248159   
     67. A(C   1,Ir  0,C   4)           38.0646         0.245545   
     68. A(C   4,Ir  0,O  31)          148.4863         0.254201   
     69. A(C   1,Ir  0,C   2)           38.2382         0.237811   
     70. A(C   3,Ir  0,O  31)          109.9178         0.252723   
     71. A(C   5,Ir  0,N   6)          139.3916         0.241676   
     72. A(C   3,Ir  0,C   5)           37.8402         0.237627   
     73. A(N   6,Ir  0,C  20)           78.2879         0.266482   
     74. A(C   4,Ir  0,C   5)           63.1919         0.238968   
     75. A(C   2,C   1,H  27)          126.2322         0.344531   
     76. A(Ir  0,C   1,C   2)           72.8220         0.311358   
     77. A(C   2,C   1,C   4)          108.0863         0.414577   
     78. A(C   4,C   1,H  27)          125.6199         0.350402   
     79. A(Ir  0,C   1,H  27)          124.4794         0.267528   
     80. A(Ir  0,C   1,C   4)           70.6170         0.316466   
     81. A(Ir  0,C   2,C   1)           68.9397         0.301996   
     82. A(Ir  0,C   2,C   5)           71.4836         0.307407   
     83. A(C   1,C   2,C   5)          107.2767         0.415351   
     84. A(Ir  0,C   2,H  28)          126.7644         0.260156   
     85. A(C   5,C   2,H  28)          125.9813         0.351243   
     86. A(C   1,C   2,H  28)          126.6934         0.344746   
     87. A(C   4,C   3,C   5)          106.9002         0.412788   
     88. A(Ir  0,C   3,C   4)           70.2751         0.312070   
     89. A(Ir  0,C   3,C   5)           72.9718         0.313895   
     90. A(Ir  0,C   3,H  37)          126.6202         0.267471   
     91. A(C   5,C   3,H  37)          126.0941         0.348053   
     92. A(C   4,C   3,H  37)          126.7253         0.345951   
     93. A(Ir  0,C   4,C   1)           71.3184         0.318213   
     94. A(Ir  0,C   4,H  38)          123.1002         0.268875   
     95. A(Ir  0,C   4,C   3)           71.0808         0.314083   
     96. A(C   3,C   4,H  38)          126.0825         0.345656   
     97. A(C   1,C   4,C   3)          108.4050         0.416055   
     98. A(C   1,C   4,H  38)          125.5111         0.350367   
     99. A(Ir  0,C   5,H  29)          122.1042         0.259933   
    100. A(Ir  0,C   5,C   2)           71.5085         0.307428   
    101. A(C   3,C   5,H  29)          125.2066         0.347647   
    102. A(Ir  0,C   5,C   3)           69.1880         0.304734   
    103. A(C   2,C   5,C   3)          109.2791         0.419514   
    104. A(C   2,C   5,H  29)          125.3699         0.350877   
    105. A(Ir  0,N   6,C  17)          115.5669         0.340640   
    106. A(C   7,N   6,C  17)          121.9273         0.420517   
    107. A(Ir  0,N   6,C   7)          122.4903         0.304393   
    108. A(C   8,C   7,H  13)          108.1863         0.325698   
    109. A(C  12,C   7,H  13)          108.8506         0.325087   
    110. A(N   6,C   7,C   8)          113.7894         0.369901   
    111. A(N   6,C   7,C  12)          109.2038         0.369175   
    112. A(C   8,C   7,C  12)          111.4888         0.366348   
    113. A(N   6,C   7,H  13)          105.0226         0.328111   
    114. A(C   7,C   8,H   9)          108.8388         0.326138   
    115. A(C   7,C   8,H  10)          112.8971         0.325736   
    116. A(H   9,C   8,H  10)          106.5832         0.290892   
    117. A(C   7,C   8,H  11)          111.9534         0.325856   
    118. A(H   9,C   8,H  11)          107.4748         0.290995   
    119. A(H  10,C   8,H  11)          108.8155         0.290652   
    120. A(C   7,C  12,H  14)          109.9168         0.325445   
    121. A(C   7,C  12,H  15)          111.0991         0.325151   
    122. A(H  14,C  12,H  15)          107.8267         0.290845   
    123. A(C   7,C  12,H  16)          112.0783         0.325544   
    124. A(H  14,C  12,H  16)          107.5852         0.291181   
    125. A(H  15,C  12,H  16)          108.1746         0.290929   
    126. A(N   6,C  17,C  18)          114.0942         0.442955   
    127. A(N   6,C  17,H  19)          122.7521         0.369786   
    128. A(C  18,C  17,H  19)          123.1226         0.345608   
    129. A(C  17,C  18,S  22)          129.2202         0.437758   
    130. A(C  20,C  18,S  22)          114.1488         0.446282   
    131. A(C  17,C  18,C  20)          116.5559         0.420384   
    132. A(C  18,C  20,C  21)          108.7559         0.419207   
    133. A(Ir  0,C  20,H  24)           87.4901         0.255639   
    134. A(C  18,C  20,H  24)          105.9832         0.310200   
    135. A(C  21,C  20,H  24)          104.7881         0.304155   
    136. A(Ir  0,C  20,C  18)          111.4394         0.344748   
    137. A(Ir  0,C  20,C  21)          132.5147         0.337759   
    138. A(C  20,C  21,C  23)          113.5036         0.430964   
    139. A(C  20,C  21,H  25)          123.7140         0.345614   
    140. A(C  23,C  21,H  25)          122.6559         0.362216   
    141. A(C  18,S  22,C  23)           91.0636         0.457940   
    142. A(C  21,C  23,S  22)          112.5225         0.452043   
    143. A(C  21,C  23,H  26)          127.7789         0.362479   
    144. A(S  22,C  23,H  26)          119.6792         0.361694   
    145. A(Ir  0,O  31,C  32)          126.1312         0.350095   
    146. A(O  30,C  32,O  31)          124.3300         0.492238   
    147. A(O  30,C  32,C  33)          118.9457         0.433549   
    148. A(O  31,C  32,C  33)          116.7122         0.425687   
    149. A(C  32,C  33,H  34)          110.6655         0.330491   
    150. A(C  32,C  33,H  35)          108.8294         0.329691   
    151. A(H  34,C  33,H  35)          107.2738         0.291044   
    152. A(C  32,C  33,H  36)          111.6374         0.330676   
    153. A(H  34,C  33,H  36)          110.1821         0.291871   
    154. A(H  35,C  33,H  36)          108.1086         0.291199   
    155. D(C   2,C   1,Ir  0,N   6)   -102.9184         0.001686   
    156. D(C   4,C   1,Ir  0,C   2)   -116.9509         0.001686   
    157. D(H  27,C   1,Ir  0,C   3)   -158.2730         0.001686   
    158. D(C   4,C   1,Ir  0,C  20)     57.6748         0.001686   
    159. D(C   2,C   1,Ir  0,C   3)     79.1657         0.001686   
    160. D(C   4,C   1,Ir  0,N   6)    140.1307         0.001686   
    161. D(H  27,C   1,Ir  0,C   2)    122.5612         0.001686   
    162. D(C   2,C   1,Ir  0,O  31)     -7.5860         0.001686   
    163. D(H  27,C   1,Ir  0,N   6)     19.6428         0.001686   
    164. D(C   2,C   1,Ir  0,C  20)    174.6257         0.001686   
    165. D(C   4,C   1,Ir  0,C   3)    -37.7852         0.001686   
    166. D(H  27,C   1,Ir  0,C  20)    -62.8130         0.001686   
    167. D(H  27,C   1,Ir  0,C   4)   -120.4879         0.001686   
    168. D(H  27,C   1,Ir  0,O  31)    114.9752         0.001686   
    169. D(C   2,C   1,Ir  0,C   5)     36.7464         0.001686   
    170. D(H  27,C   1,Ir  0,C   5)    159.3076         0.001686   
    171. D(C   4,C   1,Ir  0,C   5)    -80.2045         0.001686   
    172. D(C   4,C   1,Ir  0,O  31)   -124.5369         0.001686   
    173. D(C   2,C   1,Ir  0,C   4)    116.9509         0.001686   
    174. D(H  28,C   2,Ir  0,C   5)    121.5475         0.001628   
    175. D(H  28,C   2,C   1,C   4)   -176.9423         0.021339   
    176. D(C   5,C   2,C   1,H  27)    177.8987         0.021339   
    177. D(C   1,C   2,Ir  0,N   6)     87.4714         0.001628   
    178. D(C   1,C   2,Ir  0,C   3)    -81.2557         0.001628   
    179. D(Ir  0,C   2,C   1,C   4)     62.1997         0.021339   
    180. D(H  28,C   2,Ir  0,C   1)   -120.7691         0.001628   
    181. D(H  28,C   2,Ir  0,C  20)   -131.3058         0.001628   
    182. D(C   1,C   2,Ir  0,C   5)   -117.6833         0.001628   
    183. D(C   5,C   2,Ir  0,C   3)     36.4277         0.001628   
    184. D(H  28,C   2,Ir  0,C   4)   -158.6377         0.001628   
    185. D(H  28,C   2,Ir  0,C   3)    157.9752         0.001628   
    186. D(Ir  0,C   2,C   1,H  27)   -120.5357         0.021339   
    187. D(C   1,C   2,Ir  0,C   4)    -37.8686         0.001628   
    188. D(C   5,C   2,Ir  0,C   1)    117.6833         0.001628   
    189. D(C   1,C   2,Ir  0,C  20)    -10.5367         0.001628   
    190. D(C   5,C   2,Ir  0,O  31)    -66.6015         0.001628   
    191. D(C   5,C   2,Ir  0,N   6)   -154.8453         0.001628   
    192. D(H  28,C   2,C   1,Ir  0)    120.8580         0.021339   
    193. D(C   5,C   2,C   1,Ir  0)    -61.5656         0.021339   
    194. D(C   1,C   2,Ir  0,O  31)    175.7151         0.001628   
    195. D(C   5,C   2,Ir  0,C  20)    107.1466         0.001628   
    196. D(H  28,C   2,Ir  0,N   6)    -33.2977         0.001628   
    197. D(C   5,C   2,Ir  0,C   4)     79.8147         0.001628   
    198. D(C   5,C   2,C   1,C   4)      0.6341         0.021339   
    199. D(H  28,C   2,Ir  0,O  31)     54.9460         0.001628   
    200. D(H  28,C   2,C   1,H  27)      0.3222         0.021339   
    201. D(C   4,C   3,Ir  0,N   6)     28.6589         0.001684   
    202. D(C   5,C   3,Ir  0,C   1)    -78.4221         0.001684   
    203. D(H  37,C   3,Ir  0,C   5)   -122.6856         0.001684   
    204. D(H  37,C   3,Ir  0,C   2)   -158.3221         0.001684   
    205. D(C   4,C   3,Ir  0,O  31)   -177.2244         0.001684   
    206. D(H  37,C   3,Ir  0,N   6)    150.3281         0.001684   
    207. D(C   5,C   3,Ir  0,C  20)    171.5028         0.001684   
    208. D(H  37,C   3,Ir  0,C   1)    158.8923         0.001684   
    209. D(H  37,C   3,Ir  0,C   4)    121.6692         0.001684   
    210. D(C   4,C   3,Ir  0,C   5)    115.6452         0.001684   
    211. D(C   5,C   3,Ir  0,C   4)   -115.6452         0.001684   
    212. D(C   5,C   3,Ir  0,O  31)     67.1304         0.001684   
    213. D(C   4,C   3,Ir  0,C  20)    -72.8520         0.001684   
    214. D(C   4,C   3,Ir  0,C   1)     37.2231         0.001684   
    215. D(C   4,C   3,Ir  0,C   2)     80.0087         0.001684   
    216. D(C   5,C   3,Ir  0,N   6)    -86.9864         0.001684   
    217. D(C   5,C   3,Ir  0,C   2)    -35.6365         0.001684   
    218. D(H  37,C   3,Ir  0,C  20)     48.8172         0.001684   
    219. D(H  37,C   3,Ir  0,O  31)    -55.5552         0.001684   
    220. D(C   1,C   4,Ir  0,C  20)   -129.5718         0.001699   
    221. D(C   1,C   4,Ir  0,C   2)     38.0410         0.001699   
    222. D(C   3,C   4,Ir  0,C   2)    -79.8777         0.001699   
    223. D(C   1,C   4,Ir  0,C   5)     79.6299         0.001699   
    224. D(C   1,C   4,Ir  0,N   6)    -53.6224         0.001699   
    225. D(C   3,C   4,Ir  0,C   5)    -38.2889         0.001699   
    226. D(C   3,C   4,Ir  0,C   1)   -117.9187         0.001699   
    227. D(C   1,C   4,Ir  0,O  31)    122.9155         0.001699   
    228. D(C   1,C   4,Ir  0,C   3)    117.9187         0.001699   
    229. D(H  38,C   4,C   1,Ir  0)   -117.8346         0.026313   
    230. D(C   3,C   4,Ir  0,C  20)    112.5095         0.001699   
    231. D(C   3,C   4,Ir  0,O  31)      4.9968         0.001699   
    232. D(Ir  0,C   4,C   1,C   2)    -63.6240         0.026313   
    233. D(H  38,C   4,Ir  0,C   1)    120.7657         0.001699   
    234. D(H  38,C   4,Ir  0,C   3)   -121.3156         0.001699   
    235. D(H  38,C   4,Ir  0,C   5)   -159.6045         0.001699   
    236. D(H  38,C   4,Ir  0,N   6)     67.1433         0.001699   
    237. D(H  38,C   4,Ir  0,C  20)     -8.8061         0.001699   
    238. D(H  38,C   4,Ir  0,C   2)    158.8067         0.001699   
    239. D(Ir  0,C   4,C   1,H  27)    119.0903         0.026313   
    240. D(H  38,C   4,Ir  0,O  31)   -116.3188         0.001699   
    241. D(C   3,C   4,C   1,Ir  0)     61.7558         0.026313   
    242. D(C   3,C   4,C   1,C   2)     -1.8682         0.026313   
    243. D(H  38,C   4,C   1,C   2)    178.5414         0.026313   
    244. D(C   3,C   4,Ir  0,N   6)   -171.5411         0.001699   
    245. D(C   3,C   4,C   1,H  27)   -179.1539         0.026313   
    246. D(Ir  0,C   4,C   3,H  37)   -121.5420         0.022242   
    247. D(Ir  0,C   4,C   3,C   5)     64.2736         0.022242   
    248. D(H  38,C   4,C   3,C   5)   -178.0458         0.022242   
    249. D(C   1,C   4,C   3,C   5)      2.3668         0.022242   
    250. D(C   1,C   4,C   3,H  37)    176.5511         0.022242   
    251. D(H  38,C   4,C   3,Ir  0)    117.6806         0.022242   
    252. D(H  38,C   4,C   1,H  27)      1.2558         0.026313   
    253. D(H  38,C   4,C   3,H  37)     -3.8615         0.022242   
    254. D(C   1,C   4,C   3,Ir  0)    -61.9068         0.022242   
    255. D(H  29,C   5,C   2,H  28)     -5.7373         0.026902   
    256. D(C   2,C   5,Ir  0,C   4)    -80.8652         0.001628   
    257. D(C   2,C   5,Ir  0,C   3)   -119.9712         0.001628   
    258. D(C   3,C   5,C   2,C   1)      0.8540         0.026902   
    259. D(C   2,C   5,Ir  0,C  20)   -133.4122         0.001628   
    260. D(C   2,C   5,Ir  0,O  31)    120.1580         0.001628   
    261. D(H  29,C   5,Ir  0,O  31)     -0.5544         0.001628   
    262. D(C   3,C   5,Ir  0,C   2)    119.9712         0.001628   
    263. D(C   3,C   5,Ir  0,C   4)     39.1060         0.001628   
    264. D(C   3,C   5,Ir  0,N   6)    158.5081         0.001628   
    265. D(C   3,C   5,Ir  0,C  20)    -13.4410         0.001628   
    266. D(C   3,C   5,Ir  0,O  31)   -119.8708         0.001628   
    267. D(H  29,C   5,Ir  0,C   1)   -158.6773         0.001628   
    268. D(H  29,C   5,Ir  0,C   2)   -120.7124         0.001628   
    269. D(H  29,C   5,Ir  0,C   3)    119.3164         0.001628   
    270. D(H  29,C   5,Ir  0,C   4)    158.4224         0.001628   
    271. D(H  29,C   5,Ir  0,N   6)    -82.1754         0.001628   
    272. D(C   3,C   5,Ir  0,C   1)     82.0063         0.001628   
    273. D(H  29,C   5,Ir  0,C  20)    105.8754         0.001628   
    274. D(Ir  0,C   5,C   2,C   1)     59.9312         0.026902   
    275. D(Ir  0,C   5,C   2,H  28)   -122.4703         0.026902   
    276. D(C   2,C   5,Ir  0,N   6)     38.5370         0.001628   
    277. D(C   3,C   5,C   2,Ir  0)    -59.0773         0.026902   
    278. D(H  29,C   5,C   2,Ir  0)    116.7329         0.026902   
    279. D(C   3,C   5,C   2,H  28)    178.4525         0.026902   
    280. D(C   2,C   5,Ir  0,C   1)    -37.9649         0.001628   
    281. D(H  29,C   5,C   2,C   1)    176.6642         0.026902   
    282. D(H  29,C   5,C   3,H  37)      7.9643         0.023973   
    283. D(Ir  0,C   5,C   3,H  37)    123.2824         0.023973   
    284. D(C   2,C   5,C   3,Ir  0)     60.5005         0.023973   
    285. D(C   2,C   5,C   3,C   4)     -1.9855         0.023973   
    286. D(C   2,C   5,C   3,H  37)   -176.2171         0.023973   
    287. D(H  29,C   5,C   3,Ir  0)   -115.3181         0.023973   
    288. D(Ir  0,C   5,C   3,C   4)    -62.4860         0.023973   
    289. D(H  29,C   5,C   3,C   4)   -177.8041         0.023973   
    290. D(C   7,N   6,Ir  0,C   1)     80.0167         0.001767   
    291. D(C   7,N   6,Ir  0,C   2)     40.7929         0.001767   
    292. D(C   7,N   6,Ir  0,C   3)     87.9001         0.001767   
    293. D(C   7,N   6,Ir  0,C   4)    110.5245         0.001767   
    294. D(C   7,N   6,Ir  0,C   5)     17.6460         0.001767   
    295. D(C   7,N   6,Ir  0,C  20)   -167.3958         0.001767   
    296. D(C   7,N   6,Ir  0,O  31)    -67.6514         0.001767   
    297. D(C  17,N   6,Ir  0,C   1)   -101.3889         0.001767   
    298. D(C  17,N   6,Ir  0,C   2)   -140.6128         0.001767   
    299. D(C  17,N   6,Ir  0,C   3)    -93.5056         0.001767   
    300. D(C  17,N   6,Ir  0,C   4)    -70.8811         0.001767   
    301. D(C  17,N   6,Ir  0,C   5)   -163.7597         0.001767   
    302. D(C  17,N   6,Ir  0,C  20)     11.1986         0.001767   
    303. D(C  17,N   6,Ir  0,O  31)    110.9429         0.001767   
    304. D(C   8,C   7,N   6,Ir  0)    148.6284         0.014860   
    305. D(C   8,C   7,N   6,C  17)    -29.8776         0.014860   
    306. D(C  12,C   7,N   6,Ir  0)    -86.0988         0.014860   
    307. D(C  12,C   7,N   6,C  17)     95.3952         0.014860   
    308. D(H  13,C   7,N   6,Ir  0)     30.4989         0.014860   
    309. D(H  13,C   7,N   6,C  17)   -148.0070         0.014860   
    310. D(H   9,C   8,C   7,N   6)   -170.6538         0.011789   
    311. D(H   9,C   8,C   7,C  12)     65.2990         0.011789   
    312. D(H   9,C   8,C   7,H  13)    -54.3594         0.011789   
    313. D(H  10,C   8,C   7,N   6)     71.2173         0.011789   
    314. D(H  10,C   8,C   7,C  12)    -52.8299         0.011789   
    315. D(H  10,C   8,C   7,H  13)   -172.4883         0.011789   
    316. D(H  11,C   8,C   7,N   6)    -51.9937         0.011789   
    317. D(H  11,C   8,C   7,C  12)   -176.0409         0.011789   
    318. D(H  11,C   8,C   7,H  13)     64.3006         0.011789   
    319. D(H  14,C  12,C   7,N   6)    174.8122         0.011536   
    320. D(H  14,C  12,C   7,C   8)    -58.5910         0.011536   
    321. D(H  14,C  12,C   7,H  13)     60.6735         0.011536   
    322. D(H  15,C  12,C   7,N   6)    -65.9250         0.011536   
    323. D(H  15,C  12,C   7,C   8)     60.6718         0.011536   
    324. D(H  15,C  12,C   7,H  13)    179.9363         0.011536   
    325. D(H  16,C  12,C   7,N   6)     55.2257         0.011536   
    326. D(H  16,C  12,C   7,C   8)   -178.1775         0.011536   
    327. D(H  16,C  12,C   7,H  13)    -58.9130         0.011536   
    328. D(C  18,C  17,N   6,Ir  0)     -2.3156         0.059264   
    329. D(C  18,C  17,N   6,C   7)    176.2874         0.059264   
    330. D(H  19,C  17,N   6,Ir  0)    179.6556         0.059264   
    331. D(H  19,C  17,N   6,C   7)     -1.7414         0.059264   
    332. D(C  20,C  18,C  17,N   6)    -13.1087         0.019738   
    333. D(C  20,C  18,C  17,H  19)    164.9118         0.019738   
    334. D(S  22,C  18,C  17,N   6)    163.5257         0.019738   
    335. D(S  22,C  18,C  17,H  19)    -18.4538         0.019738   
    336. D(C  18,C  20,Ir  0,C   1)     81.0522         0.001978   
    337. D(H  24,C  20,C  18,C  17)    -71.4648         0.026775   
    338. D(C  18,C  20,Ir  0,C   3)    149.1065         0.001978   
    339. D(C  18,C  20,Ir  0,C   4)    112.4604         0.001978   
    340. D(Ir  0,C  20,C  18,C  17)     22.1781         0.026775   
    341. D(C  18,C  20,Ir  0,N   6)    -17.0680         0.001978   
    342. D(C  18,C  20,Ir  0,O  31)    -97.7584         0.001978   
    343. D(H  24,C  20,Ir  0,C   4)   -141.3453         0.001978   
    344. D(C  21,C  20,Ir  0,C   2)    -57.7802         0.001978   
    345. D(C  21,C  20,Ir  0,C   3)      3.1448         0.001978   
    346. D(C  21,C  20,Ir  0,C   4)    -33.5013         0.001978   
    347. D(C  21,C  20,Ir  0,C   5)     11.6286         0.001978   
    348. D(C  21,C  20,Ir  0,N   6)   -163.0297         0.001978   
    349. D(C  21,C  20,Ir  0,O  31)    116.2799         0.001978   
    350. D(H  24,C  20,Ir  0,C   1)   -172.7535         0.001978   
    351. D(H  24,C  20,Ir  0,C   2)   -165.6243         0.001978   
    352. D(C  21,C  20,Ir  0,C   1)    -64.9095         0.001978   
    353. D(H  24,C  20,Ir  0,C   3)   -104.6992         0.001978   
    354. D(H  24,C  20,Ir  0,C   5)    -96.2154         0.001978   
    355. D(H  24,C  20,Ir  0,N   6)     89.1263         0.001978   
    356. D(C  18,C  20,Ir  0,C   5)    157.5903         0.001978   
    357. D(H  24,C  20,Ir  0,O  31)      8.4359         0.001978   
    358. D(Ir  0,C  20,C  18,S  22)   -154.9649         0.026775   
    359. D(C  21,C  20,C  18,C  17)    176.3463         0.026775   
    360. D(C  18,C  20,Ir  0,C   2)     88.1814         0.001978   
    361. D(C  21,C  20,C  18,S  22)     -0.7967         0.026775   
    362. D(H  24,C  20,C  18,S  22)    111.3922         0.026775   
    363. D(C  23,C  21,C  20,Ir  0)    147.3243         0.020728   
    364. D(C  23,C  21,C  20,C  18)      0.7075         0.020728   
    365. D(C  23,C  21,C  20,H  24)   -112.2721         0.020728   
    366. D(H  25,C  21,C  20,Ir  0)    -36.6740         0.020728   
    367. D(H  25,C  21,C  20,C  18)    176.7091         0.020728   
    368. D(H  25,C  21,C  20,H  24)     63.7296         0.020728   
    369. D(C  23,S  22,C  18,C  17)   -176.1584         0.006122   
    370. D(C  23,S  22,C  18,C  20)      0.5424         0.006122   
    371. D(S  22,C  23,C  21,C  20)     -0.3315         0.034300   
    372. D(S  22,C  23,C  21,H  25)   -176.3813         0.034300   
    373. D(H  26,C  23,C  21,C  20)    178.0400         0.034300   
    374. D(H  26,C  23,C  21,H  25)      1.9902         0.034300   
    375. D(C  21,C  23,S  22,C  18)     -0.1127         0.005374   
    376. D(H  26,C  23,S  22,C  18)   -178.6312         0.005374   
    377. D(C  32,O  31,Ir  0,C   1)    172.1526         0.001824   
    378. D(C  32,O  31,Ir  0,C   2)    167.1722         0.001824   
    379. D(C  32,O  31,Ir  0,C   3)     99.1418         0.001824   
    380. D(C  32,O  31,Ir  0,C   4)     95.8252         0.001824   
    381. D(C  32,O  31,Ir  0,C   5)    133.6003         0.001824   
    382. D(C  32,O  31,Ir  0,N   6)    -86.8922         0.001824   
    383. D(C  32,O  31,Ir  0,C  20)     -9.8839         0.001824   
    384. D(O  30,C  32,O  31,Ir  0)      4.2588         0.058365   
    385. D(C  33,C  32,O  31,Ir  0)   -174.4522         0.058365   
    386. D(H  34,C  33,C  32,O  30)     35.6927         0.012737   
    387. D(H  34,C  33,C  32,O  31)   -145.5237         0.012737   
    388. D(H  35,C  33,C  32,O  30)    -81.9477         0.012737   
    389. D(H  35,C  33,C  32,O  31)     96.8359         0.012737   
    390. D(H  36,C  33,C  32,O  30)    158.8065         0.012737   
    391. D(H  36,C  33,C  32,O  31)    -22.4099         0.012737   
    -----------------------------------------------------------------

Number of atoms                         .... 39
Number of degrees of freedom            .... 391

         *************************************************************
         *                GEOMETRY OPTIMIZATION CYCLE   1            *
         *************************************************************
---------------------------------
CARTESIAN COORDINATES (ANGSTROEM)
---------------------------------
  Ir     0.625432   -0.724238    0.382917
  C      0.172562   -2.847110    0.301886
  C     -0.064097   -2.412914    1.655005
  C      2.166188   -2.049112    1.154740
  C      1.541430   -2.647911    0.010101
  C      1.164422   -1.940429    2.164550
  N     -1.076593    0.123892   -0.516141
  C     -2.338869    0.319556    0.210937
  C     -3.136093    1.528405   -0.257423
  H     -3.960456    1.695293    0.434040
  H     -3.580590    1.387525   -1.243611
  H     -2.531183    2.435357   -0.270675
  C     -3.165963   -0.959340    0.133221
  H     -2.044767    0.486686    1.248232
  H     -4.062043   -0.859426    0.744369
  H     -3.481280   -1.161375   -0.891210
  H     -2.615213   -1.825561    0.496107
  C     -0.934712    0.486019   -1.733427
  C      0.381383    0.293600   -2.248565
  H     -1.738024    0.931495   -2.310700
  C      1.387898    0.017341   -1.310809
  C      2.616676   -0.229507   -2.011571
  S      0.908712    0.273734   -3.856107
  C      2.501904   -0.121270   -3.362094
  H      1.589836    1.121740   -0.669493
  H      3.560511   -0.416585   -1.519713
  H      3.279753   -0.229636   -4.102682
  H     -0.553853   -3.292500   -0.361993
  H     -0.994391   -2.474215    2.198522
  H      1.308393   -1.497789    3.140042
  O      1.702549    2.333825    0.050471
  O      0.594188    1.031979    1.475341
  C      1.133239    2.134082    1.139219
  C      1.090769    3.242497    2.151162
  H      0.987497    4.207014    1.659759
  H      2.035282    3.256772    2.697814
  H      0.287491    3.099410    2.868596
  H      3.213829   -1.818824    1.271294
  H      2.027556   -2.899291   -0.921372

----------------------------
CARTESIAN COORDINATES (A.U.)
----------------------------
  NO LB      ZA    FRAG     MASS         X           Y           Z
   0 Ir   17.0000*   0   192.220    1.181895   -1.368611    0.723608
   1 C     6.0000    0    12.011    0.326095   -5.380258    0.570482
   2 C     6.0000    0    12.011   -0.121126   -4.559747    3.127506
   3 C     6.0000    0    12.011    4.093502   -3.872260    2.182143
   4 C     6.0000    0    12.011    2.912880   -5.003827    0.019088
   5 C     6.0000    0    12.011    2.200438   -3.666879    4.090407
   6 N     7.0000    0    14.007   -2.034466    0.234121   -0.975365
   7 C     6.0000    0    12.011   -4.419821    0.603873    0.398612
   8 C     6.0000    0    12.011   -5.926357    2.888267   -0.486459
   9 H     1.0000    0     1.008   -7.484178    3.203640    0.820217
  10 H     1.0000    0     1.008   -6.766334    2.622043   -2.350085
  11 H     1.0000    0     1.008   -4.783242    4.602158   -0.511502
  12 C     6.0000    0    12.011   -5.982802   -1.812890    0.251751
  13 H     1.0000    0     1.008   -3.864049    0.919704    2.358817
  14 H     1.0000    0     1.008   -7.676150   -1.624081    1.406654
  15 H     1.0000    0     1.008   -6.578666   -2.194681   -1.684143
  16 H     1.0000    0     1.008   -4.942036   -3.449809    0.937505
  17 C     6.0000    0    12.011   -1.766350    0.918443   -3.275702
  18 C     6.0000    0    12.011    0.720709    0.554824   -4.249171
  19 H     1.0000    0     1.008   -3.284389    1.760270   -4.366590
  20 C     6.0000    0    12.011    2.622747    0.032769   -2.477070
  21 C     6.0000    0    12.011    4.944801   -0.433705   -3.801318
  22 S    16.0000    0    32.060    1.717216    0.517282   -7.286987
  23 C     6.0000    0    12.011    4.727914   -0.229167   -6.353436
  24 H     1.0000    0     1.008    3.004354    2.119780   -1.265159
  25 H     1.0000    0     1.008    6.728390   -0.787231   -2.871842
  26 H     1.0000    0     1.008    6.197834   -0.433949   -7.752944
  27 H     1.0000    0     1.008   -1.046630   -6.221923   -0.684068
  28 H     1.0000    0     1.008   -1.879126   -4.675588    4.154604
  29 H     1.0000    0     1.008    2.472504   -2.830410    5.933819
  30 O     8.0000    0    15.999    3.217351    4.410290    0.095377
  31 O     8.0000    0    15.999    1.122853    1.950158    2.787991
  32 C     6.0000    0    12.011    2.141511    4.032831    2.152812
  33 C     6.0000    0    12.011    2.061254    6.127431    4.065107
  34 H     1.0000    0     1.008    1.866098    7.950104    3.136490
  35 H     1.0000    0     1.008    3.846125    6.154408    5.098130
  36 H     1.0000    0     1.008    0.543278    5.857035    5.420861
  37 H     1.0000    0     1.008    6.073256   -3.437079    2.402397
  38 H     1.0000    0     1.008    3.831525   -5.478867   -1.741141
* core charge reduced due to ECP

--------------------------------
INTERNAL COORDINATES (ANGSTROEM)
--------------------------------
 Ir     0   0   0     0.000000000000     0.00000000     0.00000000
 C      1   0   0     2.172305358757     0.00000000     0.00000000
 C      2   1   0     1.440715815693    72.82590175     0.00000000
 C      1   2   3     2.173905311233    64.21925970    79.10543343
 C      2   1   3     1.413398492196    70.62074130   243.08232222
 C      3   2   1     1.410543324416   107.29726819   298.42025096
 N      1   2   3     2.102944852546   102.13475902   257.00296033
 C      7   1   2     1.469777189891   122.42493298    79.97604824
 C      8   7   1     1.521913804171   113.78942719   148.63839660
 H      9   8   7     1.088823220388   108.83878495   189.34622054
 H      9   8   7     1.090864736598   112.89698118    71.21745591
 H      9   8   7     1.090252967949   111.95338787   308.00619693
 C      8   7   1     1.525022967899   109.20378380   273.91115140
 H      8   7   1     1.091056665277   105.02249303    30.50914167
 H     13   8   7     1.089235543978   109.91674287   174.81222587
 H     13   8   7     1.090731974212   111.09937144   294.07505288
 H     13   8   7     1.088732398664   112.07830380    55.22577184
 C      7   1   2     1.282719501398   115.70321283   258.58712344
 C     18   7   1     1.430948345010   114.74157711   357.57064321
 H     18   7   1     1.084888099244   122.43368924   179.54308871
 C     19  18   7     1.401905685901   116.66330120   346.76231218
 C     21  19  18     1.435225858966   109.01987331   176.36768018
 S     19  18   7     1.692048993924   129.28182174   163.45742644
 C     22  21  19     1.359830504387   113.35441927     0.75860514
 H     21  19  18     1.292510635062   105.98152617   288.58468075
 H     22  21  19     1.080583682146   123.78529718   176.78058469
 H     24  22  21     1.079428111212   127.77931293   178.04084121
 H      2   1   3     1.080178385231   124.47093361   122.57981539
 H      3   2   1     1.079168568637   126.69587973   120.84657217
 H      6   3   2     1.080849581657   125.36610171   176.66448621
 O     25  21  19     1.428571443713   174.49516464    67.74778695
 O      1   2   3     2.068942482981   147.79750785   352.41251039
 C     31  25  21     1.244596417804   107.20579737    36.24958326
 C     33  31  25     1.501464850414   118.90863745   179.73029335
 H     34  33  31     1.087397064467   110.66583117    35.69245603
 H     34  33  31     1.091386044095   108.82914248   278.05184733
 H     34  33  31     1.086474175744   111.63734849   158.80625744
 H      4   1   2     1.078962978647   126.61110503   158.90249067
 H      5   2   1     1.080341111495   125.51720126   242.17289707

---------------------------
INTERNAL COORDINATES (A.U.)
---------------------------
 Ir     0   0   0     0.000000000000     0.00000000     0.00000000
 C      1   0   0     4.105062207300     0.00000000     0.00000000
 C      2   1   0     2.722558328468    72.82590175     0.00000000
 C      1   2   3     4.108085679308    64.21925970    79.10543343
 C      2   1   3     2.670936068347    70.62074130   243.08232222
 C      3   2   1     2.665540583177   107.29726819   298.42025096
 N      1   2   3     3.973989846051   102.13475902   257.00296033
 C      7   1   2     2.777476366779   122.42493298    79.97604824
 C      8   7   1     2.876000289317   113.78942719   148.63839660
 H      9   8   7     2.057577694788   108.83878495   189.34622054
 H      9   8   7     2.061435601322   112.89698118    71.21745591
 H      9   8   7     2.060279526118   111.95338787   308.00619693
 C      8   7   1     2.881875757268   109.20378380   273.91115140
 H      8   7   1     2.061798293963   105.02249303    30.50914167
 H     13   8   7     2.058356873450   109.91674287   174.81222587
 H     13   8   7     2.061184716773   111.09937144   294.07505288
 H     13   8   7     2.057406066602   112.07830380    55.22577184
 C      7   1   2     2.423988564283   115.70321283   258.58712344
 C     18   7   1     2.704100483857   114.74157711   357.57064321
 H     18   7   1     2.050141393522   122.43368924   179.54308871
 C     19  18   7     2.649217811940   116.66330120   346.76231218
 C     21  19  18     2.712183813769   109.01987331   176.36768018
 S     19  18   7     3.197509203694   129.28182174   163.45742644
 C     22  21  19     2.569707241843   113.35441927     0.75860514
 H     21  19  18     2.442491125448   105.98152617   288.58468075
 H     22  21  19     2.042007224040   123.78529718   176.78058469
 H     24  22  21     2.039823511446   127.77931293   178.04084121
 H      2   1   3     2.041241323867   124.47093361   122.57981539
 H      3   2   1     2.039333047060   126.69587973   120.84657217
 H      6   3   2     2.042509701295   125.36610171   176.66448621
 O     25  21  19     2.699608791358   174.49516464    67.74778695
 O      1   2   3     3.909734679670   147.79750785   352.41251039
 C     31  25  21     2.351946376909   107.20579737    36.24958326
 C     33  31  25     2.837357366992   118.90863745   179.73029335
 H     34  33  31     2.054882650672   110.66583117    35.69245603
 H     34  33  31     2.062420729723   108.82914248   278.05184733
 H     34  33  31     2.053138643733   111.63734849   158.80625744
 H      4   1   2     2.038944538283   126.61110503   158.90249067
 H      5   2   1     2.041548831941   125.51720126   242.17289707

---------------------
BASIS SET INFORMATION
---------------------
There are 6 groups of distinct atoms

 Group   1 Type Ir  : 7s6p5d1f contracted to 6s3p2d1f pattern {211111/411/41/1}
 Group   2 Type C   : 8s4p1d contracted to 4s2p1d pattern {5111/31/1}
 Group   3 Type N   : 8s4p1d contracted to 4s2p1d pattern {5111/31/1}
 Group   4 Type H   : 4s contracted to 2s pattern {31}
 Group   5 Type S   : 10s7p1d contracted to 4s3p1d pattern {5311/511/1}
 Group   6 Type O   : 8s4p1d contracted to 4s2p1d pattern {5111/31/1}

Atom   0Ir   basis set group =>   1
Atom   1C    basis set group =>   2
Atom   2C    basis set group =>   2
Atom   3C    basis set group =>   2
Atom   4C    basis set group =>   2
Atom   5C    basis set group =>   2
Atom   6N    basis set group =>   3
Atom   7C    basis set group =>   2
Atom   8C    basis set group =>   2
Atom   9H    basis set group =>   4
Atom  10H    basis set group =>   4
Atom  11H    basis set group =>   4
Atom  12C    basis set group =>   2
Atom  13H    basis set group =>   4
Atom  14H    basis set group =>   4
Atom  15H    basis set group =>   4
Atom  16H    basis set group =>   4
Atom  17C    basis set group =>   2
Atom  18C    basis set group =>   2
Atom  19H    basis set group =>   4
Atom  20C    basis set group =>   2
Atom  21C    basis set group =>   2
Atom  22S    basis set group =>   5
Atom  23C    basis set group =>   2
Atom  24H    basis set group =>   4
Atom  25H    basis set group =>   4
Atom  26H    basis set group =>   4
Atom  27H    basis set group =>   4
Atom  28H    basis set group =>   4
Atom  29H    basis set group =>   4
Atom  30O    basis set group =>   6
Atom  31O    basis set group =>   6
Atom  32C    basis set group =>   2
Atom  33C    basis set group =>   2
Atom  34H    basis set group =>   4
Atom  35H    basis set group =>   4
Atom  36H    basis set group =>   4
Atom  37H    basis set group =>   4
Atom  38H    basis set group =>   4
---------------------------------
AUXILIARY/J BASIS SET INFORMATION
---------------------------------
There are 6 groups of distinct atoms

 Group   1 Type Ir  : 11s5p5d3f3g contracted to 8s5p5d2f3g pattern {41111111/11111/11111/21/111}
 Group   2 Type C   : 12s5p4d2f1g contracted to 6s4p3d1f1g pattern {711111/2111/211/2/1}
 Group   3 Type N   : 12s5p4d2f1g contracted to 6s4p3d1f1g pattern {711111/2111/211/2/1}
 Group   4 Type H   : 5s2p1d contracted to 3s1p1d pattern {311/2/1}
 Group   5 Type S   : 14s5p5d2f1g contracted to 8s4p3d1f1g pattern {71111111/2111/311/2/1}
 Group   6 Type O   : 12s5p4d2f1g contracted to 6s4p3d1f1g pattern {711111/2111/211/2/1}

Atom   0Ir   basis set group =>   1
Atom   1C    basis set group =>   2
Atom   2C    basis set group =>   2
Atom   3C    basis set group =>   2
Atom   4C    basis set group =>   2
Atom   5C    basis set group =>   2
Atom   6N    basis set group =>   3
Atom   7C    basis set group =>   2
Atom   8C    basis set group =>   2
Atom   9H    basis set group =>   4
Atom  10H    basis set group =>   4
Atom  11H    basis set group =>   4
Atom  12C    basis set group =>   2
Atom  13H    basis set group =>   4
Atom  14H    basis set group =>   4
Atom  15H    basis set group =>   4
Atom  16H    basis set group =>   4
Atom  17C    basis set group =>   2
Atom  18C    basis set group =>   2
Atom  19H    basis set group =>   4
Atom  20C    basis set group =>   2
Atom  21C    basis set group =>   2
Atom  22S    basis set group =>   5
Atom  23C    basis set group =>   2
Atom  24H    basis set group =>   4
Atom  25H    basis set group =>   4
Atom  26H    basis set group =>   4
Atom  27H    basis set group =>   4
Atom  28H    basis set group =>   4
Atom  29H    basis set group =>   4
Atom  30O    basis set group =>   6
Atom  31O    basis set group =>   6
Atom  32C    basis set group =>   2
Atom  33C    basis set group =>   2
Atom  34H    basis set group =>   4
Atom  35H    basis set group =>   4
Atom  36H    basis set group =>   4
Atom  37H    basis set group =>   4
Atom  38H    basis set group =>   4
-------------------------
ECP PARAMETER INFORMATION
-------------------------

 Group 1, Type Ir ECP Def2-ECP (replacing 60 core electrons, lmax=3)

Atom   0Ir   ECP group =>   1

------------------------------------------------------------------------------
                           ORCA GTO INTEGRAL CALCULATION
                           -- RI-GTO INTEGRALS CHOSEN --
------------------------------------------------------------------------------
------------------------------------------------------------------------------
                   ___                                                        
                  /   \      - P O W E R E D   B Y -                         
                 /     \                                                     
                 |  |  |   _    _      __       _____    __    __             
                 |  |  |  | |  | |    /  \     |  _  \  |  |  /  |          
                  \  \/   | |  | |   /    \    | | | |  |  | /  /          
                 / \  \   | |__| |  /  /\  \   | |_| |  |  |/  /          
                |  |  |   |  __  | /  /__\  \  |    /   |      \           
                |  |  |   | |  | | |   __   |  |    \   |  |\   \          
                \     /   | |  | | |  |  |  |  | |\  \  |  | \   \       
                 \___/    |_|  |_| |__|  |__|  |_| \__\ |__|  \__/        
                                                                              
                      - O R C A' S   B I G   F R I E N D -                    
                                      &                                       
                       - I N T E G R A L  F E E D E R -                       
                                                                              
 v1 FN, 2020, v2 2021                                                         
------------------------------------------------------------------------------


Reading SHARK input file reaction4-IEIP_ts_guess_scan_14-6_orca.SHARKINP.tmp ... ok
----------------------
SHARK INTEGRAL PACKAGE
----------------------

Number of atoms                             ...     39
Number of basis functions                   ...    358
Number of shells                            ...    184
Maximum angular momentum                    ...      3
Integral batch strategy                     ... SHARK/LIBINT Hybrid
RI-J (if used) integral strategy            ... SPLIT-RIJ (Revised 2003 algorithm where possible)
Printlevel                                  ...      1
Contraction scheme used                     ... SEGMENTED contraction
Coulomb Range Separation                    ... NOT USED
Exchange Range Separation                   ... NOT USED
Finite Nucleus Model                        ... NOT USED
Auxiliary Coulomb fitting basis             ... AVAILABLE
   # of basis functions in Aux-J            ...   1231
   # of shells in Aux-J                     ...    405
   Maximum angular momentum in Aux-J        ...      4
Auxiliary J/K fitting basis                 ... NOT available
Auxiliary Correlation fitting basis         ... NOT available
Auxiliary 'external' fitting basis          ... NOT available
Integral threshold                          ...     2.500000e-11
Primitive cut-off                           ...     2.500000e-12
Primitive pair pre-selection threshold      ...     2.500000e-12

Calculating pre-screening integrals         ... done (  0.1 sec) Dimension = 184
Organizing shell pair data                  ... done (  0.3 sec)
Shell pair information
Total number of shell pairs                 ...     17020
Shell pairs after pre-screening             ...     13012
Total number of primitive shell pairs       ...     60705
Primitive shell pairs kept                  ...     29273
          la=0 lb=0:   4979 shell pairs
          la=1 lb=0:   4272 shell pairs
          la=1 lb=1:    860 shell pairs
          la=2 lb=0:   1758 shell pairs
          la=2 lb=1:    792 shell pairs
          la=2 lb=2:    176 shell pairs
          la=3 lb=0:    112 shell pairs
          la=3 lb=1:     41 shell pairs
          la=3 lb=2:     21 shell pairs
          la=3 lb=3:      1 shell pairs

Calculating one electron integrals          ... done (  0.2 sec)
Calculating ECP integrals                   ... done (  0.9 sec)
Calculating RI/J V-Matrix + Cholesky decomp.... done (  0.1 sec)
Calculating Nuclear repulsion               ... done (  0.0 sec) ENN=   2041.968270296878 Eh

SHARK setup successfully completed in   2.0 seconds

Maximum memory used throughout the entire GTOINT-calculation: 91.1 MB
-------------------------------------------------------------------------------
                                 ORCA SCF
-------------------------------------------------------------------------------

------------
SCF SETTINGS
------------
Hamiltonian:
 Density Functional     Method          .... DFT(GTOs)
 Exchange Functional    Exchange        .... PBE
   PBE kappa parameter   XKappa         ....  1.024500
   PBE mue parameter    XMuePBE         ....  0.123457
 Correlation Functional Correlation     .... PBE
   PBE beta parameter  CBetaPBE         ....  0.030000
 LDA part of GGA corr.  LDAOpt          .... PW91-LDA
 Gradients option       PostSCFGGA      .... off
 Hybrid DFT is turned on
   Fraction HF Exchange ScalHFX         ....  0.420000
   Scaling of DF-GGA-X  ScalDFX         ....  0.580000
   Scaling of DF-GGA-C  ScalDFC         ....  1.000000
   Scaling of DF-LDA-C  ScalLDAC        ....  1.000000
   Perturbative correction              ....  0.000000
   Density functional embedding theory  .... OFF
 RI-approximation to the Coulomb term is turned on
   Number of AuxJ basis functions       .... 1231
   RIJ-ON(X) (HFX calculated with O(N)) .... on
   Number of AuxJ basis functions       .... 1231
   RIJ-COSX (HFX calculated with COS-X)).... on


General Settings:
 Integral files         IntName         .... reaction4-IEIP_ts_guess_scan_14-6_orca
 Hartree-Fock type      HFTyp           .... RHF
 Total Charge           Charge          ....    1
 Multiplicity           Mult            ....    1
 Number of Electrons    NEL             ....  164
 Basis Dimension        Dim             ....  358
 Nuclear Repulsion      ENuc            ....   2041.9682702969 Eh

Convergence Acceleration:
 DIIS                   CNVDIIS         .... on
   Start iteration      DIISMaxIt       ....    12
   Startup error        DIISStart       ....  0.200000
   # of expansion vecs  DIISMaxEq       ....     5
   Bias factor          DIISBfac        ....   1.050
   Max. coefficient     DIISMaxC        ....  10.000
 Trust-Rad. Augm. Hess. CNVTRAH         .... auto
   Auto Start mean grad. ratio tolernc. ....  1.125000
   Auto Start start iteration           ....    20
   Auto Start num. interpolation iter.  ....    10
   Max. Number of Micro iterations      ....    16
   Max. Number of Macro iterations      .... Maxiter - #DIIS iter
   Number of Davidson start vectors     ....     2
   Converg. threshold I  (grad. norm)   ....   1.000e-05
   Converg. threshold II (energy diff.) ....   1.000e-08
   Grad. Scal. Fac. for Micro threshold ....   0.100
   Minimum threshold for Micro iter.    ....   0.010
   NR start threshold (gradient norm)   ....   0.001
   Initial trust radius                 ....   0.400
   Minimum AH scaling param. (alpha)    ....   1.000
   Maximum AH scaling param. (alpha)    .... 1000.000
   Orbital update algorithm             .... Taylor
   White noise on init. David. guess    .... on
   Maximum white noise                  ....   0.010
   Quad. conv. algorithm                .... NR
   COSX micro iterations for RIJONX calc.... off
 SOSCF                  CNVSOSCF        .... off
 Level Shifting         CNVShift        .... on
   Level shift para.    LevelShift      ....    0.2500
   Turn off err/grad.   ShiftErr        ....    0.0010
 Zerner damping         CNVZerner       .... off
 Static damping         CNVDamp         .... on
   Fraction old density DampFac         ....    0.7000
   Max. Damping (<1)    DampMax         ....    0.9800
   Min. Damping (>=0)   DampMin         ....    0.0000
   Turn off err/grad.   DampErr         ....    0.1000
 Fernandez-Rico         CNVRico         .... off

SCF Procedure:
 Maximum # iterations   MaxIter         ....   250
 SCF integral mode      SCFMode         .... Direct
   Integral package                     .... SHARK and LIBINT hybrid scheme
 Reset frequency        DirectResetFreq ....    20
 Integral Threshold     Thresh          ....  2.500e-11 Eh
 Primitive CutOff       TCut            ....  2.500e-12 Eh

Convergence Tolerance:
 Convergence Check Mode ConvCheckMode   .... Total+1el-Energy
 Convergence forced     ConvForced      .... 0
 Energy Change          TolE            ....  1.000e-08 Eh
 1-El. energy change                    ....  1.000e-05 Eh
 DIIS Error             TolErr          ....  5.000e-07


Diagonalization of the overlap matrix:
Smallest eigenvalue                        ... 1.106e-03
Time for diagonalization                   ...    0.034 sec
Threshold for overlap eigenvalues          ... 1.000e-08
Number of eigenvalues below threshold      ... 0
Time for construction of square roots      ...    0.011 sec
Total time needed                          ...    0.046 sec

--------------------
INITIAL GUESS: HCORE
--------------------
                      -----------------
                      INTIAL GUESS DONE 
                      -----------------
-------------------
DFT GRID GENERATION
-------------------

General Integration Accuracy     IntAcc      ... 4.159
Radial Grid Type                 RadialGrid  ... OptM3 with GC (2021)
Angular Grid (max. ang.)         AngularGrid ... 3 (Lebedev-194)
Angular grid pruning method      GridPruning ... 4 (adaptive)
Weight generation scheme         WeightScheme... Becke
Basis function cutoff            BFCut       ... 1.0000e-11
Integration weight cutoff        WCut        ... 1.0000e-14
Angular grids for H and He will be reduced by one unit
Partially contracted basis set               ... off
Rotationally invariant grid construction     ... off

Total number of grid points                  ...    93267
Total number of batches                      ...     1478
Average number of points per batch           ...       63
Average number of grid points per atom       ...     2391
Time for grid setup =    1.690 sec

--------------------
COSX GRID GENERATION
--------------------

GRIDX 1
-------
General Integration Accuracy     IntAcc      ... 3.816
Radial Grid Type                 RadialGrid  ... OptM3 with GC (2021)
Angular Grid (max. ang.)         AngularGrid ... 1 (Lebedev-50)
Angular grid pruning method      GridPruning ... 4 (adaptive)
Weight generation scheme         WeightScheme... Becke
Basis function cutoff            BFCut       ... 1.0000e-11
Integration weight cutoff        WCut        ... 1.0000e-14
Angular grids for H and He will be reduced by one unit
Partially contracted basis set               ... on
Rotationally invariant grid construction     ... off

Total number of grid points                  ...    23193
Total number of batches                      ...      378
Average number of points per batch           ...       61
Average number of grid points per atom       ...      595
UseSFitting                                  ... on

GRIDX 2
-------
General Integration Accuracy     IntAcc      ... 4.020
Radial Grid Type                 RadialGrid  ... OptM3 with GC (2021)
Angular Grid (max. ang.)         AngularGrid ... 2 (Lebedev-110)
Angular grid pruning method      GridPruning ... 4 (adaptive)
Weight generation scheme         WeightScheme... Becke
Basis function cutoff            BFCut       ... 1.0000e-11
Integration weight cutoff        WCut        ... 1.0000e-14
Angular grids for H and He will be reduced by one unit
Partially contracted basis set               ... on
Rotationally invariant grid construction     ... off

Total number of grid points                  ...    50309
Total number of batches                      ...      808
Average number of points per batch           ...       62
Average number of grid points per atom       ...     1290
UseSFitting                                  ... on

GRIDX 3
-------
General Integration Accuracy     IntAcc      ... 4.338
Radial Grid Type                 RadialGrid  ... OptM3 with GC (2021)
Angular Grid (max. ang.)         AngularGrid ... 3 (Lebedev-194)
Angular grid pruning method      GridPruning ... 4 (adaptive)
Weight generation scheme         WeightScheme... Becke
Basis function cutoff            BFCut       ... 1.0000e-11
Integration weight cutoff        WCut        ... 1.0000e-14
Angular grids for H and He will be reduced by one unit
Partially contracted basis set               ... on
Rotationally invariant grid construction     ... off

Total number of grid points                  ...   108709
Total number of batches                      ...     1716
Average number of points per batch           ...       63
Average number of grid points per atom       ...     2787
UseSFitting                                  ... on

Time for X-Grid setup             =    4.532 sec

--------------
SCF ITERATIONS
--------------
ITER       Energy         Delta-E        Max-DP      RMS-DP      [F,P]     Damp
               ***  Starting incremental Fock matrix formation  ***
  0   -817.6737667921   0.00000000000020.25318790  0.14777964  3.5636678 0.7000
  1  -1076.9290356990-259.255268906957 7.63385287  0.13478327  1.6972263 0.7000
  2  -1155.3520796247 -78.423043925618 5.41488210  0.06975691  1.0648660 0.7000
  3  -1184.7857218127 -29.433642188037 3.70383714  0.04714431  0.7772358 0.7000
  4  -1206.7324816613 -21.946759848562 2.64986198  0.03811515  0.4897867 0.7000
  5  -1221.4483240427 -14.715842381466 2.11857473  0.03238813  0.3565071 0.7000
  6  -1233.2435333426 -11.795209299867 1.92266771  0.02865661  0.2838856 0.7000
  7  -1241.7302529798  -8.486719637188 1.64252458  0.02612846  0.3006275 0.7000
  8  -1249.2200872011  -7.489834221277 1.68205745  0.02501269  0.2746496 0.7000
  9  -1252.2623545677  -3.042267366649 1.52126961  0.02371979  0.3344331 0.7000
 10  -1256.4433501218  -4.180995554084 1.50837812  0.02320742  0.2975270 0.7000
 11  -1257.6139787605  -1.170628638754 1.44163097  0.02329125  0.3409322 0.7000
                               ***Turning on DIIS***
 12  -1260.0955237855  -2.481545024998 1.40969124  0.02283628  0.3085963 0.7000
 13  -1260.2736994315  -0.178175645956 1.25528734  0.01926754  0.3441172 0.7000
 14  -1268.0180909794  -7.744391547892 0.87920878  0.01376817  0.2663651 0.7000
 15  -1274.4156805901  -6.397589610729 0.61904223  0.00974681  0.1977809 0.7000
 16  -1278.8915836827  -4.475903092556 0.43751433  0.00689173  0.1391070 0.7000
 17  -1281.9093438910  -3.017760208355 1.02698205  0.01622103  0.0925570 0.0000
 18  -1288.4192277073  -6.509883816250 0.04273965  0.00060735  0.0297077 0.0000
 19  -1288.4390507487  -0.019823041410 0.03491079  0.00048236  0.0210784 0.0000
               *** Restarting incremental Fock matrix formation ***
                                   *** Resetting DIIS ***
 20  -1288.4417871581  -0.002736409400 0.04534907  0.00054996  0.0179074 0.0000
 21  -1288.4422142848  -0.000427126751 0.02116892  0.00023132  0.0236745 0.0000
 22  -1288.4451038655  -0.002889580701 0.00441138  0.00007900  0.0045004 0.0000
 23  -1288.4453321414  -0.000228275866 0.00416650  0.00004015  0.0025490 0.0000
 24  -1288.4453819746  -0.000049833171 0.00349240  0.00003902  0.0008345 0.0000
               *** Restarting incremental Fock matrix formation ***
                                   *** Resetting DIIS ***
 25  -1288.4457162836  -0.000334309000 0.00493570  0.00010048  0.0007163 0.0000
 26  -1288.4457355333  -0.000019249745 0.00122685  0.00001428  0.0006190 0.0000
 27  -1288.4457362849  -0.000000751533 0.00081866  0.00000811  0.0006525 0.0000
 28  -1288.4457387543  -0.000002469435 0.00029275  0.00000286  0.0000955 0.0000
 29  -1288.4457388524  -0.000000098069 0.00026505  0.00000199  0.0000753 0.0000
 30  -1288.4457389307  -0.000000078392 0.00011876  0.00000093  0.0000580 0.0000
 31  -1288.4457389600  -0.000000029285 0.00008157  0.00000066  0.0000173 0.0000
 32  -1288.4457389637  -0.000000003679 0.00002815  0.00000028  0.0000084 0.0000
 33  -1288.4457389726  -0.000000008899 0.00001243  0.00000012  0.0000035 0.0000
 34  -1288.4457389805  -0.000000007883 0.00000546  0.00000005  0.0000036 0.0000
 35  -1288.4457389807  -0.000000000178 0.00000525  0.00000004  0.0000015 0.0000
 36  -1288.4457389886  -0.000000007933 0.00000215  0.00000003  0.0000017 0.0000
                            ***DIIS convergence achieved***

               *****************************************************
               *                     SUCCESS                       *
               *           SCF CONVERGED AFTER  37 CYCLES          *
               *****************************************************

Old exchange energy                            =    -59.652221687 Eh
New exchange energy                            =    -59.652365335 Eh
Exchange energy change after final integration =     -0.000143648 Eh
Total energy after final integration           =  -1288.445882627 Eh
Final COS-X integration done in                =    58.412 sec

----------------
TOTAL SCF ENERGY
----------------

Total Energy       :        -1288.44588263 Eh          -35060.39490 eV

Components:
Nuclear Repulsion  :         2041.96827030 Eh           55564.78149 eV
Electronic Energy  :        -3330.41415292 Eh          -90625.17640 eV
One Electron Energy:        -5839.48370201 Eh         -158900.42987 eV
Two Electron Energy:         2509.06954909 Eh           68275.25348 eV
Max COSX asymmetry :            0.00002312 Eh               0.00063 eV

Virial components:
Potential Energy   :        -2501.55935944 Eh          -68070.89083 eV
Kinetic Energy     :         1213.11347681 Eh           33010.49593 eV
Virial Ratio       :            2.06209840


DFT components:
N(Alpha)           :       82.000313312524 electrons
N(Beta)            :       82.000313312524 electrons
N(Total)           :      164.000626625048 electrons
E(X)               :      -79.596982079094 Eh       
E(C)               :       -7.462487950882 Eh       
E(XC)              :      -87.059470029976 Eh       
DFET-embed. en.    :        0.000000000000 Eh       

---------------
SCF CONVERGENCE
---------------

  Last Energy change         ...    9.3810e-09  Tolerance :   1.0000e-08
  Last MAX-Density change    ...    0.0000e+00  Tolerance :   1.0000e-07
  Last RMS-Density change    ...    0.0000e+00  Tolerance :   5.0000e-09
  Last DIIS Error            ...    5.6550e-07  Tolerance :   5.0000e-07

             **** THE GBW FILE WAS UPDATED (reaction4-IEIP_ts_guess_scan_14-6_orca.gbw) ****
             **** DENSITY reaction4-IEIP_ts_guess_scan_14-6_orca.scfp WAS UPDATED ****
             **** ENERGY FILE WAS UPDATED (reaction4-IEIP_ts_guess_scan_14-6_orca.en.tmp) ****
             **** THE GBW FILE WAS UPDATED (reaction4-IEIP_ts_guess_scan_14-6_orca.gbw) ****
             **** DENSITY reaction4-IEIP_ts_guess_scan_14-6_orca.scfp WAS UPDATED ****
----------------
ORBITAL ENERGIES
----------------

  NO   OCC          E(Eh)            E(eV) 
   0   2.0000     -89.766916     -2442.6820 
   1   2.0000     -19.634626      -534.2853 
   2   2.0000     -19.621821      -533.9369 
   3   2.0000     -14.834692      -403.6725 
   4   2.0000     -10.695977      -291.0523 
   5   2.0000     -10.654142      -289.9139 
   6   2.0000     -10.627758      -289.1960 
   7   2.0000     -10.623283      -289.0742 
   8   2.0000     -10.622129      -289.0428 
   9   2.0000     -10.621037      -289.0131 
  10   2.0000     -10.613042      -288.7956 
  11   2.0000     -10.612166      -288.7717 
  12   2.0000     -10.612016      -288.7676 
  13   2.0000     -10.610429      -288.7244 
  14   2.0000     -10.591880      -288.2197 
  15   2.0000     -10.590638      -288.1859 
  16   2.0000     -10.553373      -287.1719 
  17   2.0000     -10.550924      -287.1052 
  18   2.0000     -10.544245      -286.9235 
  19   2.0000      -8.406276      -228.7464 
  20   2.0000      -6.296137      -171.3266 
  21   2.0000      -6.292590      -171.2301 
  22   2.0000      -6.291279      -171.1944 
  23   2.0000      -4.020023      -109.3904 
  24   2.0000      -2.337036       -63.5940 
  25   2.0000      -2.307636       -62.7940 
  26   2.0000      -2.303487       -62.6811 
  27   2.0000      -1.324370       -36.0379 
  28   2.0000      -1.225644       -33.3515 
  29   2.0000      -1.210746       -32.9461 
  30   2.0000      -1.158023       -31.5114 
  31   2.0000      -1.130229       -30.7551 
  32   2.0000      -1.026564       -27.9342 
  33   2.0000      -0.973773       -26.4977 
  34   2.0000      -0.970927       -26.4203 
  35   2.0000      -0.965087       -26.2614 
  36   2.0000      -0.959814       -26.1179 
  37   2.0000      -0.938738       -25.5443 
  38   2.0000      -0.900537       -24.5048 
  39   2.0000      -0.873919       -23.7805 
  40   2.0000      -0.800863       -21.7926 
  41   2.0000      -0.784528       -21.3481 
  42   2.0000      -0.775079       -21.0910 
  43   2.0000      -0.774184       -21.0666 
  44   2.0000      -0.760851       -20.7038 
  45   2.0000      -0.758452       -20.6385 
  46   2.0000      -0.745066       -20.2743 
  47   2.0000      -0.722923       -19.6717 
  48   2.0000      -0.695296       -18.9200 
  49   2.0000      -0.685968       -18.6661 
  50   2.0000      -0.664851       -18.0915 
  51   2.0000      -0.659950       -17.9581 
  52   2.0000      -0.648400       -17.6439 
  53   2.0000      -0.638332       -17.3699 
  54   2.0000      -0.630590       -17.1592 
  55   2.0000      -0.625613       -17.0238 
  56   2.0000      -0.622125       -16.9289 
  57   2.0000      -0.613090       -16.6830 
  58   2.0000      -0.602180       -16.3861 
  59   2.0000      -0.596118       -16.2212 
  60   2.0000      -0.594459       -16.1760 
  61   2.0000      -0.591922       -16.1070 
  62   2.0000      -0.581120       -15.8131 
  63   2.0000      -0.571002       -15.5378 
  64   2.0000      -0.567569       -15.4443 
  65   2.0000      -0.563211       -15.3258 
  66   2.0000      -0.554818       -15.0974 
  67   2.0000      -0.546908       -14.8821 
  68   2.0000      -0.542880       -14.7725 
  69   2.0000      -0.535914       -14.5830 
  70   2.0000      -0.532965       -14.5027 
  71   2.0000      -0.518944       -14.1212 
  72   2.0000      -0.513315       -13.9680 
  73   2.0000      -0.500775       -13.6268 
  74   2.0000      -0.495392       -13.4803 
  75   2.0000      -0.492376       -13.3982 
  76   2.0000      -0.476933       -12.9780 
  77   2.0000      -0.452848       -12.3226 
  78   2.0000      -0.443294       -12.0626 
  79   2.0000      -0.420201       -11.4342 
  80   2.0000      -0.413336       -11.2474 
  81   2.0000      -0.390947       -10.6382 
  82   0.0000      -0.207561        -5.6480 
  83   0.0000      -0.144373        -3.9286 
  84   0.0000      -0.122958        -3.3459 
  85   0.0000      -0.087951        -2.3933 
[...]

----------------------
LOEWDIN ATOMIC CHARGES
----------------------
   0 Ir:   -0.261521
   1 C :   -0.066965
   2 C :   -0.099619
   3 C :   -0.104854
   4 C :   -0.040723
   5 C :   -0.021986
   6 N :    0.001747
   7 C :   -0.069719
   8 C :   -0.361653
   9 H :    0.156189
  10 H :    0.132697
  11 H :    0.143268
  12 C :   -0.343658
  13 H :    0.154397
  14 H :    0.150566
  15 H :    0.138100
  16 H :    0.134081
  17 C :    0.026519
  18 C :   -0.185845
  19 H :    0.160905
  20 C :   -0.218011
  21 C :   -0.123375
  22 S :    0.505909
  23 C :   -0.256432
  24 H :    0.366371
  25 H :    0.163937
  26 H :    0.170335
  27 H :    0.180678
  28 H :    0.177198
  29 H :    0.185731
  30 O :   -0.259144
  31 O :   -0.179896
  32 C :    0.162225
  33 C :   -0.371867
  34 H :    0.163485
  35 H :    0.172075
  36 H :    0.156152
  37 H :    0.179935
  38 H :    0.182768

-------------------------------
LOEWDIN REDUCED ORBITAL CHARGES
-------------------------------
  0 Irs       :     2.447966  s :     2.447966
      pz      :     2.257245  p :     6.780317
      px      :     2.256570
      py      :     2.266502
      dz2     :     1.699257  d :     7.941682
      dxz     :     1.644020
      dyz     :     1.464024
      dx2y2   :     1.587144
      dxy     :     1.547236
      f0      :     0.011253  f :     0.091557
      f+1     :     0.006487
      f-1     :     0.017025
      f+2     :     0.013766
      f-2     :     0.016053
      f+3     :     0.010579
      f-3     :     0.016395
  1 C s       :     2.873293  s :     2.873293
      pz      :     1.054318  p :     3.091372
      px      :     1.071921
      py      :     0.965133
      dz2     :     0.025828  d :     0.102300
      dxz     :     0.025100
      dyz     :     0.016057
      dx2y2   :     0.018839
      dxy     :     0.016476
  2 C s       :     2.877318  s :     2.877318
      pz      :     1.035625  p :     3.124878
      px      :     1.091907
      py      :     0.997346
      dz2     :     0.024323  d :     0.097424
      dxz     :     0.028042
      dyz     :     0.015697
      dx2y2   :     0.017001
      dxy     :     0.012361
  3 C s       :     2.870590  s :     2.870590
      pz      :     1.028760  p :     3.135947
      px      :     1.082825
      py      :     1.024362
      dz2     :     0.021981  d :     0.098316
      dxz     :     0.030893
      dyz     :     0.015630
      dx2y2   :     0.016325
      dxy     :     0.013487
  4 C s       :     2.874073  s :     2.874073
      pz      :     1.077833  p :     3.061721
      px      :     1.045472
      py      :     0.938416
      dz2     :     0.023113  d :     0.104929
      dxz     :     0.028531
      dyz     :     0.013590
      dx2y2   :     0.020267
      dxy     :     0.019428
  5 C s       :     2.883121  s :     2.883121
      pz      :     1.048865  p :     3.036348
      px      :     1.045649
      py      :     0.941834
      dz2     :     0.020953  d :     0.102517
      dxz     :     0.031172
      dyz     :     0.015556
      dx2y2   :     0.015696
      dxy     :     0.019140
  6 N s       :     3.123430  s :     3.123430
      pz      :     1.245156  p :     3.775895
      px      :     1.287168
      py      :     1.243571
      dz2     :     0.030246  d :     0.098927
      dxz     :     0.027234
      dyz     :     0.018542
      dx2y2   :     0.012720
      dxy     :     0.010186
  7 C s       :     2.862271  s :     2.862271
      pz      :     1.053759  p :     3.072719
      px      :     0.941371
      py      :     1.077590
      dz2     :     0.028473  d :     0.134730
      dxz     :     0.029704
      dyz     :     0.012822
      dx2y2   :     0.030623
      dxy     :     0.033107
  8 C s       :     2.953412  s :     2.953412
      pz      :     1.139450  p :     3.340733
      px      :     1.123646
      py      :     1.077636
      dz2     :     0.015093  d :     0.067509
      dxz     :     0.017327
      dyz     :     0.005081
      dx2y2   :     0.010867
      dxy     :     0.019141
  9 H s       :     0.843811  s :     0.843811
 10 H s       :     0.867303  s :     0.867303
 11 H s       :     0.856732  s :     0.856732
 12 C s       :     2.953657  s :     2.953657
      pz      :     1.145564  p :     3.322095
      px      :     1.107829
      py      :     1.068702
      dz2     :     0.015152  d :     0.067905
      dxz     :     0.014575
      dyz     :     0.007408
      dx2y2   :     0.012410
      dxy     :     0.018362
 13 H s       :     0.845603  s :     0.845603
 14 H s       :     0.849434  s :     0.849434
 15 H s       :     0.861900  s :     0.861900
 16 H s       :     0.865919  s :     0.865919
 17 C s       :     2.875203  s :     2.875203
      pz      :     1.003868  p :     2.958255
      px      :     1.059918
      py      :     0.894469
      dz2     :     0.038389  d :     0.140023
      dxz     :     0.046585
      dyz     :     0.026920
      dx2y2   :     0.013085
      dxy     :     0.015044
 18 C s       :     2.891820  s :     2.891820
      pz      :     1.050680  p :     3.181295
      px      :     1.083145
      py      :     1.047470
      dz2     :     0.032899  d :     0.112731
      dxz     :     0.034370
      dyz     :     0.017841
      dx2y2   :     0.015474
      dxy     :     0.012147
 19 H s       :     0.839095  s :     0.839095
 20 C s       :     2.888965  s :     2.888965
      pz      :     1.142749  p :     3.217443
      px      :     1.057789
      py      :     1.016905
      dz2     :     0.017434  d :     0.111603
      dxz     :     0.041230
      dyz     :     0.016261
      dx2y2   :     0.019715
      dxy     :     0.016964
 21 C s       :     2.896921  s :     2.896921
      pz      :     1.076427  p :     3.132145
      px      :     1.082595
      py      :     0.973122
      dz2     :     0.028175  d :     0.094309
      dxz     :     0.031475
      dyz     :     0.015059
      dx2y2   :     0.011950
      dxy     :     0.007650
 22 S s       :     5.497499  s :     5.497499
      pz      :     3.263858  p :     9.839904
      px      :     3.075265
      py      :     3.500781
      dz2     :     0.047846  d :     0.156688
      dxz     :     0.037881
      dyz     :     0.017562
      dx2y2   :     0.025587
      dxy     :     0.027811
 23 C s       :     2.963565  s :     2.963565
      pz      :     1.119205  p :     3.207142
      px      :     1.030472
      py      :     1.057465
      dz2     :     0.023365  d :     0.085725
      dxz     :     0.031242
      dyz     :     0.011569
      dx2y2   :     0.010940
      dxy     :     0.008610
 24 H s       :     0.633629  s :     0.633629
 25 H s       :     0.836063  s :     0.836063
 26 H s       :     0.829665  s :     0.829665
 27 H s       :     0.819322  s :     0.819322
 28 H s       :     0.822802  s :     0.822802
 29 H s       :     0.814269  s :     0.814269
 30 O s       :     3.517869  s :     3.517869
      pz      :     1.449845  p :     4.687229
      px      :     1.575574
      py      :     1.661810
      dz2     :     0.016389  d :     0.054047
      dxz     :     0.014859
      dyz     :     0.013926
      dx2y2   :     0.005430
      dxy     :     0.003444
 31 O s       :     3.442566  s :     3.442566
      pz      :     1.689433  p :     4.677242
      px      :     1.595073
      py      :     1.392736
      dz2     :     0.008941  d :     0.060088
      dxz     :     0.004506
      dyz     :     0.015543
      dx2y2   :     0.014670
      dxy     :     0.016428
 32 C s       :     2.813772  s :     2.813772
      pz      :     0.969647  p :     2.705462
      px      :     0.770850
      py      :     0.964964
      dz2     :     0.071949  d :     0.318541
      dxz     :     0.051108
      dyz     :     0.096648
      dx2y2   :     0.049528
      dxy     :     0.049308
 33 C s       :     2.958755  s :     2.958755
      pz      :     1.103479  p :     3.350554
      px      :     1.154190
      py      :     1.092885
      dz2     :     0.004098  d :     0.062558
      dxz     :     0.016693
      dyz     :     0.021157
      dx2y2   :     0.018473
      dxy     :     0.002137
 34 H s       :     0.836515  s :     0.836515
 35 H s       :     0.827925  s :     0.827925
 36 H s       :     0.843848  s :     0.843848
 37 H s       :     0.820065  s :     0.820065
 38 H s       :     0.817232  s :     0.817232


                      *****************************
                      * MAYER POPULATION ANALYSIS *
                      *****************************

  NA   - Mulliken gross atomic population
  ZA   - Total nuclear charge
  QA   - Mulliken gross atomic charge
  VA   - Mayer's total valence
  BVA  - Mayer's bonded valence
  FA   - Mayer's free valence

  ATOM       NA         ZA         QA         VA         BVA        FA
  0 Ir    16.3804    17.0000     0.6196     3.7687     3.7687     0.0000
  1 C      6.2614     6.0000    -0.2614     3.7358     3.7358    -0.0000
  2 C      6.2458     6.0000    -0.2458     3.7275     3.7275     0.0000
  3 C      6.2844     6.0000    -0.2844     3.7472     3.7472     0.0000
  4 C      6.2160     6.0000    -0.2160     3.7098     3.7098     0.0000
  5 C      6.1485     6.0000    -0.1485     3.6997     3.6997    -0.0000
  6 N      7.4306     7.0000    -0.4306     3.2134     3.2134     0.0000
  7 C      6.1283     6.0000    -0.1283     3.7095     3.7095    -0.0000
  8 C      6.6790     6.0000    -0.6790     3.6881     3.6881    -0.0000
  9 H      0.7310     1.0000     0.2690     0.8975     0.8975     0.0000
 10 H      0.7760     1.0000     0.2240     0.9111     0.9111    -0.0000
 11 H      0.7465     1.0000     0.2535     0.9006     0.9006    -0.0000
 12 C      6.6326     6.0000    -0.6326     3.6707     3.6707    -0.0000
 13 H      0.7213     1.0000     0.2787     0.8733     0.8733    -0.0000
 14 H      0.7418     1.0000     0.2582     0.8989     0.8989    -0.0000
 15 H      0.7672     1.0000     0.2328     0.9094     0.9094     0.0000
 16 H      0.7647     1.0000     0.2353     0.9056     0.9056    -0.0000
 17 C      5.9292     6.0000     0.0708     3.6630     3.6630    -0.0000
 18 C      6.1147     6.0000    -0.1147     3.6839     3.6839     0.0000
 19 H      0.7142     1.0000     0.2858     0.8866     0.8866    -0.0000
 20 C      6.6065     6.0000    -0.6065     3.5948     3.5948    -0.0000
 21 C      6.0839     6.0000    -0.0839     3.7296     3.7296    -0.0000
 22 S     15.6497    16.0000     0.3503     2.6051     2.6051    -0.0000
 23 C      6.4253     6.0000    -0.4253     3.7481     3.7481     0.0000
 24 H      0.5300     1.0000     0.4700     0.7481     0.7481    -0.0000
 25 H      0.7297     1.0000     0.2703     0.8995     0.8995    -0.0000
 26 H      0.7007     1.0000     0.2993     0.8969     0.8969    -0.0000
 27 H      0.7175     1.0000     0.2825     0.9079     0.9079     0.0000
 28 H      0.7213     1.0000     0.2787     0.9097     0.9097    -0.0000
 29 H      0.7056     1.0000     0.2944     0.8969     0.8969     0.0000
 30 O      8.4743     8.0000    -0.4743     2.1539     2.1539    -0.0000
 31 O      8.5059     8.0000    -0.5059     2.1151     2.1151    -0.0000
 32 C      5.3703     6.0000     0.6297     3.8981     3.8981    -0.0000
 33 C      6.7433     6.0000    -0.7433     3.6591     3.6591    -0.0000
 34 H      0.7277     1.0000     0.2723     0.8935     0.8935     0.0000
 35 H      0.7248     1.0000     0.2752     0.8913     0.8913     0.0000
 36 H      0.7389     1.0000     0.2611     0.8976     0.8976    -0.0000
 37 H      0.7216     1.0000     0.2784     0.9116     0.9116     0.0000
 38 H      0.7094     1.0000     0.2906     0.9041     0.9041    -0.0000

  Mayer bond orders larger than 0.100000
B(  0-Ir,  1-C ) :   0.4624 B(  0-Ir,  2-C ) :   0.3554 B(  0-Ir,  3-C ) :   0.4753 
B(  0-Ir,  4-C ) :   0.4115 B(  0-Ir,  5-C ) :   0.3363 B(  0-Ir,  6-N ) :   0.4636 
B(  0-Ir, 20-C ) :   0.5790 B(  0-Ir, 31-O ) :   0.5152 B(  1-C ,  2-C ) :   1.1225 
B(  1-C ,  4-C ) :   1.2162 B(  1-C , 27-H ) :   0.9105 B(  2-C ,  5-C ) :   1.2627 
B(  2-C , 28-H ) :   0.9101 B(  3-C ,  4-C ) :   1.1526 B(  3-C ,  5-C ) :   1.1515 
B(  3-C , 37-H ) :   0.9155 B(  4-C , 38-H ) :   0.8993 B(  5-C , 29-H ) :   0.9027 
B(  6-N ,  7-C ) :   0.8961 B(  6-N , 17-C ) :   1.6434 B(  7-C ,  8-C ) :   0.9899 
B(  7-C , 12-C ) :   0.9664 B(  7-C , 13-H ) :   0.8772 B(  8-C ,  9-H ) :   0.9048 
B(  8-C , 10-H ) :   0.9132 B(  8-C , 11-H ) :   0.9124 B( 12-C , 14-H ) :   0.9078 
B( 12-C , 15-H ) :   0.9151 B( 12-C , 16-H ) :   0.9115 B( 17-C , 18-C ) :   1.1186 
B( 17-C , 19-H ) :   0.8767 B( 18-C , 20-C ) :   1.1972 B( 18-C , 22-S ) :   1.2508 
B( 20-C , 21-C ) :   1.2383 B( 20-C , 24-H ) :   0.3376 B( 21-C , 23-C ) :   1.5466 
B( 21-C , 25-H ) :   0.9006 B( 22-S , 23-C ) :   1.2133 B( 23-C , 26-H ) :   0.8913 
B( 24-H , 30-O ) :   0.3513 B( 30-O , 32-C ) :   1.5692 B( 31-O , 32-C ) :   1.3815 
B( 32-C , 33-C ) :   0.9431 B( 33-C , 34-H ) :   0.9009 B( 33-C , 35-H ) :   0.8934 
B( 33-C , 36-H ) :   0.9078 


------------------
HIRSHFELD ANALYSIS
------------------

Total integrated alpha density =     82.000142994
Total integrated beta density  =     82.000142994

  ATOM     CHARGE      SPIN    
   0 Ir   0.171261    0.000000
   1 C   -0.008716    0.000000
   2 C   -0.018308    0.000000
   3 C   -0.025882    0.000000
   4 C    0.001984    0.000000
   5 C    0.016962    0.000000
   6 N   -0.065334    0.000000
   7 C    0.052556    0.000000
   8 C   -0.071423    0.000000
   9 H    0.053219    0.000000
  10 H    0.037484    0.000000
  11 H    0.040790    0.000000
  12 C   -0.070822    0.000000
  13 H    0.044935    0.000000
  14 H    0.049715    0.000000
  15 H    0.037592    0.000000
  16 H    0.031226    0.000000
  17 C    0.092027    0.000000
  18 C   -0.003194    0.000000
  19 H    0.077743    0.000000
  20 C   -0.091694    0.000000
  21 C   -0.022396    0.000000
  22 S    0.151318    0.000000
  23 C   -0.024171    0.000000
  24 H    0.110831    0.000000
  25 H    0.069108    0.000000
  26 H    0.080338    0.000000
  27 H    0.078938    0.000000
  28 H    0.076978    0.000000
  29 H    0.088880    0.000000
  30 O   -0.234921    0.000000
  31 O   -0.244429    0.000000
  32 C    0.249814    0.000000
  33 C   -0.062161    0.000000
  34 H    0.057723    0.000000
  35 H    0.063950    0.000000
  36 H    0.051447    0.000000
  37 H    0.077867    0.000000
  38 H    0.078477    0.000000

  TOTAL   0.999714    0.000000

-------
TIMINGS
-------

Total SCF time: 0 days 0 hours 4 min 24 sec 

Total time                  ....     264.808 sec
Sum of individual times     ....     264.192 sec  ( 99.8%)

Fock matrix formation       ....     256.057 sec  ( 96.7%)
  Split-RI-J                ....      19.592 sec  (  7.7% of F)
  Chain of spheres X        ....     220.240 sec  ( 86.0% of F)
  XC integration            ....      13.299 sec  (  5.2% of F)
    Basis function eval.    ....       6.252 sec  ( 47.0% of XC)
    Density eval.           ....       3.524 sec  ( 26.5% of XC)
    XC-Functional eval.     ....       0.986 sec  (  7.4% of XC)
    XC-Potential eval.      ....       2.022 sec  ( 15.2% of XC)
Diagonalization             ....       0.221 sec  (  0.1%)
Density matrix formation    ....       0.035 sec  (  0.0%)
Population analysis         ....       1.380 sec  (  0.5%)
Initial guess               ....       0.050 sec  (  0.0%)
Orbital Transformation      ....       0.000 sec  (  0.0%)
Orbital Orthonormalization  ....       0.037 sec  (  0.0%)
DIIS solution               ....       0.090 sec  (  0.0%)
Grid generation             ....       6.359 sec  (  2.4%)

Maximum memory used throughout the entire SCF-calculation: 173.7 MB


-------------------------------------------------------------------------------
                          DFT DISPERSION CORRECTION                            
                                                                               
                              DFTD3 V3.1  Rev 1                                
                          USING Becke-Johnson damping                          
-------------------------------------------------------------------------------
The PBEh-3c composite method is recognized
Using three-body term ABC
Active option DFTDOPT                   ...         4   

molecular C6(AA) [au] = 19538.809025 


            DFT-D V3
 parameters
 s6 scaling factor         :     1.0000 
 a1 scaling factor         :     0.4860 
 s8 scaling factor         :     0.0000 
 a2 scaling factor         :     4.5000 
 Damping factor alpha9(ATM):    16.0000 
 ad hoc parameters k1-k3   :    16.0000     1.3333    -4.0000 

 Edisp/kcal,au: -19.351079072598  -0.030837904140 
 E6   /kcal   : -19.688942870 
 E8   /kcal   :  -0.000000000 
 E6(ABC)      :   0.337863797 
 % E8         :   0.000000000 
 % E6(ABC)    :  -1.745968771 

-------------------------   ----------------
Dispersion correction           -0.030837904
-------------------------   ----------------

 ** NOTE ** -> element ir will be treated as co
NOTIFICATION: Different basis set in ORCA and otool_gcp:
ORCA: 358  gCP: 357 
If you are NOT using ECPs, check your basis set inputs!
------------------   -----------------
gCP correction             0.080157602
------------------   -----------------

-------------------------   --------------------
FINAL SINGLE POINT ENERGY     -1288.396162628681
-------------------------   --------------------

                                *** OPTIMIZATION RUN DONE ***

                            ***************************************
                            *     ORCA property calculations      *
                            ***************************************

                                    ---------------------
                                    Active property flags
                                    ---------------------
   (+) Dipole Moment


------------------------------------------------------------------------------
                       ORCA ELECTRIC PROPERTIES CALCULATION
------------------------------------------------------------------------------

Dipole Moment Calculation                       ... on
Quadrupole Moment Calculation                   ... off
Polarizability Calculation                      ... off
GBWName                                         ... reaction4-IEIP_ts_guess_scan_14-6_orca.gbw
Electron density                                ... reaction4-IEIP_ts_guess_scan_14-6_orca.scfp
The origin for moment calculation is the CENTER OF MASS  = ( 0.875375, -0.543581 -0.213625)

-------------
DIPOLE MOMENT
-------------
                                X             Y             Z
Electronic contribution:     38.49833     -74.51768      67.19849
Nuclear contribution   :    -39.10372      74.14124     -67.54923
                        -----------------------------------------
Total Dipole Moment    :     -0.60539      -0.37644      -0.35074
                        -----------------------------------------
Magnitude (a.u.)       :      0.79449
Magnitude (Debye)      :      2.01944



--------------------
Rotational spectrum 
--------------------
 
Rotational constants in cm-1:     0.010555     0.009005     0.008273 
Rotational constants in MHz :   316.424428   269.953183   248.016979 

 Dipole components along the rotational axes: 
x,y,z [a.u.] :    -0.061117     0.153486     0.777127 
x,y,z [Debye]:    -0.155347     0.390131     1.975299 

 

Timings for individual modules:

Sum of individual times         ...     7620.070 sec (= 127.001 min)
GTO integral calculation        ...       25.880 sec (=   0.431 min)   0.3 %
SCF iterations                  ...     5969.577 sec (=  99.493 min)  78.3 %
SCF Gradient evaluation         ...     1619.947 sec (=  26.999 min)  21.3 %
Geometry relaxation             ...        4.666 sec (=   0.078 min)   0.1 %
                             ****ORCA TERMINATED NORMALLY****
TOTAL RUN TIME: 0 days 2 hours 7 minutes 6 seconds 486 msec
