
                                 *****************
                                 * O   R   C   A *
                                 *****************

                                            #,                                       
                                            ###                                      
                                            ####                                     
                                            #####                                    
                                            ######                                   
                                           ########,                                 
                                     ,,################,,,,,                         
                               ,,#################################,,                 
                          ,,##########################################,,             
                       ,#########################################, ''#####,          
                    ,#############################################,,   '####,        
                  ,##################################################,,,,####,       
                ,###########''''           ''''###############################       
              ,#####''   ,,,,##########,,,,          '''####'''          '####       
            ,##' ,,,,###########################,,,                        '##       
           ' ,,###''''                  '''############,,,                           
         ,,##''                                '''############,,,,        ,,,,,,###''
      ,#''                                            '''#######################'''  
     '                                                          ''''####''''         
             ,#######,   #######,   ,#######,      ##                                
            ,#'     '#,  ##    ##  ,#'     '#,    #''#        ######   ,####,        
            ##       ##  ##   ,#'  ##            #'  '#       #        #'  '#        
            ##       ##  #######   ##           ,######,      #####,   #    #        
            '#,     ,#'  ##    ##  '#,     ,#' ,#      #,         ##   #,  ,#        
             '#######'   ##     ##  '#######'  #'      '#     #####' # '####'        



                  #######################################################
                  #                        -***-                        #
                  #          Department of theory and spectroscopy      #
                  #    Directorship and core code : Frank Neese         #
                  #        Max Planck Institute fuer Kohlenforschung    #
                  #                Kaiser Wilhelm Platz 1               #
                  #                 D-45470 Muelheim/Ruhr               #
                  #                      Germany                        #
                  #                                                     #
                  #                  All rights reserved                #
                  #                        -***-                        #
                  #######################################################


                         Program Version 5.0.3 -  RELEASE  -


 With contributions from (in alphabetic order):
   Daniel Aravena         : Magnetic Suceptibility
   Michael Atanasov       : Ab Initio Ligand Field Theory (pilot matlab implementation)
   Alexander A. Auer      : GIAO ZORA, VPT2 properties, NMR spectrum
   Ute Becker             : Parallelization
   Giovanni Bistoni       : ED, misc. LED, open-shell LED, HFLD
   Martin Brehm           : Molecular dynamics
   Dmytro Bykov           : SCF Hessian
   Vijay G. Chilkuri      : MRCI spin determinant printing, contributions to CSF-ICE
   Dipayan Datta          : RHF DLPNO-CCSD density
   Achintya Kumar Dutta   : EOM-CC, STEOM-CC
   Dmitry Ganyushin       : Spin-Orbit,Spin-Spin,Magnetic field MRCI
   Miquel Garcia          : C-PCM and meta-GGA Hessian, CC/C-PCM, Gaussian charge scheme
   Yang Guo               : DLPNO-NEVPT2, F12-NEVPT2, CIM, IAO-localization
   Andreas Hansen         : Spin unrestricted coupled pair/coupled cluster methods
   Benjamin Helmich-Paris : MC-RPA, TRAH-SCF, COSX integrals
   Lee Huntington         : MR-EOM, pCC
   Robert Izsak           : Overlap fitted RIJCOSX, COSX-SCS-MP3, EOM
   Marcus Kettner         : VPT2
   Christian Kollmar      : KDIIS, OOCD, Brueckner-CCSD(T), CCSD density, CASPT2, CASPT2-K
   Simone Kossmann        : Meta GGA functionals, TD-DFT gradient, OOMP2, MP2 Hessian
   Martin Krupicka        : Initial AUTO-CI
   Lucas Lang             : DCDCAS
   Marvin Lechner         : AUTO-CI (C++ implementation), FIC-MRCC
   Dagmar Lenk            : GEPOL surface, SMD
   Dimitrios Liakos       : Extrapolation schemes; Compound Job, initial MDCI parallelization
   Dimitrios Manganas     : Further ROCIS development; embedding schemes
   Dimitrios Pantazis     : SARC Basis sets
   Anastasios Papadopoulos: AUTO-CI, single reference methods and gradients
   Taras Petrenko         : DFT Hessian,TD-DFT gradient, ASA, ECA, R-Raman, ABS, FL, XAS/XES, NRVS
   Peter Pinski           : DLPNO-MP2, DLPNO-MP2 Gradient
   Christoph Reimann      : Effective Core Potentials
   Marius Retegan         : Local ZFS, SOC
   Christoph Riplinger    : Optimizer, TS searches, QM/MM, DLPNO-CCSD(T), (RO)-DLPNO pert. Triples
   Tobias Risthaus        : Range-separated hybrids, TD-DFT gradient, RPA, STAB
   Michael Roemelt        : Original ROCIS implementation
   Masaaki Saitow         : Open-shell DLPNO-CCSD energy and density
   Barbara Sandhoefer     : DKH picture change effects
   Avijit Sen             : IP-ROCIS
   Kantharuban Sivalingam : CASSCF convergence, NEVPT2, FIC-MRCI
   Bernardo de Souza      : ESD, SOC TD-DFT
   Georgi Stoychev        : AutoAux, RI-MP2 NMR, DLPNO-MP2 response
   Willem Van den Heuvel  : Paramagnetic NMR
   Boris Wezisla          : Elementary symmetry handling
   Frank Wennmohs         : Technical directorship


 We gratefully acknowledge several colleagues who have allowed us to
 interface, adapt or use parts of their codes:
   Stefan Grimme, W. Hujo, H. Kruse, P. Pracht,  : VdW corrections, initial TS optimization,
                  C. Bannwarth, S. Ehlert          DFT functionals, gCP, sTDA/sTD-DF
   Ed Valeev, F. Pavosevic, A. Kumar             : LibInt (2-el integral package), F12 methods
   Garnet Chan, S. Sharma, J. Yang, R. Olivares  : DMRG
   Ulf Ekstrom                                   : XCFun DFT Library
   Mihaly Kallay                                 : mrcc  (arbitrary order and MRCC methods)
   Jiri Pittner, Ondrej Demel                    : Mk-CCSD
   Frank Weinhold                                : gennbo (NPA and NBO analysis)
   Christopher J. Cramer and Donald G. Truhlar   : smd solvation model
   Lars Goerigk                                  : TD-DFT with DH, B97 family of functionals
   V. Asgeirsson, H. Jonsson                     : NEB implementation
   FAccTs GmbH                                   : IRC, NEB, NEB-TS, DLPNO-Multilevel, CI-OPT
                                                   MM, QMMM, 2- and 3-layer-ONIOM, Crystal-QMMM,
                                                   LR-CPCM, SF, NACMEs, symmetry and pop. for TD-DFT,
                                                   nearIR, NL-DFT gradient (VV10), updates on ESD,
                                                   ML-optimized integration grids
   S Lehtola, MJT Oliveira, MAL Marques          : LibXC Library
   Liviu Ungur et al                             : ANISO software


 Your calculation uses the libint2 library for the computation of 2-el integrals
 For citations please refer to: http://libint.valeyev.net

 Your ORCA version has been built with support for libXC version: 5.1.0
 For citations please refer to: https://tddft.org/programs/libxc/

 This ORCA versions uses:
   CBLAS   interface :  Fast vector & matrix operations
   LAPACKE interface :  Fast linear algebra routines
   SCALAPACK package :  Parallel linear algebra routines
   Shared memory     :  Shared parallel matrices
   BLAS/LAPACK       :  OpenBLAS 0.3.15  USE64BITINT DYNAMIC_ARCH NO_AFFINITY SkylakeX SINGLE_THREADED
        Core in use  :  SkylakeX
   Copyright (c) 2011-2014, The OpenBLAS Project


Your calculation utilizes the geometrical counterpoise correction gCP
Please cite in your paper:
H.Kruse, S. Grimme J.Chem.Phys., 136, (2012), 154101 
   

Your calculation utilizes the atom-pairwise dispersion correction
with the Becke-Johnson damping scheme (D3BJ)
Cite in your paper:
S.Grimme, S.Ehrlich, L.Goerigk, J Comput Chem, (2011), 32, 1456–1465 
S.Grimme, J.Antony, S.Ehrlich and H.Krieg, J.Chem.Phys., 132, (2010), 154104 
   

Your calculation employs the composite approach PBEh-3c.
Please cite in your paper:
S. Grimme, J. G. Brandenburg, C. Bannwarth, A. Hansen J.Chem.Phys., 143, (2015), 054107 
   

================================================================================

cite the ECPs for Pd [Def2-ECP] as follows:
Ce-Yb(ecp-28): M. Dolg, H. Stoll, H.Preuss, J. Chem. Phys., 1989, 90, 1730-1734.
Y-Cd(ecp-28), Hf-Hg(ecp-46): D. Andrae,U. Haeussermann, M. Dolg, H. Stoll, H. Preuss, Theor. Chim. Acta, 1990, 77, 123-141.
In-Sb(ecp-28), Tl-Bi(ecp-46): B. Metz, H. Stoll, M. Dolg, J. Chem. Phys., 2000, 113, 2563-2569.
Te-Xe(ecp-28), Po-Rn(ecp-46): K. A. Peterson, D. Figgen, E. Goll, H. Stoll, M. Dolg, J. Chem. Phys., 2003, 119, 11113-11123.
Rb(ecp-28), Cs(ecp-46): T. Leininger, A. Nicklass, W. Kuechle, H. Stoll, M. Dolg, A. Bergner, Chem. Phys. Lett., 1996, 255, 274-280.
Sr(ecp-28), Ba(ecp-46): M. Kaupp, P. V. Schleyer, H. Stoll and H. Preuss, J. Chem. Phys., 1991, 94, 1360-1366.
La(ecp-46): M. Dolg, H. Stoll, A. Savin, H. Preuss, Theor. Chim. Acta, 1989, 75, 173-194.
Lu(ecp-28): X. Cao, M. Dolg, J. Chem. Phys., 2001, 115, 7348-7355.

ECP parameters for Pd [Def2-ECP] have been obtained from:
TURBOMOLE (7.0.2)

----- Orbital basis set information -----
Your calculation utilizes the basis: def2-mSVP

----- AuxJ basis set information -----
Your calculation utilizes the auxiliary basis: def2/J
   F. Weigend, Phys. Chem. Chem. Phys. 8, 1057 (2006).

================================================================================
                                        WARNINGS
                       Please study these warnings very carefully!
================================================================================


INFO   : the flag for use of the SHARK integral package has been found!

================================================================================
                                       INPUT FILE
================================================================================
NAME = 4_14_orca.inp
|  1> ! EnGrad PBEh-3c
|  2> %output 
|  3> xyzfile=True 
|  4> end 
|  5> %scf 
|  6> maxiter 250 
|  7> end
|  8> %output
|  9> Print[P_Hirshfeld] = 1
| 10> end
| 11> % maxcore
| 12> 4000
| 13> *xyz 0 1
| 14> Pd   0.55695685   0.35773059  -0.42717217 
| 15> O    2.05363182   1.41194482   0.42112449 
| 16> C    1.63105588   2.59652840   0.29899284 
| 17> O    0.43899940   2.77763520  -0.10045871 
| 18> C    2.58833386   3.69773280   0.58847431 
| 19> H    2.11062665   4.56609461   1.01791808 
| 20> H    3.03009003   4.03642291  -0.35193007 
| 21> H    3.42593135   3.39807608   1.22273842 
| 22> N   -1.30099908  -0.56031277  -1.11971109 
| 23> C   -1.23622431  -1.51172138  -2.26211369 
| 24> H   -0.76565981  -1.00275097  -3.11121387 
| 25> H   -2.24232763  -1.89878617  -2.51982799 
| 26> H   -0.60152791  -2.36651507  -2.00180369 
| 27> C   -2.17160847   0.54940361  -1.55557141 
| 28> H   -2.28300983   1.27924514  -0.72779961 
| 29> H   -3.17110941   0.18348082  -1.84486368 
| 30> H   -1.71247612   1.02213633  -2.41568519 
| 31> C   -1.53733755  -0.90990803   1.41282576 
| 32> C   -0.89360824  -1.92907588   2.11087711 
| 33> C   -0.67506831  -1.83686979   3.48593134 
| 34> C   -1.21294101  -0.74456008   4.18886142 
| 35> C   -1.85599113   0.29548056   3.52492143 
| 36> C   -1.90606210   0.28628781   2.12159802 
| 37> H   -1.09351086  -0.68794903   5.26130855 
| 38> H   -2.29728271   1.16285110   4.00827926 
| 39> H   -0.59119234  -2.84793193   1.59276047 
| 40> H   -0.16221837  -2.62253358   4.03710884 
| 41> H   -2.31485514   2.16662330   1.64296904 
| 42> C   -1.98259940  -1.24854685  -0.00999821 
| 43> H   -3.06190578  -1.08533300  -0.07656848 
| 44> H   -1.82913449  -2.32391772  -0.14406661 
| 45> O    1.91238974  -0.85787880  -1.20873474 
| 46> C    2.24218237  -0.59004903  -2.41698371 
| 47> O    1.51739727   0.02464026  -3.21579737 
| 48> C    3.60172664  -1.09299807  -2.79205267 
| 49> H    3.58452944  -2.18188106  -2.83136560 
| 50> H    4.37470309  -0.83314826  -2.04167328 
| 51> H    3.85857952  -0.70988865  -3.75993193 
| 52> *
| 53> 
| 54>                          ****END OF INPUT****
================================================================================

                     *******************************
                     * Energy+Gradient Calculation *
                     *******************************

---------------------------------
CARTESIAN COORDINATES (ANGSTROEM)
---------------------------------
  Pd     0.556957    0.357731   -0.427172
  O      2.053632    1.411945    0.421124
  C      1.631056    2.596528    0.298993
  O      0.438999    2.777635   -0.100459
  C      2.588334    3.697733    0.588474
  H      2.110627    4.566095    1.017918
  H      3.030090    4.036423   -0.351930
  H      3.425931    3.398076    1.222738
  N     -1.300999   -0.560313   -1.119711
  C     -1.236224   -1.511721   -2.262114
  H     -0.765660   -1.002751   -3.111214
  H     -2.242328   -1.898786   -2.519828
  H     -0.601528   -2.366515   -2.001804
  C     -2.171608    0.549404   -1.555571
  H     -2.283010    1.279245   -0.727800
  H     -3.171109    0.183481   -1.844864
  H     -1.712476    1.022136   -2.415685
  C     -1.537338   -0.909908    1.412826
  C     -0.893608   -1.929076    2.110877
  C     -0.675068   -1.836870    3.485931
  C     -1.212941   -0.744560    4.188861
  C     -1.855991    0.295481    3.524921
  C     -1.906062    0.286288    2.121598
  H     -1.093511   -0.687949    5.261309
  H     -2.297283    1.162851    4.008279
  H     -0.591192   -2.847932    1.592760
  H     -0.162218   -2.622534    4.037109
  H     -2.314855    2.166623    1.642969
  C     -1.982599   -1.248547   -0.009998
  H     -3.061906   -1.085333   -0.076568
  H     -1.829134   -2.323918   -0.144067
  O      1.912390   -0.857879   -1.208735
  C      2.242182   -0.590049   -2.416984
  O      1.517397    0.024640   -3.215797
  C      3.601727   -1.092998   -2.792053
  H      3.584529   -2.181881   -2.831366
  H      4.374703   -0.833148   -2.041673
  H      3.858580   -0.709889   -3.759932

----------------------------
CARTESIAN COORDINATES (A.U.)
----------------------------
  NO LB      ZA    FRAG     MASS         X           Y           Z
   0 Pd   18.0000*   0   106.400    1.052496    0.676013   -0.807238
   1 O     8.0000    0    15.999    3.880802    2.668189    0.795810
   2 C     6.0000    0    12.011    3.082249    4.906728    0.565015
   3 O     8.0000    0    15.999    0.829589    5.248970   -0.189839
   4 C     6.0000    0    12.011    4.891242    6.987702    1.112055
   5 H     1.0000    0     1.008    3.988506    8.628668    1.923586
   6 H     1.0000    0     1.008    5.726040    7.627734   -0.665051
   7 H     1.0000    0     1.008    6.474072    6.421433    2.310641
   8 N     7.0000    0    14.007   -2.458532   -1.058838   -2.115947
   9 C     6.0000    0    12.011   -2.336125   -2.856739   -4.274775
  10 H     1.0000    0     1.008   -1.446887   -1.894925   -5.879342
  11 H     1.0000    0     1.008   -4.237385   -3.588186   -4.761785
  12 H     1.0000    0     1.008   -1.136723   -4.472065   -3.782861
  13 C     6.0000    0    12.011   -4.103745    1.038222   -2.939604
  14 H     1.0000    0     1.008   -4.314263    2.417423   -1.375342
  15 H     1.0000    0     1.008   -5.992528    0.346729   -3.486287
  16 H     1.0000    0     1.008   -3.236111    1.931558   -4.564983
  17 C     6.0000    0    12.011   -2.905147   -1.719477    2.669854
  18 C     6.0000    0    12.011   -1.688675   -3.645425    3.988980
  19 C     6.0000    0    12.011   -1.275694   -3.471181    6.587456
  20 C     6.0000    0    12.011   -2.292126   -1.407015    7.915801
  21 C     6.0000    0    12.011   -3.507315    0.558377    6.661136
  22 C     6.0000    0    12.011   -3.601935    0.541006    4.009239
  23 H     1.0000    0     1.008   -2.066436   -1.300035    9.942432
  24 H     1.0000    0     1.008   -4.341235    2.197470    7.574550
  25 H     1.0000    0     1.008   -1.117192   -5.381811    3.009881
  26 H     1.0000    0     1.008   -0.306548   -4.955870    7.629030
  27 H     1.0000    0     1.008   -4.374442    4.094325    3.104762
  28 C     6.0000    0    12.011   -3.746570   -2.359412   -0.018894
  29 H     1.0000    0     1.008   -5.786163   -2.050982   -0.144693
  30 H     1.0000    0     1.008   -3.456563   -4.391568   -0.272246
  31 O     8.0000    0    15.999    3.613893   -1.621156   -2.284178
  32 C     6.0000    0    12.011    4.237111   -1.115031   -4.567437
  33 O     8.0000    0    15.999    2.867465    0.046563   -6.076976
  34 C     6.0000    0    12.011    6.806277   -2.065467   -5.276215
  35 H     1.0000    0     1.008    6.773779   -4.123158   -5.350506
  36 H     1.0000    0     1.008    8.266991   -1.574422   -3.858203
  37 H     1.0000    0     1.008    7.291659   -1.341495   -7.105242
* core charge reduced due to ECP

--------------------------------
INTERNAL COORDINATES (ANGSTROEM)
--------------------------------
 Pd     0   0   0     0.000000000000     0.00000000     0.00000000
 O      1   0   0     2.017674610022     0.00000000     0.00000000
 C      2   1   0     1.263615773487   101.60185459     0.00000000
 O      3   2   1     1.270181036433   118.54901878     8.94743505
 C      3   2   1     1.487559001534   117.38462796   191.12426733
 H      5   3   2     1.080128864138   112.82392678   213.21324795
 H      5   3   2     1.092803688806   108.79041398    96.17180258
 H      5   3   2     1.092545040870   113.78405129   338.33113389
 N      1   2   3     2.185043250001   169.58354348   312.17768678
 C      9   1   2     1.488105444684   118.35426287   171.66032861
 H     10   9   1     1.096108088918   108.45158571   303.84446606
 H     10   9   1     1.108368035716   111.23905215   180.46955667
 H     10   9   1     1.096026034698   109.96844853    60.90540253
 C      9   1   2     1.476280926026   106.21265643    52.46415126
 H     14   9   1     1.109182164839   109.48197629   305.11396166
 H     14   9   1     1.102992128160   111.25105873   184.76839360
 H     14   9   1     1.083547162758   108.20552721    65.43252564
 C      9   1   2     2.567453137805    79.79599901   304.60441210
 C     18   9   1     1.392970286210   123.46272427   280.29215206
 C     19  18   9     1.395362246687   121.18888311   158.29841999
 C     20  19  18     1.405901220333   118.95548875     5.22990247
 C     21  20  19     1.391407309168   121.26396870   354.48418801
 C     22  21  20     1.404246488955   119.23834294   356.63345236
 H     21  20  19     1.080560603741   119.64670429   176.90664967
 H     22  21  20     1.086602367042   124.89637615   179.61722375
 H     19  18   9     1.097358952139   120.22429148   335.25388743
 H     20  19  18     1.088154073825   121.68555269   180.76880251
 H     23  22  21     1.982891576714   104.02609771   198.90947378
 C      9   1   2     1.472992810959   110.54812337   296.13748465
 H     29   9   1     1.093605332644   109.94328733   140.17916656
 H     29   9   1     1.094508256033   107.57189511   255.30600935
 O      1   2   3     1.981349176489    88.79410880   141.83823133
 C     32   1   2     1.280765996584   114.83326419   263.34198520
 O     33  32   1     1.241474779375   124.07090994   335.60327904
 C     33  32   1     1.497329317045   113.56997207   155.69589977
 H     35  33  32     1.089728138604   109.28969481    68.92552948
 H     35  33  32     1.108189399403   112.64076779   311.82065056
 H     35  33  32     1.072164395788   108.88220437   188.08700163

---------------------------
INTERNAL COORDINATES (A.U.)
---------------------------
 Pd     0   0   0     0.000000000000     0.00000000     0.00000000
 O      1   0   0     3.812852440307     0.00000000     0.00000000
 C      2   1   0     2.387887750393   101.60185459     0.00000000
 O      3   2   1     2.400294299358   118.54901878     8.94743505
 C      3   2   1     2.811079120949   117.38462796   191.12426733
 H      5   3   2     2.041147742564   112.82392678   213.21324795
 H      5   3   2     2.065099689982   108.79041398    96.17180258
 H      5   3   2     2.064610916218   113.78405129   338.33113389
 N      1   2   3     4.129133333276   169.58354348   312.17768678
 C      9   1   2     2.812111748849   118.35426287   171.66032861
 H     10   9   1     2.071344101231   108.45158571   303.84446606
 H     10   9   1     2.094512043096   111.23905215   180.46955667
 H     10   9   1     2.071189041228   109.96844853    60.90540253
 C      9   1   2     2.789766646920   106.21265643    52.46415126
 H     14   9   1     2.096050524176   109.48197629   305.11396166
 H     14   9   1     2.084353050094   111.25105873   184.76839360
 H     14   9   1     2.047607390800   108.20552721    65.43252564
 C      9   1   2     4.851783292128    79.79599901   304.60441210
 C     18   9   1     2.632332353626   123.46272427   280.29215206
 C     19  18   9     2.636852503851   121.18888311   158.29841999
 C     20  19  18     2.656768277775   118.95548875     5.22990247
 C     21  20  19     2.629378755063   121.26396870   354.48418801
 C     22  21  20     2.653641288646   119.23834294   356.63345236
 H     21  20  19     2.041963612174   119.64670429   176.90664967
 H     22  21  20     2.053380890180   124.89637615   179.61722375
 H     19  18   9     2.073707890149   120.22429148   335.25388743
 H     20  19  18     2.056313191040   121.68555269   180.76880251
 H     23  22  21     3.747122033248   104.02609771   198.90947378
 C      9   1   2     2.783553009946   110.54812337   296.13748465
 H     29   9   1     2.066614577294   109.94328733   140.17916656
 H     29   9   1     2.068320855218   107.57189511   255.30600935
 O      1   2   3     3.744207319235    88.79410880   141.83823133
 C     32   1   2     2.420296975183   114.83326419   263.34198520
 O     33  32   1     2.346047335190   124.07090994   335.60327904
 C     33  32   1     2.829542341506   113.56997207   155.69589977
 H     35  33  32     2.059287742388   109.28969481    68.92552948
 H     35  33  32     2.094174469386   112.64076779   311.82065056
 H     35  33  32     2.026097078580   108.88220437   188.08700163

---------------------
BASIS SET INFORMATION
---------------------
There are 5 groups of distinct atoms

 Group   1 Type Pd  : 7s6p5d1f contracted to 5s3p2d1f pattern {31111/411/41/1}
 Group   2 Type O   : 8s4p1d contracted to 4s2p1d pattern {5111/31/1}
 Group   3 Type C   : 8s4p1d contracted to 4s2p1d pattern {5111/31/1}
 Group   4 Type H   : 4s contracted to 2s pattern {31}
 Group   5 Type N   : 8s4p1d contracted to 4s2p1d pattern {5111/31/1}

Atom   0Pd   basis set group =>   1
Atom   1O    basis set group =>   2
Atom   2C    basis set group =>   3
Atom   3O    basis set group =>   2
Atom   4C    basis set group =>   3
Atom   5H    basis set group =>   4
Atom   6H    basis set group =>   4
Atom   7H    basis set group =>   4
Atom   8N    basis set group =>   5
Atom   9C    basis set group =>   3
Atom  10H    basis set group =>   4
Atom  11H    basis set group =>   4
Atom  12H    basis set group =>   4
Atom  13C    basis set group =>   3
Atom  14H    basis set group =>   4
Atom  15H    basis set group =>   4
Atom  16H    basis set group =>   4
Atom  17C    basis set group =>   3
Atom  18C    basis set group =>   3
Atom  19C    basis set group =>   3
Atom  20C    basis set group =>   3
Atom  21C    basis set group =>   3
Atom  22C    basis set group =>   3
Atom  23H    basis set group =>   4
Atom  24H    basis set group =>   4
Atom  25H    basis set group =>   4
Atom  26H    basis set group =>   4
Atom  27H    basis set group =>   4
Atom  28C    basis set group =>   3
Atom  29H    basis set group =>   4
Atom  30H    basis set group =>   4
Atom  31O    basis set group =>   2
Atom  32C    basis set group =>   3
Atom  33O    basis set group =>   2
Atom  34C    basis set group =>   3
Atom  35H    basis set group =>   4
Atom  36H    basis set group =>   4
Atom  37H    basis set group =>   4
---------------------------------
AUXILIARY/J BASIS SET INFORMATION
---------------------------------
There are 5 groups of distinct atoms

 Group   1 Type Pd  : 11s5p5d3f3g contracted to 8s5p5d2f3g pattern {41111111/11111/11111/21/111}
 Group   2 Type O   : 12s5p4d2f1g contracted to 6s4p3d1f1g pattern {711111/2111/211/2/1}
 Group   3 Type C   : 12s5p4d2f1g contracted to 6s4p3d1f1g pattern {711111/2111/211/2/1}
 Group   4 Type H   : 5s2p1d contracted to 3s1p1d pattern {311/2/1}
 Group   5 Type N   : 12s5p4d2f1g contracted to 6s4p3d1f1g pattern {711111/2111/211/2/1}

Atom   0Pd   basis set group =>   1
Atom   1O    basis set group =>   2
Atom   2C    basis set group =>   3
Atom   3O    basis set group =>   2
Atom   4C    basis set group =>   3
Atom   5H    basis set group =>   4
Atom   6H    basis set group =>   4
Atom   7H    basis set group =>   4
Atom   8N    basis set group =>   5
Atom   9C    basis set group =>   3
Atom  10H    basis set group =>   4
Atom  11H    basis set group =>   4
Atom  12H    basis set group =>   4
Atom  13C    basis set group =>   3
Atom  14H    basis set group =>   4
Atom  15H    basis set group =>   4
Atom  16H    basis set group =>   4
Atom  17C    basis set group =>   3
Atom  18C    basis set group =>   3
Atom  19C    basis set group =>   3
Atom  20C    basis set group =>   3
Atom  21C    basis set group =>   3
Atom  22C    basis set group =>   3
Atom  23H    basis set group =>   4
Atom  24H    basis set group =>   4
Atom  25H    basis set group =>   4
Atom  26H    basis set group =>   4
Atom  27H    basis set group =>   4
Atom  28C    basis set group =>   3
Atom  29H    basis set group =>   4
Atom  30H    basis set group =>   4
Atom  31O    basis set group =>   2
Atom  32C    basis set group =>   3
Atom  33O    basis set group =>   2
Atom  34C    basis set group =>   3
Atom  35H    basis set group =>   4
Atom  36H    basis set group =>   4
Atom  37H    basis set group =>   4
-------------------------
ECP PARAMETER INFORMATION
-------------------------

 Group 1, Type Pd ECP Def2-ECP (replacing 28 core electrons, lmax=3)

Atom   0Pd   ECP group =>   1

------------------------------------------------------------------------------
                           ORCA GTO INTEGRAL CALCULATION
                           -- RI-GTO INTEGRALS CHOSEN --
------------------------------------------------------------------------------
------------------------------------------------------------------------------
                   ___                                                        
                  /   \      - P O W E R E D   B Y -                         
                 /     \                                                     
                 |  |  |   _    _      __       _____    __    __             
                 |  |  |  | |  | |    /  \     |  _  \  |  |  /  |          
                  \  \/   | |  | |   /    \    | | | |  |  | /  /          
                 / \  \   | |__| |  /  /\  \   | |_| |  |  |/  /          
                |  |  |   |  __  | /  /__\  \  |    /   |      \           
                |  |  |   | |  | | |   __   |  |    \   |  |\   \          
                \     /   | |  | | |  |  |  |  | |\  \  |  | \   \       
                 \___/    |_|  |_| |__|  |__|  |_| \__\ |__|  \__/        
                                                                              
                      - O R C A' S   B I G   F R I E N D -                    
                                      &                                       
                       - I N T E G R A L  F E E D E R -                       
                                                                              
 v1 FN, 2020, v2 2021                                                         
------------------------------------------------------------------------------


Reading SHARK input file 4_14_orca.SHARKINP.tmp ... ok
----------------------
SHARK INTEGRAL PACKAGE
----------------------

Number of atoms                             ...     38
Number of basis functions                   ...    339
Number of shells                            ...    175
Maximum angular momentum                    ...      3
Integral batch strategy                     ... SHARK/LIBINT Hybrid
RI-J (if used) integral strategy            ... SPLIT-RIJ (Revised 2003 algorithm where possible)
Printlevel                                  ...      1
Contraction scheme used                     ... SEGMENTED contraction
Coulomb Range Separation                    ... NOT USED
Exchange Range Separation                   ... NOT USED
Finite Nucleus Model                        ... NOT USED
Auxiliary Coulomb fitting basis             ... AVAILABLE
   # of basis functions in Aux-J            ...   1180
   # of shells in Aux-J                     ...    388
   Maximum angular momentum in Aux-J        ...      4
Auxiliary J/K fitting basis                 ... NOT available
Auxiliary Correlation fitting basis         ... NOT available
Auxiliary 'external' fitting basis          ... NOT available
Integral threshold                          ...     2.500000e-11
Primitive cut-off                           ...     2.500000e-12
Primitive pair pre-selection threshold      ...     2.500000e-12

Calculating pre-screening integrals         ... done (  0.1 sec) Dimension = 175
Organizing shell pair data                  ... done (  0.1 sec)
Shell pair information
Total number of shell pairs                 ...     15400
Shell pairs after pre-screening             ...     10804
Total number of primitive shell pairs       ...     54591
Primitive shell pairs kept                  ...     24077
          la=0 lb=0:   4124 shell pairs
          la=1 lb=0:   3587 shell pairs
          la=1 lb=1:    712 shell pairs
          la=2 lb=0:   1452 shell pairs
          la=2 lb=1:    645 shell pairs
          la=2 lb=2:    142 shell pairs
          la=3 lb=0:     86 shell pairs
          la=3 lb=1:     38 shell pairs
          la=3 lb=2:     17 shell pairs
          la=3 lb=3:      1 shell pairs

Calculating one electron integrals          ... done (  0.1 sec)
Calculating ECP integrals                   ... done (  0.4 sec)
Calculating RI/J V-Matrix + Cholesky decomp.... done (  0.1 sec)
Calculating Nuclear repulsion               ... done (  0.0 sec) ENN=   1715.531697112545 Eh

SHARK setup successfully completed in   1.0 seconds

Maximum memory used throughout the entire GTOINT-calculation: 75.2 MB
-------------------------------------------------------------------------------
                                 ORCA SCF
-------------------------------------------------------------------------------

------------
SCF SETTINGS
------------
Hamiltonian:
 Density Functional     Method          .... DFT(GTOs)
 Exchange Functional    Exchange        .... PBE
   PBE kappa parameter   XKappa         ....  1.024500
   PBE mue parameter    XMuePBE         ....  0.123457
 Correlation Functional Correlation     .... PBE
   PBE beta parameter  CBetaPBE         ....  0.030000
 LDA part of GGA corr.  LDAOpt          .... PW91-LDA
 Gradients option       PostSCFGGA      .... off
 Hybrid DFT is turned on
   Fraction HF Exchange ScalHFX         ....  0.420000
   Scaling of DF-GGA-X  ScalDFX         ....  0.580000
   Scaling of DF-GGA-C  ScalDFC         ....  1.000000
   Scaling of DF-LDA-C  ScalLDAC        ....  1.000000
   Perturbative correction              ....  0.000000
   Density functional embedding theory  .... OFF
 RI-approximation to the Coulomb term is turned on
   Number of AuxJ basis functions       .... 1180
   RIJ-ON(X) (HFX calculated with O(N)) .... on
   Number of AuxJ basis functions       .... 1180
   RIJ-COSX (HFX calculated with COS-X)).... on


General Settings:
 Integral files         IntName         .... 4_14_orca
 Hartree-Fock type      HFTyp           .... RHF
 Total Charge           Charge          ....    0
 Multiplicity           Mult            ....    1
 Number of Electrons    NEL             ....  154
 Basis Dimension        Dim             ....  339
 Nuclear Repulsion      ENuc            ....   1715.5316971125 Eh

Convergence Acceleration:
 DIIS                   CNVDIIS         .... on
   Start iteration      DIISMaxIt       ....    12
   Startup error        DIISStart       ....  0.200000
   # of expansion vecs  DIISMaxEq       ....     5
   Bias factor          DIISBfac        ....   1.050
   Max. coefficient     DIISMaxC        ....  10.000
 Trust-Rad. Augm. Hess. CNVTRAH         .... auto
   Auto Start mean grad. ratio tolernc. ....  1.125000
   Auto Start start iteration           ....    20
   Auto Start num. interpolation iter.  ....    10
   Max. Number of Micro iterations      ....    16
   Max. Number of Macro iterations      .... Maxiter - #DIIS iter
   Number of Davidson start vectors     ....     2
   Converg. threshold I  (grad. norm)   ....   1.000e-05
   Converg. threshold II (energy diff.) ....   1.000e-08
   Grad. Scal. Fac. for Micro threshold ....   0.100
   Minimum threshold for Micro iter.    ....   0.010
   NR start threshold (gradient norm)   ....   0.001
   Initial trust radius                 ....   0.400
   Minimum AH scaling param. (alpha)    ....   1.000
   Maximum AH scaling param. (alpha)    .... 1000.000
   Orbital update algorithm             .... Taylor
   White noise on init. David. guess    .... on
   Maximum white noise                  ....   0.010
   Quad. conv. algorithm                .... NR
   COSX micro iterations for RIJONX calc.... off
 SOSCF                  CNVSOSCF        .... off
 Level Shifting         CNVShift        .... on
   Level shift para.    LevelShift      ....    0.2500
   Turn off err/grad.   ShiftErr        ....    0.0010
 Zerner damping         CNVZerner       .... off
 Static damping         CNVDamp         .... on
   Fraction old density DampFac         ....    0.7000
   Max. Damping (<1)    DampMax         ....    0.9800
   Min. Damping (>=0)   DampMin         ....    0.0000
   Turn off err/grad.   DampErr         ....    0.1000
 Fernandez-Rico         CNVRico         .... off

SCF Procedure:
 Maximum # iterations   MaxIter         ....   250
 SCF integral mode      SCFMode         .... Direct
   Integral package                     .... SHARK and LIBINT hybrid scheme
 Reset frequency        DirectResetFreq ....    20
 Integral Threshold     Thresh          ....  2.500e-11 Eh
 Primitive CutOff       TCut            ....  2.500e-12 Eh

Convergence Tolerance:
 Convergence Check Mode ConvCheckMode   .... Total+1el-Energy
 Convergence forced     ConvForced      .... 0
 Energy Change          TolE            ....  1.000e-08 Eh
 1-El. energy change                    ....  1.000e-05 Eh
 DIIS Error             TolErr          ....  5.000e-07


Diagonalization of the overlap matrix:
Smallest eigenvalue                        ... 6.844e-04
Time for diagonalization                   ...    0.030 sec
Threshold for overlap eigenvalues          ... 1.000e-08
Number of eigenvalues below threshold      ... 0
Time for construction of square roots      ...    0.010 sec
Total time needed                          ...    0.041 sec

--------------------------------
INITIAL GUESS: MINIMAL BASIS EHT
--------------------------------
The minimal basis has 122 functions
EHT matrix was diagonalized
Basis set overlap was calculated now projecting the orbitals
Using GuessMode=FMatrix for the initial guess
C*T matrix was formed
Effective Fockian was calculated
Effective Fockian was diagonalized
Initial density was built
                      ------------------
                      INITIAL GUESS DONE
                      ------------------
-------------------
DFT GRID GENERATION
-------------------

General Integration Accuracy     IntAcc      ... 4.159
Radial Grid Type                 RadialGrid  ... OptM3 with GC (2021)
Angular Grid (max. ang.)         AngularGrid ... 3 (Lebedev-194)
Angular grid pruning method      GridPruning ... 4 (adaptive)
Weight generation scheme         WeightScheme... Becke
Basis function cutoff            BFCut       ... 1.0000e-11
Integration weight cutoff        WCut        ... 1.0000e-14
Angular grids for H and He will be reduced by one unit
Partially contracted basis set               ... off
Rotationally invariant grid construction     ... off

Total number of grid points                  ...    90122
Total number of batches                      ...     1428
Average number of points per batch           ...       63
Average number of grid points per atom       ...     2372
Time for grid setup =    1.540 sec

--------------------
COSX GRID GENERATION
--------------------

GRIDX 1
-------
General Integration Accuracy     IntAcc      ... 3.816
Radial Grid Type                 RadialGrid  ... OptM3 with GC (2021)
Angular Grid (max. ang.)         AngularGrid ... 1 (Lebedev-50)
Angular grid pruning method      GridPruning ... 4 (adaptive)
Weight generation scheme         WeightScheme... Becke
Basis function cutoff            BFCut       ... 1.0000e-11
Integration weight cutoff        WCut        ... 1.0000e-14
Angular grids for H and He will be reduced by one unit
Partially contracted basis set               ... on
Rotationally invariant grid construction     ... off

Total number of grid points                  ...    22485
Total number of batches                      ...      370
Average number of points per batch           ...       60
Average number of grid points per atom       ...      592
UseSFitting                                  ... on

GRIDX 2
-------
General Integration Accuracy     IntAcc      ... 4.020
Radial Grid Type                 RadialGrid  ... OptM3 with GC (2021)
Angular Grid (max. ang.)         AngularGrid ... 2 (Lebedev-110)
Angular grid pruning method      GridPruning ... 4 (adaptive)
Weight generation scheme         WeightScheme... Becke
Basis function cutoff            BFCut       ... 1.0000e-11
Integration weight cutoff        WCut        ... 1.0000e-14
Angular grids for H and He will be reduced by one unit
Partially contracted basis set               ... on
Rotationally invariant grid construction     ... off

Total number of grid points                  ...    48270
Total number of batches                      ...      774
Average number of points per batch           ...       62
Average number of grid points per atom       ...     1270
UseSFitting                                  ... on

GRIDX 3
-------
General Integration Accuracy     IntAcc      ... 4.338
Radial Grid Type                 RadialGrid  ... OptM3 with GC (2021)
Angular Grid (max. ang.)         AngularGrid ... 3 (Lebedev-194)
Angular grid pruning method      GridPruning ... 4 (adaptive)
Weight generation scheme         WeightScheme... Becke
Basis function cutoff            BFCut       ... 1.0000e-11
Integration weight cutoff        WCut        ... 1.0000e-14
Angular grids for H and He will be reduced by one unit
Partially contracted basis set               ... on
Rotationally invariant grid construction     ... off

Total number of grid points                  ...   104616
Total number of batches                      ...     1657
Average number of points per batch           ...       63
Average number of grid points per atom       ...     2753
UseSFitting                                  ... on

Time for X-Grid setup             =    3.917 sec

--------------
SCF ITERATIONS
--------------
ITER       Energy         Delta-E        Max-DP      RMS-DP      [F,P]     Damp
               ***  Starting incremental Fock matrix formation  ***
  0   -967.8664642359   0.000000000000 4.74519537  0.02747853  5.0555701 0.7000
  1   -961.7731261203   6.093338115581 3.47759491  0.03990030  3.9078011 0.7000
  2   -958.4471343569   3.325991763370 2.50455311  0.02379545  2.5981951 0.7000
  3   -962.2200403405  -3.772905983595 4.05336629  0.03928916  1.9193593 0.7000
  4   -958.1008177295   4.119222610979 2.03412716  0.02666779  1.2299562 0.7000
  5   -960.8764373403  -2.775619610729 2.87077738  0.03583027  0.9659220 0.7000
  6   -954.1377135662   6.738723774067 2.13015670  0.02994235  0.5679624 0.7000
  7   -959.2740889228  -5.136375356576 2.94797444  0.02998352  0.4951086 0.7000
  8   -958.3248124230   0.949276499833 2.36878994  0.02853320  0.2962684 0.7000
  9   -958.0491495046   0.275662918341 2.25599617  0.03149637  0.2786927 0.7000
 10   -950.6132991440   7.435850360577 2.24753476  0.02904746  0.2688380 0.7000
 11   -957.2785187707  -6.665219626645 2.48444741  0.02656266  0.2526997 0.7000
                               ***Turning on DIIS***
 12   -959.8153667412  -2.536847970562 2.33081179  0.02605584  0.2130655 0.7000
 13   -959.4055387232   0.409828017992 1.53899208  0.01922381  0.2261922 0.7000
 14   -967.4975265637  -8.091987840472 1.07309340  0.01356843  0.2880859 0.7000
 15   -973.3282442180  -5.830717654315 0.75026249  0.00954183  0.3200455 0.7000
 16   -977.4759147191  -4.147670501050 0.52564070  0.00670897  0.3268608 0.7000
 17   -980.4598928815  -2.983978162380 2.59464935  0.02636305  0.3177559 0.7000
 18   -978.1726161727   2.287276708808 1.10033862  0.01045158  0.2108258 0.7000
 19   -980.8488754050  -2.676259232352 0.78256910  0.00751424  0.1956513 0.7000
               *** Restarting incremental Fock matrix formation ***
                                   *** Resetting DIIS ***

 WARNING: the maximum gradient error descreased on average only by a factor   1.0
          during the last 20 iterations

                      *** Initiating the TRAH-SCF procedure ***


TRAH GRIDX
----------

General Integration Accuracy     IntAcc      ... 3.067
Radial Grid Type                 RadialGrid  ... OptM3 with GC (2021)
Angular Grid (max. ang.)         AngularGrid ... 1 (Lebedev-50)
Angular grid pruning method      GridPruning ... 4 (adaptive)
Weight generation scheme         WeightScheme... Becke
Basis function cutoff            BFCut       ... 1.0000e-11
Integration weight cutoff        WCut        ... 1.0000e-14
Angular grids for H and He will be reduced by one unit
Partially contracted basis set               ... on
Rotationally invariant grid construction     ... off

Total number of grid points                  ...    11986
Total number of batches                      ...      210
Average number of points per batch           ...       57
Average number of grid points per atom       ...      315


TRAH GRID
---------

General Integration Accuracy     IntAcc      ... 3.467
Radial Grid Type                 RadialGrid  ... OptM3 with GC (2021)
Angular Grid (max. ang.)         AngularGrid ... 1 (Lebedev-50)
Angular grid pruning method      GridPruning ... 4 (adaptive)
Weight generation scheme         WeightScheme... Becke
Basis function cutoff            BFCut       ... 1.0000e-11
Integration weight cutoff        WCut        ... 1.0000e-14
Angular grids for H and He will be reduced by one unit
Partially contracted basis set               ... off
Rotationally invariant grid construction     ... off

Total number of grid points                  ...    28311
Total number of batches                      ...      461
Average number of points per batch           ...       61
Average number of grid points per atom       ...      745

 --------------------------------------------------------------------------------------------
   Iter.        energy            ||Error||_2        Shift      TRadius  Mac/Mic        Rej.
 --------------------------------------------------------------------------------------------
WARNING: 84 diagonal Hessian elements are negative!
    0       -987.336942263954     2.594086e+00                     0.400 (TRAH MAcro)   No
WARNING : negative HOMO - LUMO gap : -0.722012
    0     dE    -3.768094e-01     3.810832e+00    -7.0023e-01      0.276 (TRAH MIcro)
    0     dE    -7.184348e-01     8.100590e-01    -4.4601e+00      0.397 (TRAH MIcro)
    0     dE    -5.836777e-01     7.848585e-01    -5.4375e+00      0.316 (TRAH MIcro)
    0     dE    -5.764210e-01     1.895432e-01    -5.4775e+00      0.309 (TRAH MIcro)
    0     dE    -5.711842e-01     5.653479e-02    -5.4831e+00      0.306 (TRAH MIcro)
    0     dE    -5.697030e-01     1.473553e-02    -5.4841e+00      0.305 (TRAH MIcro)
    0     dE    -5.695830e-01     6.513253e-03    -5.4842e+00      0.305 (TRAH MIcro)
WARNING: 14 diagonal Hessian elements are negative!
    1       -987.868834586815     1.323256e+00                     0.480 (TRAH MAcro)   No
WARNING : negative HOMO - LUMO gap : -0.255489
    1     dE    -2.146456e-01     1.444721e+00    -3.9404e-01      0.299 (TRAH MIcro)
    1     dE    -4.690637e-01     4.357486e-01    -1.9545e+00      0.473 (TRAH MIcro)
    1     dE    -4.896574e-01     1.271104e-01    -2.1131e+00      0.480 (TRAH MIcro)
    1     dE    -4.906231e-01     3.899929e-02    -2.1333e+00      0.480 (TRAH MIcro)
    1     dE    -4.907243e-01     1.086956e-02    -2.1339e+00      0.480 (TRAH MIcro)
    1     dE    -4.907312e-01     2.921123e-03    -2.1328e+00      0.480 (TRAH MIcro)
    2       -988.260715292328     5.317483e-01                     0.576 (TRAH MAcro)   No
    2     dE    -7.613918e-02     8.331001e-01    -1.4212e-01      0.267 (TRAH MIcro)
    2     dE    -1.171796e-01     4.511256e-01    -2.0182e-01      0.402 (TRAH MIcro)
    2     dE    -1.501541e-01     1.718260e-01    -2.3764e-01      0.514 (TRAH MIcro)
    2     dE    -1.542730e-01     7.450521e-02    -2.4089e-01      0.530 (TRAH MIcro)
    2     dE    -1.554424e-01     3.235733e-02    -2.4147e-01      0.536 (TRAH MIcro)
    2     dE    -1.557492e-01     1.178468e-02    -2.4156e-01      0.538 (TRAH MIcro)
    2     dE    -1.558464e-01     6.974389e-03    -2.4158e-01      0.539 (TRAH MIcro)
    3       -988.398912995324     2.277219e-01                     0.691 (TRAH MAcro)   No
    3     dE    -3.636300e-03     3.285519e-01    -7.2652e-03      0.032 (TRAH MIcro)
    3     dE    -1.166508e-02     7.611719e-02    -2.2908e-02      0.136 (TRAH MIcro)
    3     dE    -1.241493e-02     4.217964e-02    -2.4283e-02      0.150 (TRAH MIcro)
    3     dE    -1.253739e-02     1.493048e-02    -2.4492e-02      0.154 (TRAH MIcro)
    3     dE    -1.255666e-02     5.670671e-03    -2.4522e-02      0.155 (TRAH MIcro)
    4       -988.412061025190     3.519924e-02                     0.829 (TRAH MAcro)   No
    4     dE    -1.052424e-04     5.484828e-02    -2.1048e-04      0.006 (TRAH MIcro)
    4     dE    -3.911162e-04     1.613199e-02    -7.8154e-04      0.030 (TRAH MIcro)
    4     dE    -4.080591e-04     4.855183e-03    -8.1531e-04      0.031 (TRAH MIcro)
    4     dE    -4.099870e-04     2.845838e-03    -8.1914e-04      0.032 (TRAH MIcro)
    5       -988.412478281989     3.205019e-03                     0.995 (TRAH MAcro)   No
    5     dE    -1.008486e-07     4.420871e-03    -2.0175e-07      0.000 (TRAH MIcro)
    5     dE    -9.880786e-07     1.776203e-03    -1.9762e-06      0.001 (TRAH MIcro)
    5     dE    -1.455557e-06     1.248236e-03    -2.9111e-06      0.002 (TRAH MIcro)
    5     dE    -1.668417e-06     6.259212e-04    -3.3368e-06      0.002 (TRAH MIcro)
    5     dE    -1.717232e-06     3.439249e-04    -3.4344e-06      0.003 (TRAH MIcro)
    5     dE    -1.729986e-06     1.770607e-04    -3.4599e-06      0.003 (TRAH MIcro)
    6       -988.412480012552     1.772856e-04                           (NR   MAcro)
    6     dE    -1.811351e-09     7.232481e-05                           (NR   MIcro)
    6     dE    -2.397900e-09     4.257883e-05                           (NR   MIcro)
    6     dE    -2.641868e-09     2.809500e-05                           (NR   MIcro)
    6     dE    -2.710986e-09     1.460139e-05                           (NR   MIcro)
    6     dE    -2.731992e-09     7.281494e-06                           (NR   MIcro)
    6     dE    -2.739874e-09     4.455876e-06                           (NR   MIcro)
    6     dE    -2.740797e-09     1.970805e-06                           (NR   MIcro)
    6     dE    -2.741001e-09     6.924704e-07                           (NR   MIcro)
    7       -988.412480016726     7.329934e-07                           (NR   MAcro)

               *****************************************************
               *                     SUCCESS                       *
               *           SCF CONVERGED AFTER  71 CYCLES          *
               *****************************************************

Old exchange energy                            =    -52.577401938 Eh
New exchange energy                            =    -52.577346273 Eh
Exchange energy change after final integration =      0.000055665 Eh
Total energy after final integration           =   -988.412424352 Eh
Final COS-X integration done in                =    45.026 sec

----------------
TOTAL SCF ENERGY
----------------

Total Energy       :         -988.41242435 Eh          -26896.06944 eV

Components:
Nuclear Repulsion  :         1715.53169711 Eh           46681.99074 eV
Electronic Energy  :        -2703.94412146 Eh          -73578.06018 eV
One Electron Energy:        -4812.30496693 Eh         -130949.47549 eV
Two Electron Energy:         2108.36084546 Eh           57371.41531 eV
Max COSX asymmetry :            0.00003568 Eh               0.00097 eV

Virial components:
Potential Energy   :        -1889.74083023 Eh          -51422.46226 eV
Kinetic Energy     :          901.32840588 Eh           24526.39282 eV
Virial Ratio       :            2.09661741


DFT components:
N(Alpha)           :       76.999506730428 electrons
N(Beta)            :       76.999506730428 electrons
N(Total)           :      153.999013460856 electrons
E(X)               :      -70.132527719116 Eh       
E(C)               :       -6.896451801436 Eh       
E(XC)              :      -77.028979520552 Eh       
DFET-embed. en.    :        0.000000000000 Eh       

---------------
SCF CONVERGENCE
---------------

  Last Energy change         ...   -4.1737e-09  Tolerance :   1.0000e-08
  Last Orbital Gradient      ...    7.3299e-07  Tolerance :   1.0000e-05
  Last Orbital Rotation      ...    8.1444e-05

             **** THE GBW FILE WAS UPDATED (4_14_orca.gbw) ****
             **** DENSITY 4_14_orca.scfp WAS UPDATED ****
             **** ENERGY FILE WAS UPDATED (4_14_orca.en.tmp) ****
             **** THE GBW FILE WAS UPDATED (4_14_orca.gbw) ****
             **** DENSITY 4_14_orca.scfp WAS UPDATED ****
----------------
ORBITAL ENERGIES
----------------

  NO   OCC          E(Eh)            E(eV) 
   0   2.0000     -19.494401      -530.4696 
   1   2.0000     -19.479790      -530.0720 
   2   2.0000     -19.463281      -529.6228 
   3   2.0000     -19.429149      -528.6940 
   4   2.0000     -14.720991      -400.5785 
   5   2.0000     -10.555580      -287.2319 
   6   2.0000     -10.532087      -286.5927 
   7   2.0000     -10.527295      -286.4623 
   8   2.0000     -10.505579      -285.8713 
   9   2.0000     -10.497008      -285.6381 
  10   2.0000     -10.483023      -285.2576 
  11   2.0000     -10.480607      -285.1918 
  12   2.0000     -10.476751      -285.0869 
  13   2.0000     -10.473849      -285.0079 
  14   2.0000     -10.471784      -284.9517 
  15   2.0000     -10.470653      -284.9209 
  16   2.0000     -10.431225      -283.8481 
  17   2.0000     -10.414924      -283.4045 
  18   2.0000      -3.662136       -99.6518 
  19   2.0000      -2.312388       -62.9233 
  20   2.0000      -2.304577       -62.7107 
  21   2.0000      -2.271325       -61.8059 
  22   2.0000      -1.179762       -32.1030 
  23   2.0000      -1.150729       -31.3129 
  24   2.0000      -1.078479       -29.3469 
  25   2.0000      -1.060615       -28.8608 
  26   2.0000      -1.047364       -28.5002 
  27   2.0000      -0.975644       -26.5486 
  28   2.0000      -0.884854       -24.0781 
  29   2.0000      -0.850239       -23.1362 
  30   2.0000      -0.822799       -22.3895 
  31   2.0000      -0.815625       -22.1943 
  32   2.0000      -0.802101       -21.8263 
  33   2.0000      -0.800555       -21.7842 
  34   2.0000      -0.718250       -19.5446 
  35   2.0000      -0.694251       -18.8915 
  36   2.0000      -0.676069       -18.3968 
  37   2.0000      -0.608247       -16.5512 
  38   2.0000      -0.596739       -16.2381 
  39   2.0000      -0.591016       -16.0824 
  40   2.0000      -0.570484       -15.5236 
  41   2.0000      -0.569830       -15.5059 
  42   2.0000      -0.555269       -15.1096 
  43   2.0000      -0.532081       -14.4787 
  44   2.0000      -0.529661       -14.4128 
  45   2.0000      -0.521924       -14.2023 
  46   2.0000      -0.520938       -14.1754 
  47   2.0000      -0.512630       -13.9494 
  48   2.0000      -0.509550       -13.8656 
  49   2.0000      -0.497272       -13.5314 
  50   2.0000      -0.495551       -13.4846 
  51   2.0000      -0.490117       -13.3368 
  52   2.0000      -0.482436       -13.1278 
  53   2.0000      -0.469825       -12.7846 
  54   2.0000      -0.454986       -12.3808 
  55   2.0000      -0.446925       -12.1615 
  56   2.0000      -0.442245       -12.0341 
  57   2.0000      -0.436116       -11.8673 
  58   2.0000      -0.435543       -11.8517 
  59   2.0000      -0.431880       -11.7521 
  60   2.0000      -0.429963       -11.6999 
  61   2.0000      -0.417988       -11.3740 
  62   2.0000      -0.415804       -11.3146 
  63   2.0000      -0.402409       -10.9501 
  64   2.0000      -0.378967       -10.3122 
  65   2.0000      -0.368350       -10.0233 
  66   2.0000      -0.351397        -9.5620 
  67   2.0000      -0.347432        -9.4541 
  68   2.0000      -0.343914        -9.3584 
  69   2.0000      -0.338384        -9.2079 
  70   2.0000      -0.322992        -8.7891 
  71   2.0000      -0.315053        -8.5730 
  72   2.0000      -0.309285        -8.4161 
  73   2.0000      -0.301110        -8.1936 
  74   2.0000      -0.295439        -8.0393 
  75   2.0000      -0.288670        -7.8551 
  76   2.0000      -0.275111        -7.4861 
  77   0.0000      -0.073034        -1.9874 
  78   0.0000      -0.071438        -1.9439 
  79   0.0000      -0.013790        -0.3752 
  80   0.0000      -0.002346        -0.0638 
  81   0.0000       0.059452         1.6178 
  82   0.0000       0.069298         1.8857 
  83   0.0000       0.082660         2.2493 
  84   0.0000       0.089984         2.4486 
  85   0.0000       0.097310         2.6480 
  86   0.0000       0.114741         3.1223 
  87   0.0000       0.131568         3.5801 
  88   0.0000       0.139526         3.7967 
  89   0.0000       0.151819         4.1312 
  90   0.0000       0.158345         4.3088 
  91   0.0000       0.165939         4.5154 
  92   0.0000       0.172722         4.7000 
  93   0.0000       0.175946         4.7877 
  94   0.0000       0.189660         5.1609 
  95   0.0000       0.192122         5.2279 
  96   0.0000       0.202441         5.5087 
  97   0.0000       0.212450         5.7810 
  98   0.0000       0.213611         5.8127 
  99   0.0000       0.218724         5.9518 
 100   0.0000       0.221989         6.0406 
 101   0.0000       0.229359         6.2412 
 102   0.0000       0.235151         6.3988 
 103   0.0000       0.236763         6.4426 
 104   0.0000       0.240052         6.5321 
 105   0.0000       0.245779         6.6880 
 106   0.0000       0.248496         6.7619 
 107   0.0000       0.257481         7.0064 
 108   0.0000       0.263723         7.1763 
 109   0.0000       0.268402         7.3036 
 110   0.0000       0.273102         7.4315 
 111   0.0000       0.282774         7.6947 
 112   0.0000       0.298309         8.1174 
 113   0.0000       0.305206         8.3051 
 114   0.0000       0.325708         8.8630 
 115   0.0000       0.341483         9.2922 
 116   0.0000       0.347058         9.4439 
 117   0.0000       0.367065         9.9883 
 118   0.0000       0.384217        10.4551 
 119   0.0000       0.416747        11.3403 
 120   0.0000       0.424342        11.5469 
 121   0.0000       0.435271        11.8443 
 122   0.0000       0.454605        12.3704 
 123   0.0000       0.465789        12.6748 
 124   0.0000       0.472376        12.8540 
 125   0.0000       0.487392        13.2626 
 126   0.0000       0.498751        13.5717 
 127   0.0000       0.508599        13.8397 
 128   0.0000       0.526894        14.3375 
 129   0.0000       0.531381        14.4596 
 130   0.0000       0.534396        14.5416 
 131   0.0000       0.549510        14.9529 
 132   0.0000       0.554153        15.0793 
 133   0.0000       0.565141        15.3783 
 134   0.0000       0.574940        15.6449 
 135   0.0000       0.578319        15.7368 
 136   0.0000       0.583052        15.8656 
 137   0.0000       0.585928        15.9439 
 138   0.0000       0.590518        16.0688 
 139   0.0000       0.594559        16.1788 
 140   0.0000       0.604917        16.4606 
 141   0.0000       0.608260        16.5516 
 142   0.0000       0.618058        16.8182 
 143   0.0000       0.622656        16.9433 
 144   0.0000       0.626288        17.0422 
 145   0.0000       0.631901        17.1949 
 146   0.0000       0.634821        17.2744 
 147   0.0000       0.641915        17.4674 
 148   0.0000       0.646480        17.5916 
 149   0.0000       0.650548        17.7023 
 150   0.0000       0.660029        17.9603 
 151   0.0000       0.675122        18.3710 
 152   0.0000       0.681050        18.5323 
 153   0.0000       0.686749        18.6874 
 154   0.0000       0.698578        19.0093 
 155   0.0000       0.710148        19.3241 
 156   0.0000       0.713072        19.4037 
 157   0.0000       0.739842        20.1321 
 158   0.0000       0.758958        20.6523 
 159   0.0000       0.783163        21.3110 
 160   0.0000       0.806973        21.9588 
 161   0.0000       0.827363        22.5137 
 162   0.0000       0.835042        22.7227 
 163   0.0000       0.857545        23.3350 
 164   0.0000       0.864620        23.5275 
 165   0.0000       0.875809        23.8320 
 166   0.0000       0.889966        24.2172 
 167   0.0000       0.896971        24.4078 
 168   0.0000       0.905471        24.6391 
 169   0.0000       0.928694        25.2711 
 170   0.0000       0.934612        25.4321 
 171   0.0000       0.942053        25.6346 
 172   0.0000       0.948913        25.8212 
 173   0.0000       0.960975        26.1495 
 174   0.0000       0.974701        26.5230 
 175   0.0000       0.990500        26.9529 
 176   0.0000       0.998071        27.1589 
 177   0.0000       1.000082        27.2136 
 178   0.0000       1.002012        27.2661 
 179   0.0000       1.007328        27.4108 
 180   0.0000       1.017431        27.6857 
 181   0.0000       1.025385        27.9021 
 182   0.0000       1.038387        28.2559 
 183   0.0000       1.045117        28.4391 
 184   0.0000       1.048861        28.5410 
 185   0.0000       1.057739        28.7825 
 186   0.0000       1.061619        28.8881 
 187   0.0000       1.065432        28.9919 
 188   0.0000       1.075525        29.2665 
 189   0.0000       1.082630        29.4598 
 190   0.0000       1.088425        29.6175 
 191   0.0000       1.097857        29.8742 
 192   0.0000       1.105720        30.0882 
 193   0.0000       1.112895        30.2834 
 194   0.0000       1.135290        30.8928 
 195   0.0000       1.141113        31.0513 
 196   0.0000       1.150716        31.3126 
 197   0.0000       1.158618        31.5276 
 198   0.0000       1.175322        31.9821 
 199   0.0000       1.188069        32.3290 
 200   0.0000       1.193531        32.4776 
 201   0.0000       1.211103        32.9558 
 202   0.0000       1.233757        33.5722 
 203   0.0000       1.240965        33.7684 
 204   0.0000       1.253258        34.1029 
 205   0.0000       1.268703        34.5232 
 206   0.0000       1.279972        34.8298 
 207   0.0000       1.282835        34.9077 
 208   0.0000       1.313373        35.7387 
 209   0.0000       1.322003        35.9735 
 210   0.0000       1.335370        36.3373 
 211   0.0000       1.387418        37.7536 
 212   0.0000       1.406991        38.2862 
 213   0.0000       1.442263        39.2460 
 214   0.0000       1.454688        39.5841 
 215   0.0000       1.459431        39.7131 
 216   0.0000       1.468693        39.9652 
 217   0.0000       1.484668        40.3999 
 218   0.0000       1.492868        40.6230 
 219   0.0000       1.495757        40.7016 
 220   0.0000       1.521551        41.4035 
 221   0.0000       1.523801        41.4647 
 222   0.0000       1.534563        41.7576 
 223   0.0000       1.543222        41.9932 
 224   0.0000       1.557945        42.3938 
 225   0.0000       1.576772        42.9062 
 226   0.0000       1.597712        43.4760 
 227   0.0000       1.617849        44.0239 
 228   0.0000       1.637301        44.5532 
 229   0.0000       1.735359        47.2215 
 230   0.0000       1.761693        47.9381 
 231   0.0000       1.767024        48.0832 
 232   0.0000       1.780580        48.4521 
 233   0.0000       1.811289        49.2877 
 234   0.0000       1.830470        49.8096 
 235   0.0000       1.836894        49.9844 
 236   0.0000       1.854362        50.4597 
 237   0.0000       1.871787        50.9339 
 238   0.0000       1.886292        51.3286 
 239   0.0000       1.906944        51.8906 
 240   0.0000       1.914155        52.0868 
 241   0.0000       1.921612        52.2897 
 242   0.0000       1.924882        52.3787 
 243   0.0000       1.934588        52.6428 
 244   0.0000       1.950414        53.0735 
 245   0.0000       1.954403        53.1820 
 246   0.0000       1.969032        53.5801 
 247   0.0000       1.985869        54.0383 
 248   0.0000       2.002484        54.4904 
 249   0.0000       2.016603        54.8745 
 250   0.0000       2.029043        55.2131 
 251   0.0000       2.039295        55.4920 
 252   0.0000       2.050728        55.8031 
 253   0.0000       2.054399        55.9030 
 254   0.0000       2.065276        56.1990 
 255   0.0000       2.083527        56.6956 
 256   0.0000       2.095017        57.0083 
 257   0.0000       2.097051        57.0637 
 258   0.0000       2.101007        57.1713 
 259   0.0000       2.112501        57.4841 
 260   0.0000       2.127066        57.8804 
 261   0.0000       2.138853        58.2012 
 262   0.0000       2.156680        58.6862 
 263   0.0000       2.160501        58.7902 
 264   0.0000       2.170192        59.0539 
 265   0.0000       2.178203        59.2719 
 266   0.0000       2.188824        59.5609 
 267   0.0000       2.196454        59.7686 
 268   0.0000       2.205264        60.0083 
 269   0.0000       2.225696        60.5643 
 270   0.0000       2.245281        61.0972 
 271   0.0000       2.249075        61.2004 
 272   0.0000       2.275222        61.9119 
 273   0.0000       2.286463        62.2178 
 274   0.0000       2.299299        62.5671 
 275   0.0000       2.310019        62.8588 
 276   0.0000       2.315347        63.0038 
 277   0.0000       2.321746        63.1779 
 278   0.0000       2.346256        63.8449 
 279   0.0000       2.362704        64.2925 
 280   0.0000       2.364658        64.3456 
 281   0.0000       2.377416        64.6928 
 282   0.0000       2.420690        65.8703 
 283   0.0000       2.446490        66.5724 
 284   0.0000       2.463363        67.0315 
 285   0.0000       2.464845        67.0718 
 286   0.0000       2.472047        67.2678 
 287   0.0000       2.483003        67.5660 
 288   0.0000       2.490433        67.7681 
 289   0.0000       2.495173        67.8971 
 290   0.0000       2.515933        68.4620 
 291   0.0000       2.553218        69.4766 
 292   0.0000       2.579397        70.1890 
 293   0.0000       2.596942        70.6664 
 294   0.0000       2.615632        71.1750 
 295   0.0000       2.620578        71.3095 
 296   0.0000       2.645292        71.9821 
 297   0.0000       2.670484        72.6676 
 298   0.0000       2.693690        73.2990 
 299   0.0000       2.725563        74.1663 
 300   0.0000       2.733701        74.3878 
 301   0.0000       2.741465        74.5991 
 302   0.0000       2.752642        74.9032 
 303   0.0000       2.771842        75.4256 
 304   0.0000       2.779033        75.6213 
 305   0.0000       2.803389        76.2841 
 306   0.0000       2.809232        76.4431 
 307   0.0000       2.836243        77.1781 
 308   0.0000       2.843224        77.3681 
 309   0.0000       2.863606        77.9227 
 310   0.0000       2.878237        78.3208 
 311   0.0000       2.904831        79.0445 
 312   0.0000       3.036951        82.6397 
 313   0.0000       3.052144        83.0531 
 314   0.0000       3.059413        83.2509 
 315   0.0000       3.079472        83.7967 
 316   0.0000       3.085625        83.9641 
 317   0.0000       3.219429        87.6051 
 318   0.0000       3.238183        88.1154 
 319   0.0000       3.375878        91.8623 
 320   0.0000      13.253069       360.6343 
 321   0.0000      13.610294       370.3549 
 322   0.0000      13.635835       371.0499 
 323   0.0000      13.676640       372.1603 
 324   0.0000      13.701180       372.8281 
 325   0.0000      13.722253       373.4015 
 326   0.0000      13.856305       377.0492 
 327   0.0000      13.946611       379.5066 
 328   0.0000      14.059284       382.5726 
 329   0.0000      14.118869       384.1939 
 330   0.0000      14.124719       384.3531 
 331   0.0000      14.147589       384.9755 
 332   0.0000      14.435088       392.7987 
 333   0.0000      19.361766       526.8604 
 334   0.0000      25.716542       699.7827 
 335   0.0000      25.728043       700.0956 
 336   0.0000      25.763198       701.0523 
 337   0.0000      25.805651       702.2075 
 338   0.0000      51.564493      1403.1412 

                    ********************************
                    * MULLIKEN POPULATION ANALYSIS *
                    ********************************

-----------------------
MULLIKEN ATOMIC CHARGES
-----------------------
   0 Pd:    0.555813
   1 O :   -0.483726
   2 C :    0.630836
   3 O :   -0.507583
   4 C :   -0.769394
   5 H :    0.250618
   6 H :    0.259028
   7 H :    0.252857
   8 N :   -0.471014
   9 C :   -0.539478
  10 H :    0.300632
  11 H :    0.218473
  12 H :    0.260670
  13 C :   -0.542830
  14 H :    0.272668
  15 H :    0.226761
  16 H :    0.289124
  17 C :   -0.016808
  18 C :   -0.227742
  19 C :   -0.214263
  20 C :   -0.224712
  21 C :   -0.222785
  22 C :   -0.082612
  23 H :    0.235301
  24 H :    0.247900
  25 H :    0.235019
  26 H :    0.235696
  27 H :    0.103899
  28 C :   -0.318427
  29 H :    0.253161
  30 H :    0.251499
  31 O :   -0.526365
  32 C :    0.570643
  33 O :   -0.485400
  34 C :   -0.741909
  35 H :    0.233876
  36 H :    0.244136
  37 H :    0.246436
Sum of atomic charges:   -0.0000000

--------------------------------
MULLIKEN REDUCED ORBITAL CHARGES
--------------------------------
  0 Pds       :     2.442813  s :     2.442813
      pz      :     2.081860  p :     6.343375
      px      :     2.135385
      py      :     2.126130
      dz2     :     1.984266  d :     8.653970
      dxz     :     1.593354
      dyz     :     1.966653
      dx2y2   :     1.876534
      dxy     :     1.233163
      f0      :     0.000499  f :     0.004029
      f+1     :     0.000296
      f-1     :     0.000236
      f+2     :     0.000372
      f-2     :     0.001067
      f+3     :     0.000505
      f-3     :     0.001054
  1 O s       :     3.815109  s :     3.815109
      pz      :     1.627625  p :     4.639242
      px      :     1.675476
      py      :     1.336140
      dz2     :     0.003522  d :     0.029375
      dxz     :     0.003386
      dyz     :     0.006925
      dx2y2   :     0.007459
      dxy     :     0.008083
  2 C s       :     2.954568  s :     2.954568
      pz      :     0.715043  p :     2.273774
      px      :     0.777726
      py      :     0.781005
      dz2     :     0.010621  d :     0.140822
      dxz     :     0.019789
      dyz     :     0.021119
      dx2y2   :     0.041126
      dxy     :     0.048167
  3 O s       :     3.816687  s :     3.816687
      pz      :     1.547925  p :     4.664947
      px      :     1.369982
      py      :     1.747041
      dz2     :     0.003779  d :     0.025948
      dxz     :     0.008211
      dyz     :     0.001142
      dx2y2   :     0.008076
      dxy     :     0.004740
  4 C s       :     3.413212  s :     3.413212
      pz      :     1.159720  p :     3.322428
      px      :     1.092852
      py      :     1.069856
      dz2     :     0.005344  d :     0.033754
      dxz     :     0.008556
      dyz     :     0.005549
      dx2y2   :     0.004445
      dxy     :     0.009859
  5 H s       :     0.749382  s :     0.749382
  6 H s       :     0.740972  s :     0.740972
  7 H s       :     0.747143  s :     0.747143
  8 N s       :     3.606040  s :     3.606040
      pz      :     1.176990  p :     3.817430
      px      :     1.442366
      py      :     1.198075
      dz2     :     0.008114  d :     0.047543
      dxz     :     0.009306
      dyz     :     0.013203
      dx2y2   :     0.006521
      dxy     :     0.010398
  9 C s       :     3.371265  s :     3.371265
      pz      :     0.966065  p :     3.120450
      px      :     1.127616
      py      :     1.026770
      dz2     :     0.009226  d :     0.047763
      dxz     :     0.007280
      dyz     :     0.013850
      dx2y2   :     0.006153
      dxy     :     0.011255
 10 H s       :     0.699368  s :     0.699368
 11 H s       :     0.781527  s :     0.781527
 12 H s       :     0.739330  s :     0.739330
 13 C s       :     3.373285  s :     3.373285
      pz      :     1.170135  p :     3.120684
      px      :     1.006621
      py      :     0.943929
      dz2     :     0.006815  d :     0.048861
      dxz     :     0.007157
      dyz     :     0.013580
      dx2y2   :     0.009840
      dxy     :     0.011469
 14 H s       :     0.727332  s :     0.727332
 15 H s       :     0.773239  s :     0.773239
 16 H s       :     0.710876  s :     0.710876
 17 C s       :     3.206207  s :     3.206207
      pz      :     0.891776  p :     2.766459
      px      :     0.982093
      py      :     0.892590
      dz2     :     0.010003  d :     0.044142
      dxz     :     0.007076
      dyz     :     0.012277
      dx2y2   :     0.007614
      dxy     :     0.007172
 18 C s       :     3.254857  s :     3.254857
      pz      :     0.959735  p :     2.932891
      px      :     0.961586
      py      :     1.011570
      dz2     :     0.009833  d :     0.039994
      dxz     :     0.007223
      dyz     :     0.012486
      dx2y2   :     0.005707
      dxy     :     0.004745
 19 C s       :     3.252416  s :     3.252416
      pz      :     0.933238  p :     2.922999
      px      :     0.995450
      py      :     0.994311
      dz2     :     0.009515  d :     0.038848
      dxz     :     0.007888
      dyz     :     0.011675
      dx2y2   :     0.004009
      dxy     :     0.005762
 20 C s       :     3.253526  s :     3.253526
      pz      :     1.060207  p :     2.931738
      px      :     0.958841
      py      :     0.912690
      dz2     :     0.012801  d :     0.039447
      dxz     :     0.004582
      dyz     :     0.008942
      dx2y2   :     0.006610
      dxy     :     0.006512
 21 C s       :     3.255054  s :     3.255054
      pz      :     0.935517  p :     2.927942
      px      :     0.986948
      py      :     1.005477
      dz2     :     0.010642  d :     0.039789
      dxz     :     0.007429
      dyz     :     0.011401
      dx2y2   :     0.004669
      dxy     :     0.005648
 22 C s       :     3.249767  s :     3.249767
      pz      :     0.865199  p :     2.799140
      px      :     0.960446
      py      :     0.973495
      dz2     :     0.010594  d :     0.033705
      dxz     :     0.006080
      dyz     :     0.009009
      dx2y2   :     0.004328
      dxy     :     0.003694
 23 H s       :     0.764699  s :     0.764699
 24 H s       :     0.752100  s :     0.752100
 25 H s       :     0.764981  s :     0.764981
 26 H s       :     0.764304  s :     0.764304
 27 H s       :     0.896101  s :     0.896101
 28 C s       :     3.313320  s :     3.313320
      pz      :     0.830832  p :     2.949457
      px      :     1.059067
      py      :     1.059558
      dz2     :     0.016893  d :     0.055650
      dxz     :     0.010157
      dyz     :     0.009540
      dx2y2   :     0.015028
      dxy     :     0.004032
 29 H s       :     0.746839  s :     0.746839
 30 H s       :     0.748501  s :     0.748501
 31 O s       :     3.812501  s :     3.812501
      pz      :     1.402320  p :     4.686857
      px      :     1.634767
      py      :     1.649770
      dz2     :     0.009584  d :     0.027007
      dxz     :     0.005117
      dyz     :     0.007089
      dx2y2   :     0.002230
      dxy     :     0.002986
 32 C s       :     2.952340  s :     2.952340
      pz      :     0.757832  p :     2.334154
      px      :     0.822726
      py      :     0.753596
      dz2     :     0.046719  d :     0.142863
      dxz     :     0.036534
      dyz     :     0.027545
      dx2y2   :     0.016766
      dxy     :     0.015300
 33 O s       :     3.787624  s :     3.787624
      pz      :     1.621170  p :     4.670887
      px      :     1.592814
      py      :     1.456903
      dz2     :     0.004969  d :     0.026889
      dxz     :     0.006726
      dyz     :     0.005544
      dx2y2   :     0.005233
      dxy     :     0.004417
 34 C s       :     3.407655  s :     3.407655
      pz      :     1.158011  p :     3.300030
      px      :     1.009411
      py      :     1.132608
      dz2     :     0.008443  d :     0.034224
      dxz     :     0.008579
      dyz     :     0.003394
      dx2y2   :     0.010241
      dxy     :     0.003567
 35 H s       :     0.766124  s :     0.766124
 36 H s       :     0.755864  s :     0.755864
 37 H s       :     0.753564  s :     0.753564


                     *******************************
                     * LOEWDIN POPULATION ANALYSIS *
                     *******************************

----------------------
LOEWDIN ATOMIC CHARGES
----------------------
   0 Pd:   -0.217513
   1 O :   -0.137089
   2 C :    0.170713
   3 O :   -0.252695
   4 C :   -0.380031
   5 H :    0.150050
   6 H :    0.163302
   7 H :    0.151976
   8 N :   -0.064320
   9 C :   -0.240490
  10 H :    0.167930
  11 H :    0.120450
  12 H :    0.145512
  13 C :   -0.235909
  14 H :    0.156355
  15 H :    0.123659
  16 H :    0.159958
  17 C :   -0.062035
  18 C :   -0.106834
  19 C :   -0.125411
  20 C :   -0.124046
  21 C :   -0.141641
  22 C :   -0.040882
  23 H :    0.143718
  24 H :    0.149995
  25 H :    0.150366
  26 H :    0.145020
  27 H :    0.100481
  28 C :   -0.106562
  29 H :    0.144097
  30 H :    0.145538
  31 O :   -0.162258
  32 C :    0.131381
  33 O :   -0.288052
  34 C :   -0.378135
  35 H :    0.147649
  36 H :    0.150701
  37 H :    0.145052

-------------------------------
LOEWDIN REDUCED ORBITAL CHARGES
-------------------------------
  0 Pds       :     2.469368  s :     2.469368
      pz      :     2.171102  p :     6.711238
      px      :     2.296934
      py      :     2.243203
      dz2     :     2.031417  d :     9.031415
      dxz     :     1.674308
      dyz     :     2.007968
      dx2y2   :     1.958880
      dxy     :     1.358842
      f0      :     0.000719  f :     0.005491
      f+1     :     0.000376
      f-1     :     0.000285
      f+2     :     0.000472
      f-2     :     0.001513
      f+3     :     0.000623
      f-3     :     0.001503
  1 O s       :     3.451600  s :     3.451600
      pz      :     1.587800  p :     4.626272
      px      :     1.643184
      py      :     1.395288
      dz2     :     0.007621  d :     0.059218
      dxz     :     0.004455
      dyz     :     0.011217
      dx2y2   :     0.018066
      dxy     :     0.017859
  2 C s       :     2.805409  s :     2.805409
      pz      :     0.747362  p :     2.708713
      px      :     0.974016
      py      :     0.987335
      dz2     :     0.024259  d :     0.315165
      dxz     :     0.042313
      dyz     :     0.043992
      dx2y2   :     0.091665
      dxy     :     0.112935
  3 O s       :     3.516751  s :     3.516751
      pz      :     1.538808  p :     4.686860
      px      :     1.444001
      py      :     1.704051
      dz2     :     0.006275  d :     0.049084
      dxz     :     0.013527
      dyz     :     0.001960
      dx2y2   :     0.017021
      dxy     :     0.010301
  4 C s       :     2.952370  s :     2.952370
      pz      :     1.144208  p :     3.363920
      px      :     1.114448
      py      :     1.105265
      dz2     :     0.009190  d :     0.063740
      dxz     :     0.015303
      dyz     :     0.010265
      dx2y2   :     0.009043
      dxy     :     0.019940
  5 H s       :     0.849950  s :     0.849950
  6 H s       :     0.836698  s :     0.836698
  7 H s       :     0.848024  s :     0.848024
  8 N s       :     3.113960  s :     3.113960
      pz      :     1.207525  p :     3.845107
      px      :     1.407390
      py      :     1.230192
      dz2     :     0.018780  d :     0.105254
      dxz     :     0.019171
      dyz     :     0.031227
      dx2y2   :     0.014036
      dxy     :     0.022041
  9 C s       :     2.955898  s :     2.955898
      pz      :     1.013465  p :     3.193662
      px      :     1.129135
      py      :     1.051062
      dz2     :     0.017818  d :     0.090931
      dxz     :     0.013794
      dyz     :     0.027898
      dx2y2   :     0.011225
      dxy     :     0.020195
 10 H s       :     0.832070  s :     0.832070
 11 H s       :     0.879550  s :     0.879550
 12 H s       :     0.854488  s :     0.854488
 13 C s       :     2.950310  s :     2.950310
      pz      :     1.136413  p :     3.191762
      px      :     1.048292
      py      :     1.007057
      dz2     :     0.012146  d :     0.093837
      dxz     :     0.013090
      dyz     :     0.024698
      dx2y2   :     0.020414
      dxy     :     0.023489
 14 H s       :     0.843645  s :     0.843645
 15 H s       :     0.876341  s :     0.876341
 16 H s       :     0.840042  s :     0.840042
 17 C s       :     2.855489  s :     2.855489
      pz      :     1.036988  p :     3.103416
      px      :     1.002606
      py      :     1.063823
      dz2     :     0.024518  d :     0.103130
      dxz     :     0.015180
      dyz     :     0.030321
      dx2y2   :     0.016555
      dxy     :     0.016556
 18 C s       :     2.889489  s :     2.889489
      pz      :     1.081333  p :     3.126541
      px      :     0.989747
      py      :     1.055461
      dz2     :     0.025253  d :     0.090803
      dxz     :     0.016198
      dyz     :     0.029554
      dx2y2   :     0.010506
      dxy     :     0.009291
 19 C s       :     2.897243  s :     2.897243
      pz      :     1.081203  p :     3.140819
      px      :     1.002746
      py      :     1.056870
      dz2     :     0.024531  d :     0.087349
      dxz     :     0.017045
      dyz     :     0.028014
      dx2y2   :     0.007206
      dxy     :     0.010552
 20 C s       :     2.898389  s :     2.898389
      pz      :     1.080548  p :     3.137108
      px      :     1.000307
      py      :     1.056253
      dz2     :     0.026332  d :     0.088550
      dxz     :     0.009708
      dyz     :     0.022669
      dx2y2   :     0.014500
      dxy     :     0.015341
 21 C s       :     2.902119  s :     2.902119
      pz      :     1.085059  p :     3.149591
      px      :     1.000677
      py      :     1.063856
      dz2     :     0.028261  d :     0.089931
      dxz     :     0.016128
      dyz     :     0.026837
      dx2y2   :     0.008161
      dxy     :     0.010544
 22 C s       :     2.964572  s :     2.964572
      pz      :     1.046748  p :     3.002819
      px      :     0.961523
      py      :     0.994548
      dz2     :     0.025127  d :     0.073490
      dxz     :     0.012033
      dyz     :     0.021489
      dx2y2   :     0.008216
      dxy     :     0.006625
 23 H s       :     0.856282  s :     0.856282
 24 H s       :     0.850005  s :     0.850005
 25 H s       :     0.849634  s :     0.849634
 26 H s       :     0.854980  s :     0.854980
 27 H s       :     0.899519  s :     0.899519
 28 C s       :     2.892427  s :     2.892427
      pz      :     0.968154  p :     3.099651
      px      :     1.068808
      py      :     1.062689
      dz2     :     0.036875  d :     0.114484
      dxz     :     0.022127
      dyz     :     0.020458
      dx2y2   :     0.026943
      dxy     :     0.008082
 29 H s       :     0.855903  s :     0.855903
 30 H s       :     0.854462  s :     0.854462
 31 O s       :     3.447570  s :     3.447570
      pz      :     1.448755  p :     4.655891
      px      :     1.591963
      py      :     1.615172
      dz2     :     0.021360  d :     0.058798
      dxz     :     0.014157
      dyz     :     0.013324
      dx2y2   :     0.004646
      dxy     :     0.005311
 32 C s       :     2.806272  s :     2.806272
      pz      :     0.946047  p :     2.738606
      px      :     0.979123
      py      :     0.813436
      dz2     :     0.109759  d :     0.323741
      dxz     :     0.080072
      dyz     :     0.064945
      dx2y2   :     0.035452
      dxy     :     0.033512
 33 O s       :     3.520594  s :     3.520594
      pz      :     1.630721  p :     4.716327
      px      :     1.613848
      py      :     1.471758
      dz2     :     0.009227  d :     0.051132
      dxz     :     0.013698
      dyz     :     0.011170
      dx2y2   :     0.007385
      dxy     :     0.009653
 34 C s       :     2.958791  s :     2.958791
      pz      :     1.136161  p :     3.355298
      px      :     1.086126
      py      :     1.133011
      dz2     :     0.014759  d :     0.064046
      dxz     :     0.016206
      dyz     :     0.005376
      dx2y2   :     0.019771
      dxy     :     0.007934
 35 H s       :     0.852351  s :     0.852351
 36 H s       :     0.849299  s :     0.849299
 37 H s       :     0.854948  s :     0.854948


                      *****************************
                      * MAYER POPULATION ANALYSIS *
                      *****************************

  NA   - Mulliken gross atomic population
  ZA   - Total nuclear charge
  QA   - Mulliken gross atomic charge
  VA   - Mayer's total valence
  BVA  - Mayer's bonded valence
  FA   - Mayer's free valence

  ATOM       NA         ZA         QA         VA         BVA        FA
  0 Pd    17.4442    18.0000     0.5558     2.3391     2.3391     0.0000
  1 O      8.4837     8.0000    -0.4837     2.1673     2.1673    -0.0000
  2 C      5.3692     6.0000     0.6308     3.9421     3.9421    -0.0000
  3 O      8.5076     8.0000    -0.5076     2.1177     2.1177    -0.0000
  4 C      6.7694     6.0000    -0.7694     3.6825     3.6825    -0.0000
  5 H      0.7494     1.0000     0.2506     0.8994     0.8994    -0.0000
  6 H      0.7410     1.0000     0.2590     0.8949     0.8949     0.0000
  7 H      0.7471     1.0000     0.2529     0.9004     0.9004    -0.0000
  8 N      7.4710     7.0000    -0.4710     3.1482     3.1482    -0.0000
  9 C      6.5395     6.0000    -0.5395     3.5979     3.5979     0.0000
 10 H      0.6994     1.0000     0.3006     0.8987     0.8987    -0.0000
 11 H      0.7815     1.0000     0.2185     0.9085     0.9085    -0.0000
 12 H      0.7393     1.0000     0.2607     0.9000     0.9000     0.0000
 13 C      6.5428     6.0000    -0.5428     3.5897     3.5897     0.0000
 14 H      0.7273     1.0000     0.2727     0.9019     0.9019    -0.0000
 15 H      0.7732     1.0000     0.2268     0.9094     0.9094     0.0000
 16 H      0.7109     1.0000     0.2891     0.8865     0.8865    -0.0000
 17 C      6.0168     6.0000    -0.0168     3.7692     3.7692     0.0000
 18 C      6.2277     6.0000    -0.2277     3.8353     3.8353     0.0000
 19 C      6.2143     6.0000    -0.2143     3.8260     3.8260    -0.0000
 20 C      6.2247     6.0000    -0.2247     3.8077     3.8077     0.0000
 21 C      6.2228     6.0000    -0.2228     3.8116     3.8116    -0.0000
 22 C      6.0826     6.0000    -0.0826     3.8071     3.8071     0.0000
 23 H      0.7647     1.0000     0.2353     0.9070     0.9070     0.0000
 24 H      0.7521     1.0000     0.2479     0.9082     0.9082     0.0000
 25 H      0.7650     1.0000     0.2350     0.9112     0.9112     0.0000
 26 H      0.7643     1.0000     0.2357     0.9076     0.9076     0.0000
 27 H      0.8961     1.0000     0.1039     0.9860     0.9860    -0.0000
 28 C      6.3184     6.0000    -0.3184     3.6243     3.6243     0.0000
 29 H      0.7468     1.0000     0.2532     0.8944     0.8944    -0.0000
 30 H      0.7485     1.0000     0.2515     0.9008     0.9008     0.0000
 31 O      8.5264     8.0000    -0.5264     2.1010     2.1010     0.0000
 32 C      5.4294     6.0000     0.5706     4.0465     4.0465     0.0000
 33 O      8.4854     8.0000    -0.4854     2.1022     2.1022    -0.0000
 34 C      6.7419     6.0000    -0.7419     3.6914     3.6914    -0.0000
 35 H      0.7661     1.0000     0.2339     0.9054     0.9054    -0.0000
 36 H      0.7559     1.0000     0.2441     0.9056     0.9056    -0.0000
 37 H      0.7536     1.0000     0.2464     0.9034     0.9034    -0.0000

  Mayer bond orders larger than 0.100000
B(  0-Pd,  1-O ) :   0.6240 B(  0-Pd,  3-O ) :   0.3224 B(  0-Pd,  8-N ) :   0.4020 
B(  0-Pd, 31-O ) :   0.6647 B(  0-Pd, 33-O ) :   0.1050 B(  1-O ,  2-C ) :   1.3565 
B(  2-C ,  3-O ) :   1.6413 B(  2-C ,  4-C ) :   0.9504 B(  4-C ,  5-H ) :   0.9108 
B(  4-C ,  6-H ) :   0.9025 B(  4-C ,  7-H ) :   0.9093 B(  8-N ,  9-C ) :   0.9166 
B(  8-N , 13-C ) :   0.9183 B(  8-N , 28-C ) :   0.8944 B(  9-C , 10-H ) :   0.8773 
B(  9-C , 11-H ) :   0.9023 B(  9-C , 12-H ) :   0.9067 B( 13-C , 14-H ) :   0.8901 
B( 13-C , 15-H ) :   0.9021 B( 13-C , 16-H ) :   0.8939 B( 17-C , 18-C ) :   1.4061 
B( 17-C , 22-C ) :   1.3931 B( 17-C , 28-C ) :   0.9465 B( 18-C , 19-C ) :   1.4220 
B( 18-C , 25-H ) :   0.9078 B( 19-C , 20-C ) :   1.4339 B( 19-C , 26-H ) :   0.9133 
B( 20-C , 21-C ) :   1.3995 B( 20-C , 23-H ) :   0.9119 B( 21-C , 22-C ) :   1.4412 
B( 21-C , 24-H ) :   0.9085 B( 22-C , 27-H ) :   0.8648 B( 28-C , 29-H ) :   0.8944 
B( 28-C , 30-H ) :   0.9148 B( 31-O , 32-C ) :   1.2754 B( 32-C , 33-O ) :   1.8403 
B( 32-C , 34-C ) :   0.9351 B( 34-C , 35-H ) :   0.9131 B( 34-C , 36-H ) :   0.9127 
B( 34-C , 37-H ) :   0.9163 


------------------
HIRSHFELD ANALYSIS
------------------

Total integrated alpha density =     76.999506730
Total integrated beta density  =     76.999506730

  ATOM     CHARGE      SPIN    
   0 Pd   0.638008    0.000000
   1 O   -0.307253    0.000000
   2 C    0.204063    0.000000
   3 O   -0.380214    0.000000
   4 C   -0.071773    0.000000
   5 H    0.044783    0.000000
   6 H    0.053213    0.000000
   7 H    0.045920    0.000000
   8 N   -0.083178    0.000000
   9 C   -0.019772    0.000000
  10 H    0.048135    0.000000
  11 H    0.033744    0.000000
  12 H    0.042728    0.000000
  13 C   -0.026736    0.000000
  14 H    0.030436    0.000000
  15 H    0.036142    0.000000
  16 H    0.048566    0.000000
  17 C   -0.019298    0.000000
  18 C   -0.036738    0.000000
  19 C   -0.035607    0.000000
  20 C   -0.032732    0.000000
  21 C   -0.047398    0.000000
  22 C   -0.036970    0.000000
  23 H    0.050089    0.000000
  24 H    0.050329    0.000000
  25 H    0.051757    0.000000
  26 H    0.052963    0.000000
  27 H    0.049701    0.000000
  28 C    0.005722    0.000000
  29 H    0.039009    0.000000
  30 H    0.041098    0.000000
  31 O   -0.323401    0.000000
  32 C    0.194044    0.000000
  33 O   -0.381502    0.000000
  34 C   -0.079559    0.000000
  35 H    0.040062    0.000000
  36 H    0.044243    0.000000
  37 H    0.038363    0.000000

  TOTAL   0.000987    0.000000

-------
TIMINGS
-------

Total SCF time: 0 days 0 hours 15 min 40 sec 

Total time                  ....     940.404 sec
Sum of individual times     ....     937.072 sec  ( 99.6%)

Fock matrix formation       ....     929.222 sec  ( 98.8%)
  Split-RI-J                ....     144.951 sec  ( 15.6% of F)
  Chain of spheres X        ....     707.351 sec  ( 76.1% of F)
  XC integration            ....      75.621 sec  (  8.1% of F)
    Basis function eval.    ....      25.067 sec  ( 33.1% of XC)
    Density eval.           ....      18.610 sec  ( 24.6% of XC)
    XC-Functional eval.     ....       3.135 sec  (  4.1% of XC)
    XC-Potential eval.      ....      22.922 sec  ( 30.3% of XC)
Diagonalization             ....       0.421 sec  (  0.0%)
Density matrix formation    ....       0.102 sec  (  0.0%)
Population analysis         ....       1.219 sec  (  0.1%)
Initial guess               ....       0.054 sec  (  0.0%)
Orbital Transformation      ....       0.460 sec  (  0.0%)
Orbital Orthonormalization  ....       0.000 sec  (  0.0%)
DIIS solution               ....       0.136 sec  (  0.0%)
Grid generation             ....       5.457 sec  (  0.6%)

Maximum memory used throughout the entire SCF-calculation: 154.2 MB


-------------------------------------------------------------------------------
                          DFT DISPERSION CORRECTION                            
                                                                               
                              DFTD3 V3.1  Rev 1                                
                          USING Becke-Johnson damping                          
-------------------------------------------------------------------------------
The PBEh-3c composite method is recognized
Using three-body term ABC
Active option DFTDOPT                   ...         4   

molecular C6(AA) [au] = 16861.710700 


            DFT-D V3
 parameters
 s6 scaling factor         :     1.0000 
 a1 scaling factor         :     0.4860 
 s8 scaling factor         :     0.0000 
 a2 scaling factor         :     4.5000 
 Damping factor alpha9(ATM):    16.0000 
 ad hoc parameters k1-k3   :    16.0000     1.3333    -4.0000 

 Edisp/kcal,au: -16.434232015892  -0.026189612973 
 E6   /kcal   : -16.654698431 
 E8   /kcal   :  -0.000000000 
 E6(ABC)      :   0.220466415 
 % E8         :   0.000000000 
 % E6(ABC)    :  -1.341507257 

-------------------------   ----------------
Dispersion correction           -0.026189613
-------------------------   ----------------

 ** NOTE ** -> element pd will be treated as ni
------------------   -----------------
gCP correction             0.073244237
------------------   -----------------

-------------------------   --------------------
FINAL SINGLE POINT ENERGY      -988.365369728115
-------------------------   --------------------

------------------------------------------------------------------------------
                         ORCA SCF GRADIENT CALCULATION
------------------------------------------------------------------------------

 ... reading COSX grid (gridx3)
Gradient of the Kohn-Sham DFT energy:
Kohn-Sham wavefunction type      ... RKS
Hartree-Fock exchange scaling    ...    0.420
Number of operators              ...    1
Number of atoms                  ...   38
Basis set dimensions             ...  339
Integral neglect threshold       ... 2.5e-11
Integral primitive cutoff        ... 2.5e-12
SHARK Integral package           ... ON

Nuc. rep. gradient       (SHARK) ... done (  0.0 sec)
HCore & Overlap gradient (SHARK) ... done (  1.3 sec)
ECP gradient             (SHARK) ... done (  2.2 sec)
RI-J gradient            (SHARK) ... done (  6.4 sec)
COSX-gradient                    ... done ( 56.9 sec)
Exchange-correlation gradient    ... done
Dispersion correction            ... done
gCP correction                   ... done

------------------
CARTESIAN GRADIENT
------------------

   1   Pd  :    0.001513172   -0.016174470   -0.002312956
   2   O   :   -0.006229845    0.023182081    0.008105359
   3   C   :    0.045605338   -0.001887640    0.012179467
   4   O   :   -0.029860413    0.005512790   -0.014003910
   5   C   :   -0.009542846   -0.008161847    0.002840946
   6   H   :    0.005377890   -0.002759496   -0.003099339
   7   H   :    0.001168162    0.001375058    0.001304502
   8   H   :    0.005129318    0.003159940    0.000563347
   9   N   :    0.004859937    0.001893251    0.011259563
  10   C   :   -0.011394789    0.000258033    0.000251837
  11   H   :    0.005583094    0.004114248   -0.003577956
  12   H   :   -0.007806357   -0.006542333   -0.001633674
  13   H   :    0.002134152   -0.005067729   -0.000180554
  14   C   :   -0.003454195   -0.011250691   -0.009833039
  15   H   :   -0.000375595    0.006500852    0.011895976
  16   H   :   -0.005540714   -0.000886418   -0.002470309
  17   H   :    0.000134070   -0.005811096    0.001058970
  18   C   :    0.013476857   -0.032381635    0.013218023
  19   C   :   -0.001711757    0.003573620   -0.015570030
  20   C   :    0.011221882   -0.014871659   -0.005194567
  21   C   :   -0.005870636    0.011064373    0.005327531
  22   C   :   -0.004132873   -0.011902588    0.031184267
  23   C   :    0.003618563   -0.021387334   -0.006425807
  24   H   :    0.001557459    0.001163484   -0.001649719
  25   H   :   -0.007734195    0.006304148   -0.006385590
  26   H   :    0.003143567   -0.010091702   -0.001515957
  27   H   :    0.001479221   -0.003107009    0.004715533
  28   H   :   -0.012173802    0.079301539   -0.007365115
  29   C   :   -0.007253334    0.003723327   -0.017880120
  30   H   :   -0.000067124   -0.000063103    0.001891144
  31   H   :   -0.000247488   -0.003381911   -0.002331525
  32   O   :    0.005690003    0.011434447   -0.019447902
  33   C   :    0.027890074   -0.025385833    0.025459116
  34   O   :   -0.021616535    0.015080068   -0.018164351
  35   C   :   -0.009056496    0.006462799   -0.011049087
  36   H   :   -0.000677089    0.001690027    0.001643936
  37   H   :    0.010089757   -0.000367565    0.008578635
  38   H   :   -0.006264877   -0.002521555    0.008889582

Difference to translation invariance:
           :   -0.0013384444    0.0017904710    0.0002762284

Difference to rotation invariance:
           :    0.0009927331   -0.0012313956    0.0066378285

Norm of the cartesian gradient     ...    0.1439943207
RMS gradient                       ...    0.0134863038
MAX gradient                       ...    0.0793015394

-------
TIMINGS
-------

Total SCF gradient time            ...       77.975 sec

One electron gradient       ....       3.479 sec  (  4.5%)
RI-J Coulomb gradient       ....       6.390 sec  (  8.2%)
COSX gradient               ....      56.909 sec  ( 73.0%)
XC gradient                 ....       9.678 sec  ( 12.4%)

Maximum memory used throughout the entire SCFGRAD-calculation: 122.2 MB

                            ***************************************
                            *     ORCA property calculations      *
                            ***************************************

                                    ---------------------
                                    Active property flags
                                    ---------------------
   (+) Dipole Moment


------------------------------------------------------------------------------
                       ORCA ELECTRIC PROPERTIES CALCULATION
------------------------------------------------------------------------------

Dipole Moment Calculation                       ... on
Quadrupole Moment Calculation                   ... off
Polarizability Calculation                      ... off
GBWName                                         ... 4_14_orca.gbw
Electron density                                ... 4_14_orca.scfp
The origin for moment calculation is the CENTER OF MASS  = ( 0.489109,  0.283037 -0.133526)

-------------
DIPOLE MOMENT
-------------
                                X             Y             Z
Electronic contribution:     24.42624      16.16036     -20.85934
Nuclear contribution   :    -25.98780     -17.14617      22.02361
                        -----------------------------------------
Total Dipole Moment    :     -1.56156      -0.98582       1.16427
                        -----------------------------------------
Magnitude (a.u.)       :      2.18308
Magnitude (Debye)      :      5.54894



--------------------
Rotational spectrum 
--------------------
 
Rotational constants in cm-1:     0.013631     0.008345     0.006856 
Rotational constants in MHz :   408.660122   250.177447   205.528856 

 Dipole components along the rotational axes: 
x,y,z [a.u.] :     2.022633    -0.821444     0.001701 
x,y,z [Debye]:     5.141124    -2.087944     0.004322 

 

Timings for individual modules:

Sum of individual times         ...     1019.484 sec (=  16.991 min)
GTO integral calculation        ...        1.013 sec (=   0.017 min)   0.1 %
SCF iterations                  ...      940.446 sec (=  15.674 min)  92.2 %
SCF Gradient evaluation         ...       78.024 sec (=   1.300 min)   7.7 %
                             ****ORCA TERMINATED NORMALLY****
TOTAL RUN TIME: 0 days 0 hours 16 minutes 59 seconds 988 msec
