39
* (null), Energy   -1000.0000000
Ir    0.652801   -0.710296    0.408685   -0.003458    0.001782   -0.001257
C     0.042418   -2.740428    0.786483    0.000788    0.002347    0.004267
C     0.534305   -2.127549    1.984996   -0.001872    0.007380    0.002959
C     2.241361   -2.189153    0.451265    0.000021    0.005968    0.005261
C     1.082407   -2.764316   -0.174982    0.002017    0.001479    0.005618
C     1.921514   -1.817642    1.772105   -0.002216    0.009553    0.003652
N    -1.051497    0.048479   -0.543412   -0.003123   -0.002318   -0.003785
C    -2.338055    0.334517    0.117053   -0.003100   -0.004046   -0.003443
C    -2.787908    1.764100   -0.146740   -0.001628   -0.002694    0.001586
H    -3.674538    1.980911    0.447666   -0.001878   -0.003516    0.001539
H    -3.053564    1.929961   -1.191650   -0.000146    0.002330    0.002050
H    -2.016916    2.481678    0.130467   -0.000190   -0.004971    0.004094
C    -3.377788   -0.696000   -0.303409   -0.004044   -0.001248   -0.007786
H    -2.143879    0.228205    1.183351   -0.003971   -0.007993   -0.003693
H    -4.292091   -0.549607    0.269711   -0.004037   -0.002784   -0.007370
H    -3.635115   -0.606068   -1.359737   -0.003756    0.002912   -0.007497
H    -3.035395   -1.715131   -0.122561   -0.004815   -0.002166   -0.011607
C    -0.871915    0.232327   -1.790694   -0.002068    0.000547   -0.003138
C     0.494876    0.033328   -2.229797   -0.001761    0.002052   -0.003107
H    -1.664825    0.537057   -2.469611   -0.001797    0.001051   -0.003304
C     1.582298    0.433795   -1.453223   -0.000146   -0.000762   -0.004312
C     2.805740   -0.009210   -2.041811   -0.001555   -0.003600   -0.004642
S     0.960756   -0.847401   -3.609088   -0.004111    0.000347   -0.003121
C     2.622122   -0.705792   -3.191057   -0.003749   -0.003234   -0.004544
H     1.561918    1.327705   -0.771396    0.012434   -0.007102    0.002279
H     3.779528    0.239272   -1.645484   -0.001163   -0.004899   -0.004783
H     3.373715   -1.127283   -3.840954   -0.005063   -0.004750   -0.005077
H    -0.966142   -3.100062    0.638010    0.001750   -0.000395    0.004279
H    -0.017728   -1.980836    2.901889   -0.003471    0.009192    0.001715
H     2.589457   -1.357081    2.484628   -0.003751    0.013438    0.002596
O     1.436559    2.551337    0.436784    0.102462   -0.025393    0.043909
O     0.391155    0.935544    1.578163   -0.012045    0.008721   -0.012123
C     0.834381    2.146284    1.417169    0.049853   -0.006767    0.017108
C     0.509243    3.071795    2.563309   -0.044489   -0.005181   -0.011680
H    -0.273666    3.766458    2.253756   -0.902002   -0.821257    0.309968
H     1.381031    3.677054    2.805684   -0.456641    0.849736   -0.692036
H     0.172841    2.543850    3.451078    0.938933   -0.099552    0.307424
H     3.198821   -2.040351   -0.026386    0.000169    0.007102    0.005903
H     1.031147   -3.180263   -1.169520    0.004128   -0.001754    0.006855
39
* Frequency(6)  -50.4628
Ir    0.652408   -0.710094    0.408542   -0.003458    0.001782   -0.001257
C     0.042508   -2.740161    0.786968    0.000788    0.002347    0.004267
C     0.534092   -2.126710    1.985333   -0.001872    0.007380    0.002959
C     2.241364   -2.188475    0.451863    0.000021    0.005968    0.005261
C     1.082637   -2.764148   -0.174344    0.002017    0.001479    0.005618
C     1.921263   -1.816557    1.772520   -0.002216    0.009553    0.003652
N    -1.051851    0.048215   -0.543842   -0.003123   -0.002318   -0.003785
C    -2.338407    0.334057    0.116661   -0.003100   -0.004046   -0.003443
C    -2.788093    1.763794   -0.146560   -0.001628   -0.002694    0.001586
H    -3.674752    1.980511    0.447841   -0.001878   -0.003516    0.001539
H    -3.053580    1.930226   -1.191417   -0.000146    0.002330    0.002050
H    -2.016938    2.481113    0.130932   -0.000190   -0.004971    0.004094
C    -3.378247   -0.696141   -0.304294   -0.004044   -0.001248   -0.007786
H    -2.144330    0.227297    1.182931   -0.003971   -0.007993   -0.003693
H    -4.292550   -0.549923    0.268873   -0.004037   -0.002784   -0.007370
H    -3.635542   -0.605737   -1.360589   -0.003756    0.002912   -0.007497
H    -3.035943   -1.715377   -0.123880   -0.004815   -0.002166   -0.011607
C    -0.872150    0.232389   -1.791050   -0.002068    0.000547   -0.003138
C     0.494675    0.033561   -2.230151   -0.001761    0.002052   -0.003107
H    -1.665029    0.537177   -2.469986   -0.001797    0.001051   -0.003304
C     1.582282    0.433708   -1.453713   -0.000146   -0.000762   -0.004312
C     2.805564   -0.009619   -2.042338   -0.001555   -0.003600   -0.004642
S     0.960288   -0.847362   -3.609442   -0.004111    0.000347   -0.003121
C     2.621696   -0.706159   -3.191574   -0.003749   -0.003234   -0.004544
H     1.563331    1.326898   -0.771137    0.012434   -0.007102    0.002279
H     3.779396    0.238715   -1.646028   -0.001163   -0.004899   -0.004783
H     3.373139   -1.127822   -3.841531   -0.005063   -0.004750   -0.005077
H    -0.965944   -3.100106    0.638496    0.001750   -0.000395    0.004279
H    -0.018122   -1.979791    2.902084   -0.003471    0.009192    0.001715
H     2.589030   -1.355554    2.484923   -0.003751    0.013438    0.002596
O     1.448203    2.548451    0.441774    0.102462   -0.025393    0.043909
O     0.389787    0.936535    1.576785   -0.012045    0.008721   -0.012123
C     0.840046    2.145515    1.419113    0.049853   -0.006767    0.017108
C     0.504187    3.071206    2.561982   -0.044489   -0.005181   -0.011680
H    -0.376174    3.673126    2.288983   -0.902002   -0.821257    0.309968
H     1.329136    3.773622    2.727037   -0.456641    0.849736   -0.692036
H     0.279546    2.532537    3.486015    0.938933   -0.099552    0.307424
H     3.198840   -2.039544   -0.025715    0.000169    0.007102    0.005903
H     1.031616   -3.180462   -1.168741    0.004128   -0.001754    0.006855
39
* Frequency(6)  -50.4628
Ir    0.652057   -0.709913    0.408415   -0.003458    0.001782   -0.001257
C     0.042588   -2.739923    0.787401    0.000788    0.002347    0.004267
C     0.533902   -2.125962    1.985632   -0.001872    0.007380    0.002959
C     2.241366   -2.187870    0.452396    0.000021    0.005968    0.005261
C     1.082841   -2.763998   -0.173774    0.002017    0.001479    0.005618
C     1.921038   -1.815589    1.772890   -0.002216    0.009553    0.003652
N    -1.052168    0.047981   -0.544226   -0.003123   -0.002318   -0.003785
C    -2.338721    0.333647    0.116313   -0.003100   -0.004046   -0.003443
C    -2.788258    1.763521   -0.146399   -0.001628   -0.002694    0.001586
H    -3.674942    1.980155    0.447997   -0.001878   -0.003516    0.001539
H    -3.053595    1.930462   -1.191209   -0.000146    0.002330    0.002050
H    -2.016957    2.480610    0.131347   -0.000190   -0.004971    0.004094
C    -3.378657   -0.696268   -0.305083   -0.004044   -0.001248   -0.007786
H    -2.144733    0.226487    1.182557   -0.003971   -0.007993   -0.003693
H    -4.292959   -0.550205    0.268126   -0.004037   -0.002784   -0.007370
H    -3.635923   -0.605442   -1.361348   -0.003756    0.002912   -0.007497
H    -3.036430   -1.715597   -0.125056   -0.004815   -0.002166   -0.011607
C    -0.872359    0.232445   -1.791368   -0.002068    0.000547   -0.003138
C     0.494497    0.033769   -2.230465   -0.001761    0.002052   -0.003107
H    -1.665211    0.537283   -2.470321   -0.001797    0.001051   -0.003304
C     1.582267    0.433631   -1.454150   -0.000146   -0.000762   -0.004312
C     2.805406   -0.009984   -2.042809   -0.001555   -0.003600   -0.004642
S     0.959872   -0.847326   -3.609759   -0.004111    0.000347   -0.003121
C     2.621316   -0.706487   -3.192034   -0.003749   -0.003234   -0.004544
H     1.564591    1.326178   -0.770906    0.012434   -0.007102    0.002279
H     3.779278    0.238219   -1.646512   -0.001163   -0.004899   -0.004783
H     3.372626   -1.128304   -3.842046   -0.005063   -0.004750   -0.005077
H    -0.965766   -3.100147    0.638930    0.001750   -0.000395    0.004279
H    -0.018474   -1.978860    2.902258   -0.003471    0.009192    0.001715
H     2.588650   -1.354192    2.485186   -0.003751    0.013438    0.002596
O     1.458586    2.545878    0.446223    0.102462   -0.025393    0.043909
O     0.388566    0.937419    1.575556   -0.012045    0.008721   -0.012123
C     0.845098    2.144829    1.420846    0.049853   -0.006767    0.017108
C     0.499679    3.070681    2.560798   -0.044489   -0.005181   -0.011680
H    -0.467574    3.589908    2.320392   -0.902002   -0.821257    0.309968
H     1.282865    3.859725    2.656914   -0.456641    0.849736   -0.692036
H     0.374688    2.522449    3.517166    0.938933   -0.099552    0.307424
H     3.198857   -2.038824   -0.025117    0.000169    0.007102    0.005903
H     1.032034   -3.180640   -1.168046    0.004128   -0.001754    0.006855
39
* Frequency(6)  -50.4628
Ir    0.651787   -0.709774    0.408317   -0.003458    0.001782   -0.001257
C     0.042649   -2.739740    0.787734    0.000788    0.002347    0.004267
C     0.533756   -2.125386    1.985863   -0.001872    0.007380    0.002959
C     2.241367   -2.187404    0.452807    0.000021    0.005968    0.005261
C     1.082998   -2.763883   -0.173336    0.002017    0.001479    0.005618
C     1.920865   -1.814843    1.773175   -0.002216    0.009553    0.003652
N    -1.052412    0.047800   -0.544521   -0.003123   -0.002318   -0.003785
C    -2.338963    0.333332    0.116044   -0.003100   -0.004046   -0.003443
C    -2.788385    1.763311   -0.146275   -0.001628   -0.002694    0.001586
H    -3.675089    1.979881    0.448117   -0.001878   -0.003516    0.001539
H    -3.053606    1.930643   -1.191049   -0.000146    0.002330    0.002050
H    -2.016972    2.480222    0.131666   -0.000190   -0.004971    0.004094
C    -3.378973   -0.696365   -0.305691   -0.004044   -0.001248   -0.007786
H    -2.145043    0.225863    1.182269   -0.003971   -0.007993   -0.003693
H    -4.293274   -0.550423    0.267551   -0.004037   -0.002784   -0.007370
H    -3.636216   -0.605214   -1.361933   -0.003756    0.002912   -0.007497
H    -3.036806   -1.715766   -0.125961   -0.004815   -0.002166   -0.011607
C    -0.872521    0.232487   -1.791613   -0.002068    0.000547   -0.003138
C     0.494360    0.033929   -2.230708   -0.001761    0.002052   -0.003107
H    -1.665352    0.537365   -2.470579   -0.001797    0.001051   -0.003304
C     1.582256    0.433571   -1.454486   -0.000146   -0.000762   -0.004312
C     2.805285   -0.010264   -2.043171   -0.001555   -0.003600   -0.004642
S     0.959551   -0.847299   -3.610002   -0.004111    0.000347   -0.003121
C     2.621023   -0.706739   -3.192389   -0.003749   -0.003234   -0.004544
H     1.565561    1.325624   -0.770728    0.012434   -0.007102    0.002279
H     3.779187    0.237836   -1.646885   -0.001163   -0.004899   -0.004783
H     3.372231   -1.128674   -3.842442   -0.005063   -0.004750   -0.005077
H    -0.965630   -3.100177    0.639263    0.001750   -0.000395    0.004279
H    -0.018745   -1.978143    2.902392   -0.003471    0.009192    0.001715
H     2.588358   -1.353143    2.485388   -0.003751    0.013438    0.002596
O     1.466581    2.543897    0.449650    0.102462   -0.025393    0.043909
O     0.387626    0.938099    1.574610   -0.012045    0.008721   -0.012123
C     0.848988    2.144301    1.422181    0.049853   -0.006767    0.017108
C     0.496207    3.070277    2.559887   -0.044489   -0.005181   -0.011680
H    -0.537961    3.525823    2.344580   -0.902002   -0.821257    0.309968
H     1.247231    3.926033    2.602911   -0.456641    0.849736   -0.692036
H     0.447956    2.514681    3.541156    0.938933   -0.099552    0.307424
H     3.198871   -2.038270   -0.024657    0.000169    0.007102    0.005903
H     1.032356   -3.180777   -1.167512    0.004128   -0.001754    0.006855
39
* Frequency(6)  -50.4628
Ir    0.651627   -0.709692    0.408258   -0.003458    0.001782   -0.001257
C     0.042686   -2.739631    0.787931    0.000788    0.002347    0.004267
C     0.533670   -2.125045    1.986000   -0.001872    0.007380    0.002959
C     2.241368   -2.187128    0.453050    0.000021    0.005968    0.005261
C     1.083092   -2.763814   -0.173076    0.002017    0.001479    0.005618
C     1.920763   -1.814401    1.773344   -0.002216    0.009553    0.003652
N    -1.052556    0.047692   -0.544696   -0.003123   -0.002318   -0.003785
C    -2.339107    0.333144    0.115885   -0.003100   -0.004046   -0.003443
C    -2.788461    1.763186   -0.146202   -0.001628   -0.002694    0.001586
H    -3.675176    1.979718    0.448188   -0.001878   -0.003516    0.001539
H    -3.053613    1.930751   -1.190954   -0.000146    0.002330    0.002050
H    -2.016981    2.479992    0.131856   -0.000190   -0.004971    0.004094
C    -3.379160   -0.696423   -0.306051   -0.004044   -0.001248   -0.007786
H    -2.145226    0.225493    1.182098   -0.003971   -0.007993   -0.003693
H    -4.293461   -0.550552    0.267210   -0.004037   -0.002784   -0.007370
H    -3.636390   -0.605080   -1.362280   -0.003756    0.002912   -0.007497
H    -3.037029   -1.715866   -0.126499   -0.004815   -0.002166   -0.011607
C    -0.872616    0.232513   -1.791759   -0.002068    0.000547   -0.003138
C     0.494278    0.034024   -2.230851   -0.001761    0.002052   -0.003107
H    -1.665435    0.537414   -2.470732   -0.001797    0.001051   -0.003304
C     1.582249    0.433536   -1.454686   -0.000146   -0.000762   -0.004312
C     2.805213   -0.010431   -2.043386   -0.001555   -0.003600   -0.004642
S     0.959361   -0.847283   -3.610147   -0.004111    0.000347   -0.003121
C     2.620850   -0.706889   -3.192599   -0.003749   -0.003234   -0.004544
H     1.566137    1.325295   -0.770622    0.012434   -0.007102    0.002279
H     3.779133    0.237610   -1.647107   -0.001163   -0.004899   -0.004783
H     3.371997   -1.128894   -3.842677   -0.005063   -0.004750   -0.005077
H    -0.965549   -3.100196    0.639461    0.001750   -0.000395    0.004279
H    -0.018906   -1.977717    2.902471   -0.003471    0.009192    0.001715
H     2.588184   -1.352522    2.485509   -0.003751    0.013438    0.002596
O     1.471323    2.542722    0.451682    0.102462   -0.025393    0.043909
O     0.387069    0.938503    1.574049   -0.012045    0.008721   -0.012123
C     0.851295    2.143988    1.422973    0.049853   -0.006767    0.017108
C     0.494148    3.070037    2.559346   -0.044489   -0.005181   -0.011680
H    -0.579707    3.487813    2.358925   -0.902002   -0.821257    0.309968
H     1.226097    3.965361    2.570883   -0.456641    0.849736   -0.692036
H     0.491412    2.510073    3.555384    0.938933   -0.099552    0.307424
H     3.198878   -2.037942   -0.024383    0.000169    0.007102    0.005903
H     1.032547   -3.180858   -1.167194    0.004128   -0.001754    0.006855
39
* Frequency(6)  -50.4628
Ir    0.651594   -0.709675    0.408247   -0.003458    0.001782   -0.001257
C     0.042693   -2.739609    0.787972    0.000788    0.002347    0.004267
C     0.533652   -2.124975    1.986029   -0.001872    0.007380    0.002959
C     2.241369   -2.187071    0.453101    0.000021    0.005968    0.005261
C     1.083111   -2.763800   -0.173022    0.002017    0.001479    0.005618
C     1.920742   -1.814310    1.773378   -0.002216    0.009553    0.003652
N    -1.052586    0.047670   -0.544732   -0.003123   -0.002318   -0.003785
C    -2.339136    0.333106    0.115852   -0.003100   -0.004046   -0.003443
C    -2.788476    1.763161   -0.146187   -0.001628   -0.002694    0.001586
H    -3.675193    1.979685    0.448203   -0.001878   -0.003516    0.001539
H    -3.053615    1.930773   -1.190935   -0.000146    0.002330    0.002050
H    -2.016982    2.479944    0.131895   -0.000190   -0.004971    0.004094
C    -3.379198   -0.696435   -0.306125   -0.004044   -0.001248   -0.007786
H    -2.145264    0.225417    1.182062   -0.003971   -0.007993   -0.003693
H    -4.293499   -0.550578    0.267140   -0.004037   -0.002784   -0.007370
H    -3.636425   -0.605052   -1.362352   -0.003756    0.002912   -0.007497
H    -3.037075   -1.715887   -0.126609   -0.004815   -0.002166   -0.011607
C    -0.872636    0.232518   -1.791788   -0.002068    0.000547   -0.003138
C     0.494261    0.034043   -2.230881   -0.001761    0.002052   -0.003107
H    -1.665452    0.537424   -2.470763   -0.001797    0.001051   -0.003304
C     1.582247    0.433529   -1.454727   -0.000146   -0.000762   -0.004312
C     2.805198   -0.010465   -2.043430   -0.001555   -0.003600   -0.004642
S     0.959321   -0.847280   -3.610176   -0.004111    0.000347   -0.003121
C     2.620814   -0.706920   -3.192642   -0.003749   -0.003234   -0.004544
H     1.566255    1.325228   -0.770601    0.012434   -0.007102    0.002279
H     3.779122    0.237563   -1.647152   -0.001163   -0.004899   -0.004783
H     3.371949   -1.128939   -3.842725   -0.005063   -0.004750   -0.005077
H    -0.965532   -3.100199    0.639502    0.001750   -0.000395    0.004279
H    -0.018939   -1.977630    2.902488   -0.003471    0.009192    0.001715
H     2.588148   -1.352394    2.485533   -0.003751    0.013438    0.002596
O     1.472298    2.542480    0.452100    0.102462   -0.025393    0.043909
O     0.386954    0.938586    1.573934   -0.012045    0.008721   -0.012123
C     0.851770    2.143924    1.423136    0.049853   -0.006767    0.017108
C     0.493725    3.069988    2.559235   -0.044489   -0.005181   -0.011680
H    -0.588289    3.479999    2.361875   -0.902002   -0.821257    0.309968
H     1.221752    3.973445    2.564298   -0.456641    0.849736   -0.692036
H     0.500345    2.509126    3.558309    0.938933   -0.099552    0.307424
H     3.198880   -2.037874   -0.024327    0.000169    0.007102    0.005903
H     1.032586   -3.180875   -1.167129    0.004128   -0.001754    0.006855
39
* Frequency(6)  -50.4628
Ir    0.651692   -0.709725    0.408282   -0.003458    0.001782   -0.001257
C     0.042671   -2.739675    0.787851    0.000788    0.002347    0.004267
C     0.533705   -2.125183    1.985945   -0.001872    0.007380    0.002959
C     2.241368   -2.187240    0.452952    0.000021    0.005968    0.005261
C     1.083054   -2.763842   -0.173181    0.002017    0.001479    0.005618
C     1.920804   -1.814581    1.773275   -0.002216    0.009553    0.003652
N    -1.052498    0.047736   -0.544625   -0.003123   -0.002318   -0.003785
C    -2.339048    0.333220    0.115949   -0.003100   -0.004046   -0.003443
C    -2.788430    1.763237   -0.146232   -0.001628   -0.002694    0.001586
H    -3.675140    1.979784    0.448159   -0.001878   -0.003516    0.001539
H    -3.053610    1.930708   -1.190993   -0.000146    0.002330    0.002050
H    -2.016977    2.480085    0.131779   -0.000190   -0.004971    0.004094
C    -3.379084   -0.696400   -0.305905   -0.004044   -0.001248   -0.007786
H    -2.145152    0.225643    1.182167   -0.003971   -0.007993   -0.003693
H    -4.293385   -0.550499    0.267348   -0.004037   -0.002784   -0.007370
H    -3.636319   -0.605134   -1.362139   -0.003756    0.002912   -0.007497
H    -3.036939   -1.715825   -0.126281   -0.004815   -0.002166   -0.011607
C    -0.872578    0.232503   -1.791700   -0.002068    0.000547   -0.003138
C     0.494311    0.033985   -2.230793   -0.001761    0.002052   -0.003107
H    -1.665401    0.537394   -2.470670   -0.001797    0.001051   -0.003304
C     1.582252    0.433550   -1.454605   -0.000146   -0.000762   -0.004312
C     2.805242   -0.010364   -2.043299   -0.001555   -0.003600   -0.004642
S     0.959438   -0.847290   -3.610088   -0.004111    0.000347   -0.003121
C     2.620920   -0.706828   -3.192514   -0.003749   -0.003234   -0.004544
H     1.565903    1.325429   -0.770665    0.012434   -0.007102    0.002279
H     3.779155    0.237702   -1.647017   -0.001163   -0.004899   -0.004783
H     3.372092   -1.128805   -3.842582   -0.005063   -0.004750   -0.005077
H    -0.965582   -3.100188    0.639381    0.001750   -0.000395    0.004279
H    -0.018840   -1.977890    2.902439   -0.003471    0.009192    0.001715
H     2.588254   -1.352774    2.485460   -0.003751    0.013438    0.002596
O     1.469400    2.543198    0.450858    0.102462   -0.025393    0.043909
O     0.387295    0.938339    1.574277   -0.012045    0.008721   -0.012123
C     0.850360    2.144115    1.422652    0.049853   -0.006767    0.017108
C     0.494983    3.070134    2.559565   -0.044489   -0.005181   -0.011680
H    -0.562777    3.503228    2.353108   -0.902002   -0.821257    0.309968
H     1.234668    3.949412    2.583872   -0.456641    0.849736   -0.692036
H     0.473788    2.511942    3.549614    0.938933   -0.099552    0.307424
H     3.198875   -2.038075   -0.024494    0.000169    0.007102    0.005903
H     1.032470   -3.180825   -1.167323    0.004128   -0.001754    0.006855
39
* Frequency(6)  -50.4628
Ir    0.651910   -0.709837    0.408361   -0.003458    0.001782   -0.001257
C     0.042621   -2.739823    0.787582    0.000788    0.002347    0.004267
C     0.533823   -2.125648    1.985758   -0.001872    0.007380    0.002959
C     2.241367   -2.187616    0.452620    0.000021    0.005968    0.005261
C     1.082927   -2.763935   -0.173535    0.002017    0.001479    0.005618
C     1.920944   -1.815182    1.773045   -0.002216    0.009553    0.003652
N    -1.052301    0.047882   -0.544387   -0.003123   -0.002318   -0.003785
C    -2.338853    0.333475    0.116166   -0.003100   -0.004046   -0.003443
C    -2.788328    1.763407   -0.146332   -0.001628   -0.002694    0.001586
H    -3.675022    1.980006    0.448062   -0.001878   -0.003516    0.001539
H    -3.053601    1.930561   -1.191122   -0.000146    0.002330    0.002050
H    -2.016965    2.480398    0.131521   -0.000190   -0.004971    0.004094
C    -3.378829   -0.696321   -0.305414   -0.004044   -0.001248   -0.007786
H    -2.144902    0.226147    1.182400   -0.003971   -0.007993   -0.003693
H    -4.293131   -0.550324    0.267813   -0.004037   -0.002784   -0.007370
H    -3.636082   -0.605318   -1.361667   -0.003756    0.002912   -0.007497
H    -3.036635   -1.715689   -0.125549   -0.004815   -0.002166   -0.011607
C    -0.872447    0.232468   -1.791502   -0.002068    0.000547   -0.003138
C     0.494422    0.033856   -2.230597   -0.001761    0.002052   -0.003107
H    -1.665288    0.537328   -2.470462   -0.001797    0.001051   -0.003304
C     1.582261    0.433598   -1.454333   -0.000146   -0.000762   -0.004312
C     2.805340   -0.010137   -2.043006   -0.001555   -0.003600   -0.004642
S     0.959697   -0.847312   -3.609891   -0.004111    0.000347   -0.003121
C     2.621156   -0.706625   -3.192227   -0.003749   -0.003234   -0.004544
H     1.565120    1.325876   -0.770809    0.012434   -0.007102    0.002279
H     3.779228    0.238010   -1.646716   -0.001163   -0.004899   -0.004783
H     3.372411   -1.128506   -3.842262   -0.005063   -0.004750   -0.005077
H    -0.965692   -3.100163    0.639112    0.001750   -0.000395    0.004279
H    -0.018622   -1.978469    2.902331   -0.003471    0.009192    0.001715
H     2.588491   -1.353621    2.485296   -0.003751    0.013438    0.002596
O     1.462943    2.544798    0.448091    0.102462   -0.025393    0.043909
O     0.388054    0.937790    1.575041   -0.012045    0.008721   -0.012123
C     0.847218    2.144541    1.421574    0.049853   -0.006767    0.017108
C     0.497787    3.070461    2.560301   -0.044489   -0.005181   -0.011680
H    -0.505935    3.554981    2.333574   -0.902002   -0.821257    0.309968
H     1.263444    3.895864    2.627482   -0.456641    0.849736   -0.692036
H     0.414619    2.518215    3.530241    0.938933   -0.099552    0.307424
H     3.198865   -2.038522   -0.024866    0.000169    0.007102    0.005903
H     1.032209   -3.180715   -1.167755    0.004128   -0.001754    0.006855
39
* Frequency(6)  -50.4628
Ir    0.652225   -0.709999    0.408476   -0.003458    0.001782   -0.001257
C     0.042550   -2.740037    0.787194    0.000788    0.002347    0.004267
C     0.533993   -2.126319    1.985489   -0.001872    0.007380    0.002959
C     2.241365   -2.188159    0.452142    0.000021    0.005968    0.005261
C     1.082743   -2.764070   -0.174046    0.002017    0.001479    0.005618
C     1.921145   -1.816051    1.772713   -0.002216    0.009553    0.003652
N    -1.052017    0.048093   -0.544042   -0.003123   -0.002318   -0.003785
C    -2.338571    0.333843    0.116479   -0.003100   -0.004046   -0.003443
C    -2.788180    1.763652   -0.146476   -0.001628   -0.002694    0.001586
H    -3.674851    1.980325    0.447922   -0.001878   -0.003516    0.001539
H    -3.053588    1.930349   -1.191308   -0.000146    0.002330    0.002050
H    -2.016948    2.480850    0.131149   -0.000190   -0.004971    0.004094
C    -3.378461   -0.696207   -0.304706   -0.004044   -0.001248   -0.007786
H    -2.144541    0.226874    1.182735   -0.003971   -0.007993   -0.003693
H    -4.292764   -0.550071    0.268483   -0.004037   -0.002784   -0.007370
H    -3.635741   -0.605583   -1.360985   -0.003756    0.002912   -0.007497
H    -3.036197   -1.715492   -0.124494   -0.004815   -0.002166   -0.011607
C    -0.872259    0.232418   -1.791217   -0.002068    0.000547   -0.003138
C     0.494582    0.033669   -2.230315   -0.001761    0.002052   -0.003107
H    -1.665124    0.537232   -2.470161   -0.001797    0.001051   -0.003304
C     1.582274    0.433668   -1.453941   -0.000146   -0.000762   -0.004312
C     2.805481   -0.009809   -2.042584   -0.001555   -0.003600   -0.004642
S     0.960071   -0.847343   -3.609607   -0.004111    0.000347   -0.003121
C     2.621497   -0.706331   -3.191814   -0.003749   -0.003234   -0.004544
H     1.563989    1.326522   -0.771016    0.012434   -0.007102    0.002279
H     3.779334    0.238456   -1.646281   -0.001163   -0.004899   -0.004783
H     3.372871   -1.128074   -3.841800   -0.005063   -0.004750   -0.005077
H    -0.965851   -3.100127    0.638722    0.001750   -0.000395    0.004279
H    -0.018306   -1.979305    2.902175   -0.003471    0.009192    0.001715
H     2.588832   -1.354842    2.485060   -0.003751    0.013438    0.002596
O     1.453627    2.547107    0.444099    0.102462   -0.025393    0.043909
O     0.389149    0.936997    1.576143   -0.012045    0.008721   -0.012123
C     0.842685    2.145157    1.420018    0.049853   -0.006767    0.017108
C     0.501832    3.070932    2.561363   -0.044489   -0.005181   -0.011680
H    -0.423923    3.629651    2.305391   -0.902002   -0.821257    0.309968
H     1.304963    3.818604    2.690403   -0.456641    0.849736   -0.692036
H     0.329250    2.527267    3.502289    0.938933   -0.099552    0.307424
H     3.198849   -2.039168   -0.025403    0.000169    0.007102    0.005903
H     1.031834   -3.180555   -1.168378    0.004128   -0.001754    0.006855
39
* Frequency(6)  -50.4628
Ir    0.652601   -0.710193    0.408613   -0.003458    0.001782   -0.001257
C     0.042464   -2.740292    0.786729    0.000788    0.002347    0.004267
C     0.534197   -2.127124    1.985167   -0.001872    0.007380    0.002959
C     2.241362   -2.188809    0.451568    0.000021    0.005968    0.005261
C     1.082524   -2.764231   -0.174658    0.002017    0.001479    0.005618
C     1.921387   -1.817092    1.772315   -0.002216    0.009553    0.003652
N    -1.051676    0.048345   -0.543630   -0.003123   -0.002318   -0.003785
C    -2.338233    0.334284    0.116854   -0.003100   -0.004046   -0.003443
C    -2.788002    1.763945   -0.146649   -0.001628   -0.002694    0.001586
H    -3.674646    1.980708    0.447754   -0.001878   -0.003516    0.001539
H    -3.053572    1.930095   -1.191532   -0.000146    0.002330    0.002050
H    -2.016927    2.481392    0.130703   -0.000190   -0.004971    0.004094
C    -3.378021   -0.696071   -0.303858   -0.004044   -0.001248   -0.007786
H    -2.144108    0.227745    1.183138   -0.003971   -0.007993   -0.003693
H    -4.292324   -0.549767    0.269286   -0.004037   -0.002784   -0.007370
H    -3.635332   -0.605900   -1.360168   -0.003756    0.002912   -0.007497
H    -3.035673   -1.715256   -0.123229   -0.004815   -0.002166   -0.011607
C    -0.872034    0.232359   -1.790875   -0.002068    0.000547   -0.003138
C     0.494774    0.033446   -2.229976   -0.001761    0.002052   -0.003107
H    -1.664929    0.537118   -2.469801   -0.001797    0.001051   -0.003304
C     1.582290    0.433751   -1.453471   -0.000146   -0.000762   -0.004312
C     2.805651   -0.009417   -2.042078   -0.001555   -0.003600   -0.004642
S     0.960519   -0.847381   -3.609267   -0.004111    0.000347   -0.003121
C     2.621906   -0.705978   -3.191319   -0.003749   -0.003234   -0.004544
H     1.562634    1.327296   -0.771264    0.012434   -0.007102    0.002279
H     3.779461    0.238990   -1.645759   -0.001163   -0.004899   -0.004783
H     3.373423   -1.127556   -3.841247   -0.005063   -0.004750   -0.005077
H    -0.966042   -3.100084    0.638256    0.001750   -0.000395    0.004279
H    -0.017928   -1.980306    2.901988   -0.003471    0.009192    0.001715
H     2.589241   -1.356307    2.484777   -0.003751    0.013438    0.002596
O     1.442462    2.549874    0.439314    0.102462   -0.025393    0.043909
O     0.390461    0.936047    1.577464   -0.012045    0.008721   -0.012123
C     0.837253    2.145894    1.418154    0.049853   -0.006767    0.017108
C     0.506680    3.071496    2.562636   -0.044489   -0.005181   -0.011680
H    -0.325629    3.719147    2.271613   -0.902002   -0.821257    0.309968
H     1.354725    3.726005    2.765817   -0.456641    0.849736   -0.692036
H     0.226931    2.538115    3.468788    0.938933   -0.099552    0.307424
H     3.198831   -2.039942   -0.026046    0.000169    0.007102    0.005903
H     1.031384   -3.180364   -1.169125    0.004128   -0.001754    0.006855
39
* Frequency(6)  -50.4628
Ir    0.653000   -0.710399    0.408757   -0.003458    0.001782   -0.001257
C     0.042373   -2.740563    0.786237    0.000788    0.002347    0.004267
C     0.534413   -2.127974    1.984826   -0.001872    0.007380    0.002959
C     2.241360   -2.189497    0.450962    0.000021    0.005968    0.005261
C     1.082291   -2.764402   -0.175306    0.002017    0.001479    0.005618