
                                 *****************
                                 * O   R   C   A *
                                 *****************

                                            #,                                       
                                            ###                                      
                                            ####                                     
                                            #####                                    
                                            ######                                   
                                           ########,                                 
                                     ,,################,,,,,                         
                               ,,#################################,,                 
                          ,,##########################################,,             
                       ,#########################################, ''#####,          
                    ,#############################################,,   '####,        
                  ,##################################################,,,,####,       
                ,###########''''           ''''###############################       
              ,#####''   ,,,,##########,,,,          '''####'''          '####       
            ,##' ,,,,###########################,,,                        '##       
           ' ,,###''''                  '''############,,,                           
         ,,##''                                '''############,,,,        ,,,,,,###''
      ,#''                                            '''#######################'''  
     '                                                          ''''####''''         
             ,#######,   #######,   ,#######,      ##                                
            ,#'     '#,  ##    ##  ,#'     '#,    #''#        ######   ,####,        
            ##       ##  ##   ,#'  ##            #'  '#       #        #'  '#        
            ##       ##  #######   ##           ,######,      #####,   #    #        
            '#,     ,#'  ##    ##  '#,     ,#' ,#      #,         ##   #,  ,#        
             '#######'   ##     ##  '#######'  #'      '#     #####' # '####'        



                  #######################################################
                  #                        -***-                        #
                  #          Department of theory and spectroscopy      #
                  #    Directorship and core code : Frank Neese         #
                  #        Max Planck Institute fuer Kohlenforschung    #
                  #                Kaiser Wilhelm Platz 1               #
                  #                 D-45470 Muelheim/Ruhr               #
                  #                      Germany                        #
                  #                                                     #
                  #                  All rights reserved                #
                  #                        -***-                        #
                  #######################################################


                         Program Version 5.0.4 -  RELEASE  -


 With contributions from (in alphabetic order):
   Daniel Aravena         : Magnetic Suceptibility
   Michael Atanasov       : Ab Initio Ligand Field Theory (pilot matlab implementation)
   Alexander A. Auer      : GIAO ZORA, VPT2 properties, NMR spectrum
   Ute Becker             : Parallelization
   Giovanni Bistoni       : ED, misc. LED, open-shell LED, HFLD
   Martin Brehm           : Molecular dynamics
   Dmytro Bykov           : SCF Hessian
   Vijay G. Chilkuri      : MRCI spin determinant printing, contributions to CSF-ICE
   Dipayan Datta          : RHF DLPNO-CCSD density
   Achintya Kumar Dutta   : EOM-CC, STEOM-CC
   Dmitry Ganyushin       : Spin-Orbit,Spin-Spin,Magnetic field MRCI
   Miquel Garcia          : C-PCM and meta-GGA Hessian, CC/C-PCM, Gaussian charge scheme
   Yang Guo               : DLPNO-NEVPT2, F12-NEVPT2, CIM, IAO-localization
   Andreas Hansen         : Spin unrestricted coupled pair/coupled cluster methods
   Benjamin Helmich-Paris : MC-RPA, TRAH-SCF, COSX integrals
   Lee Huntington         : MR-EOM, pCC
   Robert Izsak           : Overlap fitted RIJCOSX, COSX-SCS-MP3, EOM
   Marcus Kettner         : VPT2
   Christian Kollmar      : KDIIS, OOCD, Brueckner-CCSD(T), CCSD density, CASPT2, CASPT2-K
   Simone Kossmann        : Meta GGA functionals, TD-DFT gradient, OOMP2, MP2 Hessian
   Martin Krupicka        : Initial AUTO-CI
   Lucas Lang             : DCDCAS
   Marvin Lechner         : AUTO-CI (C++ implementation), FIC-MRCC
   Dagmar Lenk            : GEPOL surface, SMD
   Dimitrios Liakos       : Extrapolation schemes; Compound Job, initial MDCI parallelization
   Dimitrios Manganas     : Further ROCIS development; embedding schemes
   Dimitrios Pantazis     : SARC Basis sets
   Anastasios Papadopoulos: AUTO-CI, single reference methods and gradients
   Taras Petrenko         : DFT Hessian,TD-DFT gradient, ASA, ECA, R-Raman, ABS, FL, XAS/XES, NRVS
   Peter Pinski           : DLPNO-MP2, DLPNO-MP2 Gradient
   Christoph Reimann      : Effective Core Potentials
   Marius Retegan         : Local ZFS, SOC
   Christoph Riplinger    : Optimizer, TS searches, QM/MM, DLPNO-CCSD(T), (RO)-DLPNO pert. Triples
   Tobias Risthaus        : Range-separated hybrids, TD-DFT gradient, RPA, STAB
   Michael Roemelt        : Original ROCIS implementation
   Masaaki Saitow         : Open-shell DLPNO-CCSD energy and density
   Barbara Sandhoefer     : DKH picture change effects
   Avijit Sen             : IP-ROCIS
   Kantharuban Sivalingam : CASSCF convergence, NEVPT2, FIC-MRCI
   Bernardo de Souza      : ESD, SOC TD-DFT
   Georgi Stoychev        : AutoAux, RI-MP2 NMR, DLPNO-MP2 response
   Willem Van den Heuvel  : Paramagnetic NMR
   Boris Wezisla          : Elementary symmetry handling
   Frank Wennmohs         : Technical directorship


 We gratefully acknowledge several colleagues who have allowed us to
 interface, adapt or use parts of their codes:
   Stefan Grimme, W. Hujo, H. Kruse, P. Pracht,  : VdW corrections, initial TS optimization,
                  C. Bannwarth, S. Ehlert          DFT functionals, gCP, sTDA/sTD-DF
   Ed Valeev, F. Pavosevic, A. Kumar             : LibInt (2-el integral package), F12 methods
   Garnet Chan, S. Sharma, J. Yang, R. Olivares  : DMRG
   Ulf Ekstrom                                   : XCFun DFT Library
   Mihaly Kallay                                 : mrcc  (arbitrary order and MRCC methods)
   Jiri Pittner, Ondrej Demel                    : Mk-CCSD
   Frank Weinhold                                : gennbo (NPA and NBO analysis)
   Christopher J. Cramer and Donald G. Truhlar   : smd solvation model
   Lars Goerigk                                  : TD-DFT with DH, B97 family of functionals
   V. Asgeirsson, H. Jonsson                     : NEB implementation
   FAccTs GmbH                                   : IRC, NEB, NEB-TS, DLPNO-Multilevel, CI-OPT
                                                   MM, QMMM, 2- and 3-layer-ONIOM, Crystal-QMMM,
                                                   LR-CPCM, SF, NACMEs, symmetry and pop. for TD-DFT,
                                                   nearIR, NL-DFT gradient (VV10), updates on ESD,
                                                   ML-optimized integration grids
   S Lehtola, MJT Oliveira, MAL Marques          : LibXC Library
   Liviu Ungur et al                             : ANISO software


 Your calculation uses the libint2 library for the computation of 2-el integrals
 For citations please refer to: http://libint.valeyev.net

 Your ORCA version has been built with support for libXC version: 5.1.0
 For citations please refer to: https://tddft.org/programs/libxc/

 This ORCA versions uses:
   CBLAS   interface :  Fast vector & matrix operations
   LAPACKE interface :  Fast linear algebra routines
   SCALAPACK package :  Parallel linear algebra routines
   Shared memory     :  Shared parallel matrices
   BLAS/LAPACK       :  OpenBLAS 0.3.15  USE64BITINT DYNAMIC_ARCH NO_AFFINITY SkylakeX SINGLE_THREADED
        Core in use  :  SkylakeX
   Copyright (c) 2011-2014, The OpenBLAS Project




***************************************
The coordinates will be read from file: IEIP_ts_guess.xyz
***************************************




################################################################################


                                COMPOUND JOB MainJOB 
Basename: reaction-4-ieip_optts_Compound_0

################################################################################

================================================================================
                                       INPUT FILE
================================================================================
NAME = reaction-4-ieip_optts_Compound_0.inp
|  1> %pal nprocs 8 end 
|  2>   
|  3>  *xyzfile 1 1 IEIP_ts_guess.xyz 
|  4>   
|  5> 
|  6>                          ****END OF INPUT****
================================================================================


***************************************
The coordinates will be read from file: IEIP_ts_guess.xyz
***************************************


================================================================================

cite the ECPs for Ir [Def2-ECP] as follows:
Ce-Yb(ecp-28): M. Dolg, H. Stoll, H.Preuss, J. Chem. Phys., 1989, 90, 1730-1734.
Y-Cd(ecp-28), Hf-Hg(ecp-46): D. Andrae,U. Haeussermann, M. Dolg, H. Stoll, H. Preuss, Theor. Chim. Acta, 1990, 77, 123-141.
In-Sb(ecp-28), Tl-Bi(ecp-46): B. Metz, H. Stoll, M. Dolg, J. Chem. Phys., 2000, 113, 2563-2569.
Te-Xe(ecp-28), Po-Rn(ecp-46): K. A. Peterson, D. Figgen, E. Goll, H. Stoll, M. Dolg, J. Chem. Phys., 2003, 119, 11113-11123.
Rb(ecp-28), Cs(ecp-46): T. Leininger, A. Nicklass, W. Kuechle, H. Stoll, M. Dolg, A. Bergner, Chem. Phys. Lett., 1996, 255, 274-280.
Sr(ecp-28), Ba(ecp-46): M. Kaupp, P. V. Schleyer, H. Stoll and H. Preuss, J. Chem. Phys., 1991, 94, 1360-1366.
La(ecp-46): M. Dolg, H. Stoll, A. Savin, H. Preuss, Theor. Chim. Acta, 1989, 75, 173-194.
Lu(ecp-28): X. Cao, M. Dolg, J. Chem. Phys., 2001, 115, 7348-7355.

ECP parameters for Ir [Def2-ECP] have been obtained from:
TURBOMOLE (7.0.2)

----- Orbital basis set information -----
Your calculation utilizes the basis: def2-SVP
   F. Weigend and R. Ahlrichs, Phys. Chem. Chem. Phys. 7, 3297 (2005).



################################################################################


                                COMPOUND JOB  1 
Basename: reaction-4-ieip_optts_Compound_1
NOTE: please remember that MaxCore and PAL settings will be ignored.

################################################################################

================================================================================
                                       INPUT FILE
================================================================================
NAME = reaction-4-ieip_optts_Compound_1.inp
|  1>   
|  2>    
|  3>   ! PBEh-3c OptTS Freq pal8 
|  4>    
|  5>   %geom 
|  6>    calc_hess true 
|  7>    recalc_hess 20 
|  8>    maxiter 600 
|  9>   end  
| 10>    
| 11> 
| 12>                          ****END OF INPUT****
================================================================================
Your calculation utilizes the geometrical counterpoise correction gCP
Please cite in your paper:
H.Kruse, S. Grimme J.Chem.Phys., 136, (2012), 154101 
   

Your calculation utilizes the atom-pairwise dispersion correction
with the Becke-Johnson damping scheme (D3BJ)
Cite in your paper:
S.Grimme, S.Ehrlich, L.Goerigk, J Comput Chem, (2011), 32, 1456–1465 
S.Grimme, J.Antony, S.Ehrlich and H.Krieg, J.Chem.Phys., 132, (2010), 154104 
   

Your calculation employs the composite approach PBEh-3c.
Please cite in your paper:
S. Grimme, J. G. Brandenburg, C. Bannwarth, A. Hansen J.Chem.Phys., 143, (2015), 054107 
   

================================================================================

cite the ECPs for Ir [Def2-ECP] as follows:
Ce-Yb(ecp-28): M. Dolg, H. Stoll, H.Preuss, J. Chem. Phys., 1989, 90, 1730-1734.
Y-Cd(ecp-28), Hf-Hg(ecp-46): D. Andrae,U. Haeussermann, M. Dolg, H. Stoll, H. Preuss, Theor. Chim. Acta, 1990, 77, 123-141.
In-Sb(ecp-28), Tl-Bi(ecp-46): B. Metz, H. Stoll, M. Dolg, J. Chem. Phys., 2000, 113, 2563-2569.
Te-Xe(ecp-28), Po-Rn(ecp-46): K. A. Peterson, D. Figgen, E. Goll, H. Stoll, M. Dolg, J. Chem. Phys., 2003, 119, 11113-11123.
Rb(ecp-28), Cs(ecp-46): T. Leininger, A. Nicklass, W. Kuechle, H. Stoll, M. Dolg, A. Bergner, Chem. Phys. Lett., 1996, 255, 274-280.
Sr(ecp-28), Ba(ecp-46): M. Kaupp, P. V. Schleyer, H. Stoll and H. Preuss, J. Chem. Phys., 1991, 94, 1360-1366.
La(ecp-46): M. Dolg, H. Stoll, A. Savin, H. Preuss, Theor. Chim. Acta, 1989, 75, 173-194.
Lu(ecp-28): X. Cao, M. Dolg, J. Chem. Phys., 2001, 115, 7348-7355.

ECP parameters for Ir [Def2-ECP] have been obtained from:
TURBOMOLE (7.0.2)

----- Orbital basis set information -----
Your calculation utilizes the basis: def2-mSVP

----- AuxJ basis set information -----
Your calculation utilizes the auxiliary basis: def2/J
   F. Weigend, Phys. Chem. Chem. Phys. 8, 1057 (2006).

================================================================================
                                        WARNINGS
                       Please study these warnings very carefully!
================================================================================


WARNING: Geometry Optimization
  ===> : Switching off AutoStart
         For restart on a previous wavefunction, please use MOREAD

WARNING: No Hueckel Guess possible with ECP basis!
  ===> : Switching to HCORE guess!

INFO   : the flag for use of the SHARK integral package has been found!


                       *****************************
                       * Geometry Optimization Run *
                       *****************************

Geometry optimization settings:
Update method            Update   .... Bofill
Choice of coordinates    CoordSys .... Z-matrix Internals
Initial Hessian          InHess   .... Almoef's Model

Convergence Tolerances:
Energy Change            TolE     ....  5.0000e-06 Eh
Max. Gradient            TolMAXG  ....  3.0000e-04 Eh/bohr
RMS Gradient             TolRMSG  ....  1.0000e-04 Eh/bohr
Max. Displacement        TolMAXD  ....  4.0000e-03 bohr
RMS Displacement         TolRMSD  ....  2.0000e-03 bohr
Strict Convergence                ....  False
------------------------------------------------------------------------------
                        ORCA OPTIMIZATION COORDINATE SETUP
------------------------------------------------------------------------------

The optimization will be done in new redundant internal coordinates
Making redundant internal coordinates   ...  (new redundants) done
Following TS mode number                ...     0
Evaluating the initial hessian          ...  (Is done on the fly) done
Evaluating the coordinates              ...  done
Calculating the B-matrix                .... done
Calculating the G-matrix                .... done
Diagonalizing the G-matrix              .... done
Small eigenvalue found = 3.111e-03
Small eigenvalue found = 6.802e-03
Small eigenvalue found = 1.428e-02
Small eigenvalue found = 2.211e-02
Small eigenvalue found = 2.559e-02
The first mode is                       ....  225
The number of degrees of freedom        ....  111

    -----------------------------------------------------------------
                    Redundant Internal Coordinates


    -----------------------------------------------------------------
         Definition                    Initial Value    d2E/dq (diagonal element)
    -----------------------------------------------------------------
      1. B(C   1,Ir  0)                  2.1276         0.000000   
      2. B(C   2,C   1)                  1.4277         0.000000   
      3. B(C   2,Ir  0)                  2.1443         0.000000   
      4. B(C   3,Ir  0)                  2.1541         0.000000   
      5. B(C   4,C   1)                  1.4299         0.000000   
      6. B(C   4,C   3)                  1.4293         0.000000   
      7. B(C   4,Ir  0)                  2.1427         0.000000   
      8. B(C   5,C   3)                  1.4174         0.000000   
      9. B(C   5,Ir  0)                  2.1732         0.000000   
     10. B(C   5,C   2)                  1.4311         0.000000   
     11. B(N   6,Ir  0)                  2.0936         0.000000   
     12. B(C   7,N   6)                  1.4780         0.000000   
     13. B(C   8,C   7)                  1.5238         0.000000   
     14. B(H   9,C   8)                  1.0897         0.000000   
     15. B(H  10,C   8)                  1.0911         0.000000   
     16. B(H  11,C   8)                  1.0858         0.000000   
     17. B(C  12,C   7)                  1.5250         0.000000   
     18. B(H  13,C   7)                  1.0898         0.000000   
     19. B(H  14,C  12)                  1.0878         0.000000   
     20. B(H  15,C  12)                  1.0908         0.000000   
     21. B(H  16,C  12)                  1.0905         0.000000   
     22. B(C  17,N   6)                  1.2805         0.000000   
     23. B(C  18,C  17)                  1.4235         0.000000   
     24. B(H  19,C  17)                  1.0856         0.000000   
     25. B(C  20,C  18)                  1.3859         0.000000   
     26. B(C  21,C  20)                  1.4307         0.000000   
     27. B(S  22,C  18)                  1.7126         0.000000   
     28. B(C  23,S  22)                  1.6994         0.000000   
     29. B(C  23,C  21)                  1.3690         0.000000   
     30. B(H  24,C  20)                  1.2533         0.000000   
     31. B(H  25,C  21)                  1.0805         0.000000   
     32. B(H  26,C  23)                  1.0819         0.000000   
     33. B(H  27,C   1)                  1.0811         0.000000   
     34. B(H  28,C   2)                  1.0818         0.000000   
     35. B(H  29,C   5)                  1.0796         0.000000   
     36. B(O  31,Ir  0)                  2.0651         0.000000   
     37. B(C  32,O  31)                  1.2791         0.000000   
     38. B(C  32,O  30)                  1.2376         0.000000   
     39. B(C  33,C  32)                  1.4968         0.000000   
     40. B(H  34,C  33)                  1.0889         0.000000   
     41. B(H  35,C  33)                  1.0902         0.000000   
     42. B(H  36,C  33)                  1.0853         0.000000   
     43. B(H  37,C   3)                  1.0806         0.000000   
     44. B(H  38,C   4)                  1.0777         0.000000   
     45. A(C   2,Ir  0,N   6)          127.4991         0.000000   
     46. A(C   1,Ir  0,C   2)           39.0462         0.000000   
     47. A(C   3,Ir  0,C   5)           38.2369         0.000000   
     48. A(C   4,Ir  0,O  31)          161.5410         0.000000   
     49. A(C   1,Ir  0,C   4)           39.1235         0.000000   
     50. A(C   2,Ir  0,C   4)           65.5453         0.000000   
     51. A(C   2,Ir  0,O  31)           96.0048         0.000000   
     52. A(N   6,Ir  0,O  31)           82.3926         0.000000   
     53. A(C   2,Ir  0,C   5)           38.7093         0.000000   
     54. A(C   2,Ir  0,C   3)           64.4759         0.000000   
     55. A(C   1,Ir  0,O  31)          124.9941         0.000000   
     56. A(C   1,Ir  0,C   5)           65.0582         0.000000   
     57. A(C   4,Ir  0,N   6)          107.8957         0.000000   
     58. A(C   5,Ir  0,O  31)          101.1267         0.000000   
     59. A(C   3,Ir  0,O  31)          135.0240         0.000000   
     60. A(C   1,Ir  0,N   6)          101.4779         0.000000   
     61. A(C   3,Ir  0,N   6)          142.1465         0.000000   
     62. A(C   5,Ir  0,N   6)          165.7040         0.000000   
     63. A(C   1,Ir  0,C   3)           64.7231         0.000000   
     64. A(C   4,Ir  0,C   5)           65.2265         0.000000   
     65. A(C   3,Ir  0,C   4)           38.8563         0.000000   
     66. A(C   2,C   1,H  27)          124.9315         0.000000   
     67. A(C   4,C   1,H  27)          126.4664         0.000000   
     68. A(Ir  0,C   1,C   4)           71.0097         0.000000   
     69. A(C   2,C   1,C   4)          108.6009         0.000000   
     70. A(Ir  0,C   1,H  27)          124.1036         0.000000   
     71. A(Ir  0,C   1,C   2)           71.1088         0.000000   
     72. A(Ir  0,C   2,C   1)           69.8450         0.000000   
     73. A(C   1,C   2,C   5)          108.0077         0.000000   
     74. A(Ir  0,C   2,C   5)           71.7351         0.000000   
     75. A(C   5,C   2,H  28)          125.9570         0.000000   
     76. A(C   1,C   2,H  28)          126.0146         0.000000   
     77. A(Ir  0,C   2,H  28)          125.3163         0.000000   
     78. A(C   5,C   3,H  37)          124.8411         0.000000   
     79. A(Ir  0,C   3,C   4)           70.1438         0.000000   
     80. A(C   4,C   3,H  37)          125.4394         0.000000   
     81. A(C   4,C   3,C   5)          109.6096         0.000000   
     82. A(Ir  0,C   3,H  37)          121.6501         0.000000   
     83. A(Ir  0,C   3,C   5)           71.6109         0.000000   
     84. A(C   1,C   4,C   3)          106.5683         0.000000   
     85. A(Ir  0,C   4,C   3)           71.0000         0.000000   
     86. A(C   3,C   4,H  38)          126.5709         0.000000   
     87. A(C   1,C   4,H  38)          126.8493         0.000000   
     88. A(Ir  0,C   4,H  38)          125.0081         0.000000   
     89. A(Ir  0,C   4,C   1)           69.8668         0.000000   
     90. A(Ir  0,C   5,C   2)           69.5556         0.000000   
     91. A(C   2,C   5,C   3)          107.2112         0.000000   
     92. A(Ir  0,C   5,C   3)           70.1521         0.000000   
     93. A(C   2,C   5,H  29)          126.1848         0.000000   
     94. A(C   3,C   5,H  29)          126.5987         0.000000   
     95. A(Ir  0,C   5,H  29)          126.1226         0.000000   
     96. A(Ir  0,N   6,C   7)          122.8707         0.000000   
     97. A(C   7,N   6,C  17)          118.9275         0.000000   
     98. A(Ir  0,N   6,C  17)          118.1916         0.000000   
     99. A(C  12,C   7,H  13)          108.3601         0.000000   
    100. A(C   8,C   7,H  13)          108.4384         0.000000   
    101. A(N   6,C   7,H  13)          105.3570         0.000000   
    102. A(C   8,C   7,C  12)          110.9252         0.000000   
    103. A(N   6,C   7,C  12)          111.5812         0.000000   
    104. A(N   6,C   7,C   8)          111.9175         0.000000   
    105. A(H  10,C   8,H  11)          108.7145         0.000000   
    106. A(H   9,C   8,H  11)          107.8884         0.000000   
    107. A(C   7,C   8,H  11)          112.3670         0.000000   
    108. A(H   9,C   8,H  10)          107.6139         0.000000   
    109. A(C   7,C   8,H  10)          111.2009         0.000000   
    110. A(C   7,C   8,H   9)          108.8919         0.000000   
    111. A(H  15,C  12,H  16)          108.4638         0.000000   
    112. A(H  14,C  12,H  16)          107.9746         0.000000   
    113. A(C   7,C  12,H  16)          112.3197         0.000000   
    114. A(H  14,C  12,H  15)          106.4170         0.000000   
    115. A(C   7,C  12,H  15)          112.3572         0.000000   
    116. A(C   7,C  12,H  14)          109.0520         0.000000   
    117. A(C  18,C  17,H  19)          119.2253         0.000000   
    118. A(N   6,C  17,H  19)          120.5897         0.000000   
    119. A(N   6,C  17,C  18)          120.1636         0.000000   
    120. A(C  20,C  18,S  22)          114.1294         0.000000   
    121. A(C  17,C  18,S  22)          121.3812         0.000000   
    122. A(C  17,C  18,C  20)          124.2403         0.000000   
    123. A(C  21,C  20,H  24)          118.1756         0.000000   
    124. A(C  18,C  20,H  24)          122.8778         0.000000   
    125. A(C  18,C  20,C  21)          108.8564         0.000000   
    126. A(C  20,C  21,C  23)          113.6933         0.000000   
    127. A(C  23,C  21,H  25)          120.6941         0.000000   
    128. A(C  20,C  21,H  25)          125.4634         0.000000   
    129. A(C  18,S  22,C  23)           90.8151         0.000000   
    130. A(C  21,C  23,S  22)          112.4680         0.000000   
    131. A(S  22,C  23,H  26)          119.1960         0.000000   
    132. A(C  21,C  23,H  26)          128.3207         0.000000   
    133. A(Ir  0,O  31,C  32)          114.3348         0.000000   
    134. A(O  31,C  32,C  33)          118.9256         0.000000   
    135. A(O  30,C  32,C  33)          118.2099         0.000000   
    136. A(O  30,C  32,O  31)          122.8641         0.000000   
    137. A(H  35,C  33,H  36)          109.0618         0.000000   
    138. A(H  34,C  33,H  36)          109.7993         0.000000   
    139. A(C  32,C  33,H  36)          114.1099         0.000000   
    140. A(H  34,C  33,H  35)          106.6499         0.000000   
    141. A(C  32,C  33,H  35)          109.0120         0.000000   
    142. A(C  32,C  33,H  34)          107.9406         0.000000   
    143. D(C   4,C   1,Ir  0,N   6)    104.3166         0.000000   
    144. D(C   4,C   1,Ir  0,C   3)    -38.3504         0.000000   
    145. D(C   4,C   1,Ir  0,O  31)   -166.9870         0.000000   
    146. D(C   4,C   1,Ir  0,C   5)    -80.7585         0.000000   
    147. D(H  27,C   1,Ir  0,C   5)    157.5005         0.000000   
    148. D(H  27,C   1,Ir  0,C   2)    119.9450         0.000000   
    149. D(C   2,C   1,Ir  0,C   5)     37.5555         0.000000   
    150. D(C   4,C   1,Ir  0,C   2)   -118.3141         0.000000   
    151. D(C   2,C   1,Ir  0,C   4)    118.3141         0.000000   
    152. D(H  27,C   1,Ir  0,O  31)     71.2720         0.000000   
    153. D(H  27,C   1,Ir  0,C   3)   -160.0913         0.000000   
    154. D(C   2,C   1,Ir  0,C   3)     79.9637         0.000000   
    155. D(H  27,C   1,Ir  0,C   4)   -121.7409         0.000000   
    156. D(C   2,C   1,Ir  0,O  31)    -48.6730         0.000000   
    157. D(C   2,C   1,Ir  0,N   6)   -137.3694         0.000000   
    158. D(H  27,C   1,Ir  0,N   6)    -17.4244         0.000000   
    159. D(H  28,C   2,Ir  0,C   5)    121.5984         0.000000   
    160. D(C   5,C   2,Ir  0,C   4)     80.2918         0.000000   
    161. D(H  28,C   2,Ir  0,C   4)   -158.1098         0.000000   
    162. D(C   5,C   2,Ir  0,O  31)   -100.3135         0.000000   
    163. D(H  28,C   2,Ir  0,C   3)    158.8469         0.000000   
    164. D(H  28,C   2,Ir  0,C   1)   -120.5023         0.000000   
    165. D(C   5,C   2,Ir  0,N   6)    174.6817         0.000000   
    166. D(C   1,C   2,Ir  0,C   5)   -117.8993         0.000000   
    167. D(C   1,C   2,Ir  0,C   3)    -80.6509         0.000000   
    168. D(H  28,C   2,C   1,H  27)      0.7005         0.000000   
    169. D(C   5,C   2,C   1,H  27)    179.1216         0.000000   
    170. D(H  28,C   2,C   1,Ir  0)    119.6368         0.000000   
    171. D(C   1,C   2,Ir  0,C   4)    -37.6075         0.000000   
    172. D(Ir  0,C   2,C   1,H  27)   -118.9363         0.000000   
    173. D(H  28,C   2,Ir  0,N   6)    -63.7198         0.000000   
    174. D(Ir  0,C   2,C   1,C   4)     61.4412         0.000000   
    175. D(H  28,C   2,Ir  0,O  31)     21.2850         0.000000   
    176. D(C   5,C   2,C   1,Ir  0)    -61.9422         0.000000   
    177. D(C   5,C   2,C   1,C   4)     -0.5010         0.000000   
    178. D(C   1,C   2,Ir  0,N   6)     56.7825         0.000000   
    179. D(C   5,C   2,Ir  0,C   1)    117.8993         0.000000   
    180. D(H  28,C   2,C   1,C   4)   -178.9220         0.000000   
    181. D(C   1,C   2,Ir  0,O  31)    141.7873         0.000000   
    182. D(C   5,C   2,Ir  0,C   3)     37.2484         0.000000   
    183. D(H  37,C   3,Ir  0,O  31)    -86.1503         0.000000   
    184. D(H  37,C   3,Ir  0,N   6)     83.1358         0.000000   
    185. D(H  37,C   3,Ir  0,C   2)   -157.8572         0.000000   
    186. D(H  37,C   3,Ir  0,C   5)   -120.1531         0.000000   
    187. D(C   5,C   3,Ir  0,N   6)   -156.7111         0.000000   
    188. D(C   5,C   3,Ir  0,C   4)   -119.7410         0.000000   
    189. D(H  37,C   3,Ir  0,C   4)    120.1059         0.000000   
    190. D(C   5,C   3,Ir  0,C   2)    -37.7041         0.000000   
    191. D(C   5,C   3,Ir  0,O  31)     34.0028         0.000000   
    192. D(H  37,C   3,Ir  0,C   1)    158.7187         0.000000   
    193. D(C   5,C   3,Ir  0,C   1)    -81.1282         0.000000   
    194. D(C   4,C   3,Ir  0,O  31)    153.7438         0.000000   
    195. D(C   4,C   3,Ir  0,N   6)    -36.9701         0.000000   
    196. D(C   4,C   3,Ir  0,C   2)     82.0369         0.000000   
    197. D(C   4,C   3,Ir  0,C   1)     38.6128         0.000000   
    198. D(C   4,C   3,Ir  0,C   5)    119.7410         0.000000   
    199. D(C   3,C   4,Ir  0,C   2)    -79.0459         0.000000   
    200. D(C   3,C   4,Ir  0,C   1)   -116.5802         0.000000   
    201. D(C   1,C   4,Ir  0,O  31)     35.6328         0.000000   
    202. D(C   1,C   4,Ir  0,N   6)    -86.2380         0.000000   
    203. D(C   1,C   4,Ir  0,C   5)     80.2912         0.000000   
    204. D(H  38,C   4,C   3,H  37)      4.6779         0.000000   
    205. D(C   1,C   4,Ir  0,C   3)    116.5802         0.000000   
    206. D(H  38,C   4,C   3,Ir  0)    120.0026         0.000000   
    207. D(C   1,C   4,C   3,H  37)   -176.4925         0.000000   
    208. D(C   1,C   4,C   3,C   5)     -0.1619         0.000000   
    209. D(C   1,C   4,C   3,Ir  0)    -61.1677         0.000000   
    210. D(Ir  0,C   4,C   3,H  37)   -115.3248         0.000000   
    211. D(Ir  0,C   4,C   3,C   5)     61.0058         0.000000   
    212. D(H  38,C   4,C   1,H  27)     -0.3828         0.000000   
    213. D(H  38,C   4,C   1,Ir  0)   -119.2639         0.000000   
    214. D(C   3,C   4,C   1,H  27)   -179.2082         0.000000   
    215. D(C   3,C   4,C   1,C   2)      0.4069         0.000000   
    216. D(C   3,C   4,C   1,Ir  0)     61.9107         0.000000   
    217. D(Ir  0,C   4,C   1,H  27)    118.8810         0.000000   
    218. D(H  38,C   4,Ir  0,O  31)    157.1707         0.000000   
    219. D(H  38,C   4,Ir  0,N   6)     35.2999         0.000000   
    220. D(H  38,C   4,C   1,C   2)    179.2324         0.000000   
    221. D(H  38,C   4,Ir  0,C   5)   -158.1709         0.000000   
    222. D(H  38,C   4,Ir  0,C   3)   -121.8820         0.000000   
    223. D(H  38,C   4,Ir  0,C   2)    159.0721         0.000000   
    224. D(Ir  0,C   4,C   1,C   2)    -61.5038         0.000000   
    225. D(C   3,C   4,Ir  0,O  31)    -80.9473         0.000000   
    226. D(C   3,C   4,Ir  0,N   6)    157.1819         0.000000   
    227. D(C   3,C   4,Ir  0,C   5)    -36.2889         0.000000   
    228. D(H  38,C   4,C   3,C   5)   -178.9916         0.000000   
    229. D(H  38,C   4,Ir  0,C   1)    121.5379         0.000000   
    230. D(C   1,C   4,Ir  0,C   2)     37.5343         0.000000   
    231. D(H  29,C   5,C   3,H  37)     -4.5846         0.000000   
    232. D(H  29,C   5,C   3,Ir  0)   -120.8374         0.000000   
    233. D(C   2,C   5,C   3,H  37)    176.2144         0.000000   
    234. D(C   2,C   5,C   3,C   4)     -0.1431         0.000000   
    235. D(C   2,C   5,C   3,Ir  0)     59.9615         0.000000   
    236. D(Ir  0,C   5,C   3,H  37)    116.2529         0.000000   
    237. D(Ir  0,C   5,C   3,C   4)    -60.1046         0.000000   
    238. D(H  29,C   5,C   2,H  28)     -0.3888         0.000000   
    239. D(H  29,C   5,C   2,Ir  0)    120.4518         0.000000   
    240. D(C   3,C   5,C   2,H  28)    178.8165         0.000000   
    241. D(C   3,C   5,C   2,C   1)      0.3943         0.000000   
    242. D(Ir  0,C   5,C   2,H  28)   -120.8406         0.000000   
    243. D(Ir  0,C   5,C   2,C   1)     60.7372         0.000000   
    244. D(H  29,C   5,Ir  0,O  31)    -34.8260         0.000000   
    245. D(H  29,C   5,Ir  0,N   6)   -137.8544         0.000000   
    246. D(H  29,C   5,Ir  0,C   4)    158.2836         0.000000   
    247. D(H  29,C   5,Ir  0,C   3)    121.4179         0.000000   
    248. D(C   3,C   5,C   2,Ir  0)    -60.3429         0.000000   
    249. D(H  29,C   5,Ir  0,C   2)   -120.5290         0.000000   
    250. D(H  29,C   5,Ir  0,C   1)   -158.4078         0.000000   
    251. D(C   3,C   5,Ir  0,O  31)   -156.2439         0.000000   
    252. D(H  29,C   5,C   2,C   1)   -178.8110         0.000000   
    253. D(C   3,C   5,Ir  0,N   6)    100.7278         0.000000   
    254. D(C   3,C   5,Ir  0,C   4)     36.8657         0.000000   
    255. D(C   3,C   5,Ir  0,C   2)    118.0531         0.000000   
    256. D(C   3,C   5,Ir  0,C   1)     80.1744         0.000000   
    257. D(C   2,C   5,Ir  0,O  31)     85.7030         0.000000   
    258. D(C   2,C   5,Ir  0,N   6)    -17.3253         0.000000   
    259. D(C   2,C   5,Ir  0,C   4)    -81.1874         0.000000   
    260. D(H  29,C   5,C   3,C   4)    179.0579         0.000000   
    261. D(C   2,C   5,Ir  0,C   3)   -118.0531         0.000000   
    262. D(C   2,C   5,Ir  0,C   1)    -37.8787         0.000000   
    263. D(C   7,N   6,Ir  0,O  31)    -67.6813         0.000000   
    264. D(C   7,N   6,Ir  0,C   5)     37.6456         0.000000   
    265. D(C   7,N   6,Ir  0,C   4)     96.5783         0.000000   
    266. D(C   7,N   6,Ir  0,C   3)    119.9366         0.000000   
    267. D(C   7,N   6,Ir  0,C   2)     24.0694         0.000000   
    268. D(C  17,N   6,Ir  0,C   1)   -122.2168         0.000000   
    269. D(C   7,N   6,Ir  0,C   1)     56.6011         0.000000   
    270. D(C  17,N   6,Ir  0,O  31)    113.5008         0.000000   
    271. D(C  17,N   6,Ir  0,C   5)   -141.1723         0.000000   
    272. D(C  17,N   6,Ir  0,C   4)    -82.2396         0.000000   
    273. D(C  17,N   6,Ir  0,C   3)    -58.8812         0.000000   
    274. D(C  17,N   6,Ir  0,C   2)   -154.7485         0.000000   
    275. D(H  13,C   7,N   6,C  17)    158.0916         0.000000   
    276. D(H  13,C   7,N   6,Ir  0)    -20.7180         0.000000   
    277. D(C  12,C   7,N   6,C  17)     40.7103         0.000000   
    278. D(C  12,C   7,N   6,Ir  0)   -138.0993         0.000000   
    279. D(C   8,C   7,N   6,C  17)    -84.2596         0.000000   
    280. D(C   8,C   7,N   6,Ir  0)     96.9308         0.000000   
    281. D(H  11,C   8,C   7,H  13)     53.4983         0.000000   
    282. D(H  11,C   8,C   7,C  12)    172.3771         0.000000   
    283. D(H  11,C   8,C   7,N   6)    -62.2906         0.000000   
    284. D(H  10,C   8,C   7,H  13)    175.6227         0.000000   
    285. D(H  10,C   8,C   7,C  12)    -65.4984         0.000000   
    286. D(H  10,C   8,C   7,N   6)     59.8338         0.000000   
    287. D(H   9,C   8,C   7,H  13)    -65.9663         0.000000   
    288. D(H   9,C   8,C   7,C  12)     52.9125         0.000000   
    289. D(H   9,C   8,C   7,N   6)    178.2448         0.000000   
    290. D(H  16,C  12,C   7,H  13)    -67.8070         0.000000   
    291. D(H  16,C  12,C   7,C   8)    173.2670         0.000000   
    292. D(H  16,C  12,C   7,N   6)     47.7461         0.000000   
    293. D(H  15,C  12,C   7,H  13)    169.5752         0.000000   
    294. D(H  15,C  12,C   7,C   8)     50.6492         0.000000   
    295. D(H  15,C  12,C   7,N   6)    -74.8717         0.000000   
    296. D(H  14,C  12,C   7,H  13)     51.8426         0.000000   
    297. D(H  14,C  12,C   7,C   8)    -67.0834         0.000000   
    298. D(H  14,C  12,C   7,N   6)    167.3957         0.000000   
    299. D(H  19,C  17,N   6,C   7)     -2.6611         0.000000   
    300. D(H  19,C  17,N   6,Ir  0)    176.2045         0.000000   
    301. D(C  18,C  17,N   6,C   7)    179.0352         0.000000   
    302. D(C  18,C  17,N   6,Ir  0)     -2.0992         0.000000   
    303. D(S  22,C  18,C  17,H  19)    -21.5486         0.000000   
    304. D(S  22,C  18,C  17,N   6)    156.7782         0.000000   
    305. D(C  20,C  18,C  17,H  19)    164.5270         0.000000   
    306. D(C  20,C  18,C  17,N   6)    -17.1461         0.000000   
    307. D(H  24,C  20,C  18,S  22)    142.6178         0.000000   
    308. D(H  24,C  20,C  18,C  17)    -43.0644         0.000000   
    309. D(C  21,C  20,C  18,S  22)     -1.9566         0.000000   
    310. D(C  21,C  20,C  18,C  17)    172.3612         0.000000   
    311. D(H  25,C  21,C  20,H  24)     31.1166         0.000000   
    312. D(H  25,C  21,C  20,C  18)    177.5956         0.000000   
    313. D(C  23,C  21,C  20,H  24)   -144.4453         0.000000   
    314. D(C  23,C  21,C  20,C  18)      2.0337         0.000000   
    315. D(C  23,S  22,C  18,C  20)      1.1250         0.000000   
    316. D(C  23,S  22,C  18,C  17)   -173.3733         0.000000   
    317. D(H  26,C  23,S  22,C  18)   -178.5961         0.000000   
    318. D(C  21,C  23,S  22,C  18)      0.1014         0.000000   
    319. D(H  26,C  23,C  21,H  25)      1.4901         0.000000   
    320. D(H  26,C  23,C  21,C  20)    177.2868         0.000000   
    321. D(S  22,C  23,C  21,H  25)   -177.0606         0.000000   
    322. D(S  22,C  23,C  21,C  20)     -1.2639         0.000000   
    323. D(C  32,O  31,Ir  0,N   6)   -101.6068         0.000000   
    324. D(C  32,O  31,Ir  0,C   5)     92.4397         0.000000   
    325. D(C  32,O  31,Ir  0,C   4)    133.0130         0.000000   
    326. D(C  32,O  31,Ir  0,C   3)     71.7842         0.000000   
    327. D(C  32,O  31,Ir  0,C   2)    131.2727         0.000000   
    328. D(C  32,O  31,Ir  0,C   1)    159.6756         0.000000   
    329. D(C  33,C  32,O  31,Ir  0)   -179.9482         0.000000   
    330. D(O  30,C  32,O  31,Ir  0)      0.3039         0.000000   
    331. D(H  36,C  33,C  32,O  31)     -8.7995         0.000000   
    332. D(H  36,C  33,C  32,O  30)    170.9601         0.000000   
    333. D(H  35,C  33,C  32,O  31)    113.3849         0.000000   
    334. D(H  35,C  33,C  32,O  30)    -66.8555         0.000000   
    335. D(H  34,C  33,C  32,O  31)   -131.1410         0.000000   
    336. D(H  34,C  33,C  32,O  30)     48.6186         0.000000   
    -----------------------------------------------------------------

Number of atoms                         .... 39
Number of degrees of freedom            .... 336

         *************************************************************
         *                GEOMETRY OPTIMIZATION CYCLE   1            *
         *************************************************************
---------------------------------
CARTESIAN COORDINATES (ANGSTROEM)
---------------------------------
  Ir     0.586470   -0.726050    0.670880
  C     -0.035320   -2.665470    1.286260
  C      0.549030   -1.991930    2.401250
  C      2.150340   -2.203770    0.773860
  C      0.954650   -2.797120    0.262950
  C      1.915120   -1.709800    2.081380
  N     -1.039790   -0.119020   -0.499580
  C     -2.424680   -0.071430    0.014460
  C     -2.813540    1.328850    0.472530
  H     -3.849110    1.314390    0.811240
  H     -2.744250    2.045590   -0.347150
  H     -2.198350    1.680130    1.295430
  C     -3.421360   -0.606290   -1.008400
  H     -2.433830   -0.732470    0.880840
  H     -4.380890   -0.763360   -0.520690
  H     -3.600430    0.098790   -1.821240
  H     -3.103260   -1.556270   -1.439050
  C     -0.820530    0.202530   -1.719540
  C      0.505700    0.185820   -2.236350
  H     -1.642850    0.463840   -2.378330
  C      1.648180    0.173710   -1.451950
  C      2.786630   -0.021360   -2.296160
  S      0.806910    0.024360   -3.914550
  C      2.477380   -0.099100   -3.627520
  H      1.782380    0.892770   -0.434250
  H      3.815690   -0.037460   -1.967100
  H      3.151030   -0.202510   -4.467790
  H     -1.056600   -3.017270    1.241360
  H      0.054390   -1.760250    3.334990
  H      2.633110   -1.223710    2.724670
  O      1.869220    1.901320    0.573380
  O      0.165020    1.027490    1.676880
  C      0.944240    2.000260    1.389630
  C      0.731640    3.320810    2.061390
  H      0.731030    4.091990    1.292580
  H      1.581180    3.529110    2.712090
  H     -0.182960    3.380400    2.642570
  H      3.075740   -2.089040    0.227760
  H      0.832040   -3.269290   -0.697990

----------------------------
CARTESIAN COORDINATES (A.U.)
----------------------------
  NO LB      ZA    FRAG     MASS         X           Y           Z
   0 Ir   17.0000*   0   192.220    1.108268   -1.372036    1.267779
   1 C     6.0000    0    12.011   -0.066745   -5.037008    2.430679
   2 C     6.0000    0    12.011    1.037516   -3.764202    4.537705
   3 C     6.0000    0    12.011    4.063554   -4.164522    1.462383
   4 C     6.0000    0    12.011    1.804027   -5.285791    0.496903
   5 C     6.0000    0    12.011    3.619052   -3.231054    3.933238
   6 N     7.0000    0    14.007   -1.964918   -0.224915   -0.944069
   7 C     6.0000    0    12.011   -4.581981   -0.134983    0.027325
   8 C     6.0000    0    12.011   -5.316820    2.511163    0.892952
   9 H     1.0000    0     1.008   -7.273764    2.483837    1.533021
  10 H     1.0000    0     1.008   -5.185881    3.865605   -0.656018
  11 H     1.0000    0     1.008   -4.154279    3.174986    2.448008
  12 C     6.0000    0    12.011   -6.465433   -1.145722   -1.905600
  13 H     1.0000    0     1.008   -4.599272   -1.384168    1.664546
  14 H     1.0000    0     1.008   -8.278682   -1.442541   -0.983962
  15 H     1.0000    0     1.008   -6.803827    0.186686   -3.441645
  16 H     1.0000    0     1.008   -5.864312   -2.940924   -2.719410
  17 C     6.0000    0    12.011   -1.550577    0.382726   -3.249460
  18 C     6.0000    0    12.011    0.955635    0.351149   -4.226089
  19 H     1.0000    0     1.008   -3.104537    0.876531   -4.494392
  20 C     6.0000    0    12.011    3.114609    0.328264   -2.743788
  21 C     6.0000    0    12.011    5.265968   -0.040365   -4.339114
  22 S    16.0000    0    32.060    1.524839    0.046034   -7.397427
  23 C     6.0000    0    12.011    4.681570   -0.187272   -6.855019
  24 H     1.0000    0     1.008    3.368210    1.687091   -0.820614
  25 H     1.0000    0     1.008    7.210609   -0.070789   -3.717280
  26 H     1.0000    0     1.008    5.954584   -0.382688   -8.442900
  27 H     1.0000    0     1.008   -1.996685   -5.701814    2.345830
  28 H     1.0000    0     1.008    0.102782   -3.326390    6.302218
  29 H     1.0000    0     1.008    4.975857   -2.312477    5.148880
  30 O     8.0000    0    15.999    3.532314    3.592974    1.083531
  31 O     8.0000    0    15.999    0.311843    1.941675    3.168844
  32 C     6.0000    0    12.011    1.784355    3.779944    2.626020
  33 C     6.0000    0    12.011    1.382599    6.275421    3.895463
  34 H     1.0000    0     1.008    1.381446    7.732740    2.442622
  35 H     1.0000    0     1.008    2.987997    6.669051    5.125107
  36 H     1.0000    0     1.008   -0.345744    6.388030    4.993734
  37 H     1.0000    0     1.008    5.812306   -3.947713    0.430404
  38 H     1.0000    0     1.008    1.572328   -6.178063   -1.319010
* core charge reduced due to ECP

--------------------------------
INTERNAL COORDINATES (ANGSTROEM)
--------------------------------
 Ir     0   0   0     0.000000000000     0.00000000     0.00000000
 C      1   0   0     2.127596128240     0.00000000     0.00000000
 C      2   1   0     1.427698761714    71.10883728     0.00000000
 C      1   2   3     2.154054469065    64.72309506    79.96372205
 C      4   1   2     1.429254290426    70.14376631    38.61278187
 C      4   1   2     1.417371990587    71.61092716   278.87178119
 N      1   2   3     2.093605411748   101.47791802   222.63064297
 C      7   1   2     1.477979107362   122.87065309    56.60105270
 C      8   7   1     1.523753360259   111.91747471    96.93081148
 H      9   8   7     1.089650760840   108.89188051   178.24476371
 H      9   8   7     1.091051160166   111.20086833    59.83380964
 H      9   8   7     1.085827235107   112.36703923   297.70939966
 C      8   7   1     1.525020924971   111.58122492   221.90069396
 H      8   7   1     1.089803610060   105.35697332   339.28198194
 H     13   8   7     1.087763692123   109.05198952   167.39574097
 H     13   8   7     1.090831213754   112.35723812   285.12834373
 H     13   8   7     1.090462760896   112.31972337    47.74612674
 C      7   1   2     1.280535728397   118.19157353   237.78316461
 C     18   7   1     1.423466828943   120.16359374   357.90080333
 H     18   7   1     1.085586183866   120.58970962   176.20453565
 C     19  18   7     1.385889808931   124.24030983   342.85385155
 C     21  19  18     1.430668106690   108.85643793   172.36120887
 S     19  18   7     1.712644748831   121.38118331   156.77819267
 C     22  21  19     1.369013703255   113.69328744     2.03371629
 H     21  19  18     1.253303719615   122.87780482   316.93558956
 H     22  21  19     1.080511072225   125.46344982   177.59560498
 H     24  22  21     1.081920340644   128.32072762   177.28683183
 H      2   1   3     1.081106881118   124.10362072   119.94500210
 H      3   2   1     1.081764641500   126.01458695   119.63677214
 H      6   4   1     1.079636583439   126.59867971   239.16256345
 O     25  21  19     1.428297064689   169.89591630   308.23542939
 O      1   2   3     2.065080781495   124.99405019   311.32704522
 C     31  25  21     1.237594920198   118.44422745   102.15559581
 C     33  31  25     1.496767370068   118.20986094   204.36613826
 H     34  33  31     1.088938832350   107.94059330    48.61863980
 H     34  33  31     1.090191538951   109.01197623   293.14454769
 H     34  33  31     1.085271542288   114.10994660   170.96013616
 H      4   1   2     1.080626366003   121.65007926   158.71870022
 H      5   4   1     1.077674999524   126.57087119   120.00263863

---------------------------
INTERNAL COORDINATES (A.U.)
---------------------------
 Ir     0   0   0     0.000000000000     0.00000000     0.00000000
 C      1   0   0     4.020574005964     0.00000000     0.00000000
 C      2   1   0     2.697959661378    71.10883728     0.00000000
 C      1   2   3     4.070573024082    64.72309506    79.96372205
 C      4   1   2     2.700899184636    70.14376631    38.61278187
 C      4   1   2     2.678444892100    71.61092716   278.87178119
 N      1   2   3     3.956340860699   101.47791802   222.63064297
 C      7   1   2     2.792975744572   122.87065309    56.60105270
 C      8   7   1     2.879476546531   111.91747471    96.93081148
 H      9   8   7     2.059141519607   108.89188051   178.24476371
 H      9   8   7     2.061787890811   111.20086833    59.83380964
 H      9   8   7     2.051916103105   112.36703923   297.70939966
 C      8   7   1     2.881871896695   111.58122492   221.90069396
 H      8   7   1     2.059430362772   105.35697332   339.28198194
 H     13   8   7     2.055575476535   109.05198952   167.39574097
 H     13   8   7     2.061372252328   112.35723812   285.12834373
 H     13   8   7     2.060675977332   112.31972337    47.74612674
 C      7   1   2     2.419861831371   118.19157353   237.78316461
 C     18   7   1     2.689962467423   120.16359374   357.90080333
 H     18   7   1     2.051460582275   120.58970962   176.20453565
 C     19  18   7     2.618952190673   124.24030983   342.85385155
 C     21  19  18     2.703570910180   108.85643793   172.36120887
 S     19  18   7     3.236429539990   121.38118331   156.77819267
 C     22  21  19     2.587060972737   113.69328744     2.03371629
 H     21  19  18     2.368400792697   122.87780482   316.93558956
 H     22  21  19     2.041870011174   125.46344982   177.59560498
 H     24  22  21     2.044533142537   128.32072762   177.28683183
 H      2   1   3     2.042995926810   124.10362072   119.94500210
 H      3   2   1     2.044238913795   126.01458695   119.63677214
 H      6   4   1     2.040217466862   126.59867971   239.16256345
 O     25  21  19     2.699090290146   169.89591630   308.23542939
 O      1   2   3     3.902437121450   124.99405019   311.32704522
 C     31  25  21     2.338715463906   118.44422745   102.15559581
 C     33  31  25     2.828480415618   118.20986094   204.36613826
 H     34  33  31     2.057796169734   107.94059330    48.61863980
 H     34  33  31     2.060163442135   109.01197623   293.14454769
 H     34  33  31     2.050865995863   114.10994660   170.96013616
 H      4   1   2     2.042087884839   121.65007926   158.71870022
 H      5   4   1     2.036510610475   126.57087119   120.00263863

---------------------
BASIS SET INFORMATION
---------------------
There are 6 groups of distinct atoms

 Group   1 Type Ir  : 7s6p5d1f contracted to 6s3p2d1f pattern {211111/411/41/1}
 Group   2 Type C   : 8s4p1d contracted to 4s2p1d pattern {5111/31/1}
 Group   3 Type N   : 8s4p1d contracted to 4s2p1d pattern {5111/31/1}
 Group   4 Type H   : 4s contracted to 2s pattern {31}
 Group   5 Type S   : 10s7p1d contracted to 4s3p1d pattern {5311/511/1}
 Group   6 Type O   : 8s4p1d contracted to 4s2p1d pattern {5111/31/1}

Atom   0Ir   basis set group =>   1
Atom   1C    basis set group =>   2
Atom   2C    basis set group =>   2
Atom   3C    basis set group =>   2
Atom   4C    basis set group =>   2
Atom   5C    basis set group =>   2
Atom   6N    basis set group =>   3
Atom   7C    basis set group =>   2
Atom   8C    basis set group =>   2
Atom   9H    basis set group =>   4
Atom  10H    basis set group =>   4
Atom  11H    basis set group =>   4
Atom  12C    basis set group =>   2
Atom  13H    basis set group =>   4
Atom  14H    basis set group =>   4
Atom  15H    basis set group =>   4
Atom  16H    basis set group =>   4
Atom  17C    basis set group =>   2
Atom  18C    basis set group =>   2
Atom  19H    basis set group =>   4
Atom  20C    basis set group =>   2
Atom  21C    basis set group =>   2
Atom  22S    basis set group =>   5
Atom  23C    basis set group =>   2
Atom  24H    basis set group =>   4
Atom  25H    basis set group =>   4
Atom  26H    basis set group =>   4
Atom  27H    basis set group =>   4
Atom  28H    basis set group =>   4
Atom  29H    basis set group =>   4
Atom  30O    basis set group =>   6
Atom  31O    basis set group =>   6
Atom  32C    basis set group =>   2
Atom  33C    basis set group =>   2
Atom  34H    basis set group =>   4
Atom  35H    basis set group =>   4
Atom  36H    basis set group =>   4
Atom  37H    basis set group =>   4
Atom  38H    basis set group =>   4
---------------------------------
AUXILIARY/J BASIS SET INFORMATION
---------------------------------
There are 6 groups of distinct atoms

 Group   1 Type Ir  : 11s5p5d3f3g contracted to 8s5p5d2f3g pattern {41111111/11111/11111/21/111}
 Group   2 Type C   : 12s5p4d2f1g contracted to 6s4p3d1f1g pattern {711111/2111/211/2/1}
 Group   3 Type N   : 12s5p4d2f1g contracted to 6s4p3d1f1g pattern {711111/2111/211/2/1}
 Group   4 Type H   : 5s2p1d contracted to 3s1p1d pattern {311/2/1}
 Group   5 Type S   : 14s5p5d2f1g contracted to 8s4p3d1f1g pattern {71111111/2111/311/2/1}
 Group   6 Type O   : 12s5p4d2f1g contracted to 6s4p3d1f1g pattern {711111/2111/211/2/1}

Atom   0Ir   basis set group =>   1
Atom   1C    basis set group =>   2
Atom   2C    basis set group =>   2
Atom   3C    basis set group =>   2
Atom   4C    basis set group =>   2
Atom   5C    basis set group =>   2
Atom   6N    basis set group =>   3
Atom   7C    basis set group =>   2
Atom   8C    basis set group =>   2
Atom   9H    basis set group =>   4
Atom  10H    basis set group =>   4
Atom  11H    basis set group =>   4
Atom  12C    basis set group =>   2
Atom  13H    basis set group =>   4
Atom  14H    basis set group =>   4
Atom  15H    basis set group =>   4
Atom  16H    basis set group =>   4
Atom  17C    basis set group =>   2
Atom  18C    basis set group =>   2
Atom  19H    basis set group =>   4
Atom  20C    basis set group =>   2
Atom  21C    basis set group =>   2
Atom  22S    basis set group =>   5
Atom  23C    basis set group =>   2
Atom  24H    basis set group =>   4
Atom  25H    basis set group =>   4
Atom  26H    basis set group =>   4
Atom  27H    basis set group =>   4
Atom  28H    basis set group =>   4
Atom  29H    basis set group =>   4
Atom  30O    basis set group =>   6
Atom  31O    basis set group =>   6
Atom  32C    basis set group =>   2
Atom  33C    basis set group =>   2
Atom  34H    basis set group =>   4
Atom  35H    basis set group =>   4
Atom  36H    basis set group =>   4
Atom  37H    basis set group =>   4
Atom  38H    basis set group =>   4
-------------------------
ECP PARAMETER INFORMATION
-------------------------

 Group 1, Type Ir ECP Def2-ECP (replacing 60 core electrons, lmax=3)

Atom   0Ir   ECP group =>   1



           ************************************************************
           *        Program running with 8 parallel MPI-processes     *
           *              working on a common directory               *
           ************************************************************
------------------------------------------------------------------------------
                           ORCA GTO INTEGRAL CALCULATION
                           -- RI-GTO INTEGRALS CHOSEN --
------------------------------------------------------------------------------
------------------------------------------------------------------------------
                   ___                                                        
                  /   \      - P O W E R E D   B Y -                         
                 /     \                                                     
                 |  |  |   _    _      __       _____    __    __             
                 |  |  |  | |  | |    /  \     |  _  \  |  |  /  |          
                  \  \/   | |  | |   /    \    | | | |  |  | /  /          
                 / \  \   | |__| |  /  /\  \   | |_| |  |  |/  /          
                |  |  |   |  __  | /  /__\  \  |    /   |      \           
                |  |  |   | |  | | |   __   |  |    \   |  |\   \          
                \     /   | |  | | |  |  |  |  | |\  \  |  | \   \       
                 \___/    |_|  |_| |__|  |__|  |_| \__\ |__|  \__/        
                                                                              
                      - O R C A' S   B I G   F R I E N D -                    
                                      &                                       
                       - I N T E G R A L  F E E D E R -                       
                                                                              
 v1 FN, 2020, v2 2021                                                         
------------------------------------------------------------------------------


Reading SHARK input file reaction-4-ieip_optts_Compound_1.SHARKINP.tmp ... ok
----------------------
SHARK INTEGRAL PACKAGE
----------------------

Number of atoms                             ...     39
Number of basis functions                   ...    358
Number of shells                            ...    184
Maximum angular momentum                    ...      3
Integral batch strategy                     ... SHARK/LIBINT Hybrid
RI-J (if used) integral strategy            ... SPLIT-RIJ (Revised 2003 algorithm where possible)
Printlevel                                  ...      1
Contraction scheme used                     ... SEGMENTED contraction
Coulomb Range Separation                    ... NOT USED
Exchange Range Separation                   ... NOT USED
Finite Nucleus Model                        ... NOT USED
Auxiliary Coulomb fitting basis             ... AVAILABLE
   # of basis functions in Aux-J            ...   1231
   # of shells in Aux-J                     ...    405
   Maximum angular momentum in Aux-J        ...      4
Auxiliary J/K fitting basis                 ... NOT available
Auxiliary Correlation fitting basis         ... NOT available
Auxiliary 'external' fitting basis          ... NOT available
Integral threshold                          ...     2.500000e-11
Primitive cut-off                           ...     2.500000e-12
Primitive pair pre-selection threshold      ...     2.500000e-12

Calculating pre-screening integrals         ... done (  0.0 sec) Dimension = 184
Organizing shell pair data                  ... done (  0.1 sec)
Shell pair information
Total number of shell pairs                 ...     17020
Shell pairs after pre-screening             ...     12889
Total number of primitive shell pairs       ...     60705
Primitive shell pairs kept                  ...     28920
          la=0 lb=0:   4931 shell pairs
          la=1 lb=0:   4243 shell pairs
          la=1 lb=1:    853 shell pairs
          la=2 lb=0:   1728 shell pairs
          la=2 lb=1:    786 shell pairs
          la=2 lb=2:    175 shell pairs
          la=3 lb=0:    110 shell pairs
          la=3 lb=1:     41 shell pairs
          la=3 lb=2:     21 shell pairs
          la=3 lb=3:      1 shell pairs

Calculating one electron integrals          ... done (  0.0 sec)
Calculating ECP integrals                   ... done (  0.9 sec)
Calculating RI/J V-Matrix + Cholesky decomp.... done (  0.1 sec)
Calculating Nuclear repulsion               ... done (  0.0 sec) ENN=   2018.490711386572 Eh

SHARK setup successfully completed in   1.4 seconds

Maximum memory used throughout the entire GTOINT-calculation: 27.1 MB


           ************************************************************
           *        Program running with 8 parallel MPI-processes     *
           *              working on a common directory               *
           ************************************************************
-------------------------------------------------------------------------------
                                 ORCA SCF
-------------------------------------------------------------------------------

------------
SCF SETTINGS
------------
Hamiltonian:
 Density Functional     Method          .... DFT(GTOs)
 Exchange Functional    Exchange        .... PBE
   PBE kappa parameter   XKappa         ....  1.024500
   PBE mue parameter    XMuePBE         ....  0.123457
 Correlation Functional Correlation     .... PBE
   PBE beta parameter  CBetaPBE         ....  0.030000
 LDA part of GGA corr.  LDAOpt          .... PW91-LDA
 Gradients option       PostSCFGGA      .... off
 Hybrid DFT is turned on
   Fraction HF Exchange ScalHFX         ....  0.420000
   Scaling of DF-GGA-X  ScalDFX         ....  0.580000
   Scaling of DF-GGA-C  ScalDFC         ....  1.000000
   Scaling of DF-LDA-C  ScalLDAC        ....  1.000000
   Perturbative correction              ....  0.000000
   Density functional embedding theory  .... OFF
 RI-approximation to the Coulomb term is turned on
   Number of AuxJ basis functions       .... 1231
   RIJ-ON(X) (HFX calculated with O(N)) .... on
   Number of AuxJ basis functions       .... 1231
   RIJ-COSX (HFX calculated with COS-X)).... on


General Settings:
 Integral files         IntName         .... reaction-4-ieip_optts_Compound_1
 Hartree-Fock type      HFTyp           .... RHF
 Total Charge           Charge          ....    1
 Multiplicity           Mult            ....    1
 Number of Electrons    NEL             ....  164
 Basis Dimension        Dim             ....  358
 Nuclear Repulsion      ENuc            ....   2018.4907113866 Eh

Convergence Acceleration:
 DIIS                   CNVDIIS         .... on
   Start iteration      DIISMaxIt       ....    12
   Startup error        DIISStart       ....  0.200000
   # of expansion vecs  DIISMaxEq       ....     5
   Bias factor          DIISBfac        ....   1.050
   Max. coefficient     DIISMaxC        ....  10.000
 Trust-Rad. Augm. Hess. CNVTRAH         .... auto
   Auto Start mean grad. ratio tolernc. ....  1.125000
   Auto Start start iteration           ....    20
   Auto Start num. interpolation iter.  ....    10
   Max. Number of Micro iterations      ....    16
   Max. Number of Macro iterations      .... Maxiter - #DIIS iter
   Number of Davidson start vectors     ....     2
   Converg. threshold I  (grad. norm)   ....   1.000e-05
   Converg. threshold II (energy diff.) ....   1.000e-08
   Grad. Scal. Fac. for Micro threshold ....   0.100
   Minimum threshold for Micro iter.    ....   0.010
   NR start threshold (gradient norm)   ....   0.001
   Initial trust radius                 ....   0.400
   Minimum AH scaling param. (alpha)    ....   1.000
   Maximum AH scaling param. (alpha)    .... 1000.000
   Orbital update algorithm             .... Taylor
   White noise on init. David. guess    .... on
   Maximum white noise                  ....   0.010
   Quad. conv. algorithm                .... NR
   COSX micro iterations for RIJONX calc.... off
 SOSCF                  CNVSOSCF        .... off
 Level Shifting         CNVShift        .... on
   Level shift para.    LevelShift      ....    0.2500
   Turn off err/grad.   ShiftErr        ....    0.0010
 Zerner damping         CNVZerner       .... off
 Static damping         CNVDamp         .... on
   Fraction old density DampFac         ....    0.7000
   Max. Damping (<1)    DampMax         ....    0.9800
   Min. Damping (>=0)   DampMin         ....    0.0000
   Turn off err/grad.   DampErr         ....    0.1000
 Fernandez-Rico         CNVRico         .... off

SCF Procedure:
 Maximum # iterations   MaxIter         ....   125
 SCF integral mode      SCFMode         .... Direct
   Integral package                     .... SHARK and LIBINT hybrid scheme
 Reset frequency        DirectResetFreq ....    20
 Integral Threshold     Thresh          ....  2.500e-11 Eh
 Primitive CutOff       TCut            ....  2.500e-12 Eh

Convergence Tolerance:
 Convergence Check Mode ConvCheckMode   .... Total+1el-Energy
 Convergence forced     ConvForced      .... 0
 Energy Change          TolE            ....  1.000e-08 Eh
 1-El. energy change                    ....  1.000e-05 Eh
 DIIS Error             TolErr          ....  5.000e-07


Diagonalization of the overlap matrix:
Smallest eigenvalue                        ... 1.101e-03
Time for diagonalization                   ...    0.027 sec
Threshold for overlap eigenvalues          ... 1.000e-08
Number of eigenvalues below threshold      ... 0
Time for construction of square roots      ...    0.013 sec
Total time needed                          ...    0.041 sec

--------------------
INITIAL GUESS: HCORE
--------------------
                      -----------------
                      INTIAL GUESS DONE 
                      -----------------
-------------------
DFT GRID GENERATION
-------------------

General Integration Accuracy     IntAcc      ... 4.159
Radial Grid Type                 RadialGrid  ... OptM3 with GC (2021)
Angular Grid (max. ang.)         AngularGrid ... 3 (Lebedev-194)
Angular grid pruning method      GridPruning ... 4 (adaptive)
Weight generation scheme         WeightScheme... Becke
Basis function cutoff            BFCut       ... 1.0000e-11
Integration weight cutoff        WCut        ... 1.0000e-14
Angular grids for H and He will be reduced by one unit
Partially contracted basis set               ... off
Rotationally invariant grid construction     ... off

Total number of grid points                  ...    93375
Total number of batches                      ...     1479
Average number of points per batch           ...       63
Average number of grid points per atom       ...     2394
Time for grid setup =    0.461 sec

--------------------
COSX GRID GENERATION
--------------------

GRIDX 1
-------
General Integration Accuracy     IntAcc      ... 3.816
Radial Grid Type                 RadialGrid  ... OptM3 with GC (2021)
Angular Grid (max. ang.)         AngularGrid ... 1 (Lebedev-50)
Angular grid pruning method      GridPruning ... 4 (adaptive)
Weight generation scheme         WeightScheme... Becke
Basis function cutoff            BFCut       ... 1.0000e-11
Integration weight cutoff        WCut        ... 1.0000e-14
Angular grids for H and He will be reduced by one unit
Partially contracted basis set               ... on
Rotationally invariant grid construction     ... off

Total number of grid points                  ...    23183
Total number of batches                      ...      382
Average number of points per batch           ...       60
Average number of grid points per atom       ...      594
UseSFitting                                  ... on

GRIDX 2
-------
General Integration Accuracy     IntAcc      ... 4.020
Radial Grid Type                 RadialGrid  ... OptM3 with GC (2021)
Angular Grid (max. ang.)         AngularGrid ... 2 (Lebedev-110)
Angular grid pruning method      GridPruning ... 4 (adaptive)
Weight generation scheme         WeightScheme... Becke
Basis function cutoff            BFCut       ... 1.0000e-11
Integration weight cutoff        WCut        ... 1.0000e-14
Angular grids for H and He will be reduced by one unit
Partially contracted basis set               ... on
Rotationally invariant grid construction     ... off

Total number of grid points                  ...    50360
Total number of batches                      ...      805
Average number of points per batch           ...       62
Average number of grid points per atom       ...     1291
UseSFitting                                  ... on

GRIDX 3
-------
General Integration Accuracy     IntAcc      ... 4.338
Radial Grid Type                 RadialGrid  ... OptM3 with GC (2021)
Angular Grid (max. ang.)         AngularGrid ... 3 (Lebedev-194)
Angular grid pruning method      GridPruning ... 4 (adaptive)
Weight generation scheme         WeightScheme... Becke
Basis function cutoff            BFCut       ... 1.0000e-11
Integration weight cutoff        WCut        ... 1.0000e-14
Angular grids for H and He will be reduced by one unit
Partially contracted basis set               ... on
Rotationally invariant grid construction     ... off

Total number of grid points                  ...   108985
Total number of batches                      ...     1726
Average number of points per batch           ...       63
Average number of grid points per atom       ...     2794
UseSFitting                                  ... on

Time for X-Grid setup             =    1.127 sec

--------------
SCF ITERATIONS
--------------
ITER       Energy         Delta-E        Max-DP      RMS-DP      [F,P]     Damp
               ***  Starting incremental Fock matrix formation  ***
  0   -871.0107136947   0.00000000000013.04008149  0.13961558  3.2746224 0.7000
  1  -1104.6768479748-233.66613428012410.57351356  0.12005586  1.5020284 0.7000
  2  -1169.6148286500 -64.937980675189 5.12146276  0.06141189  0.9882192 0.7000
  3  -1196.0207056373 -26.405876987287 3.56851563  0.04123041  0.6998543 0.7000
  4  -1216.0079259428 -19.987220305521 2.50195162  0.03643365  0.4609887 0.7000
  5  -1228.4201095085 -12.412183565677 1.88029426  0.02942826  0.3360018 0.7000
  6  -1238.8606476713 -10.440538162799 1.84300942  0.02795026  0.2710812 0.7000
  7  -1244.5352640856  -5.674616414307 1.60421276  0.02538427  0.2598898 0.7000
  8  -1250.6397806885  -6.104516602897 1.59122602  0.02467494  0.2733533 0.7000
  9  -1252.9037120014  -2.263931312865 1.59987163  0.02434430  0.3099350 0.7000
 10  -1256.5822782573  -3.678566255925 1.42592909  0.02337911  0.2844343 0.7000
 11  -1257.3351441523  -0.752865895022 1.54641515  0.02397409  0.3335606 0.7000
                               ***Turning on DIIS***
 12  -1259.6787677825  -2.343623630142 1.41847619  0.02285828  0.3018410 0.7000
 13  -1259.6585508878   0.020216894708 1.32725471  0.02016586  0.3459498 0.7000
 14  -1267.3206862605  -7.662135372728 1.00802535  0.01443760  0.2777157 0.7000
 15  -1274.0492505015  -6.728564241031 0.71746721  0.01019767  0.2011532 0.7000
 16  -1278.6825886627  -4.633338161216 0.50327892  0.00718312  0.1342605 0.7000
 17  -1281.7707308982  -3.088142235421 1.17858526  0.01685281  0.0841759 0.0000
 18  -1288.4002797150  -6.629548816801 0.05002220  0.00066093  0.0311015 0.0000
 19  -1288.4212562862  -0.020976571274 0.04184289  0.00049705  0.0244379 0.0000
               *** Restarting incremental Fock matrix formation ***
                                   *** Resetting DIIS ***
 20  -1288.4273637317  -0.006107445488 0.04994757  0.00060964  0.0211974 0.0000
 21  -1288.4281845707  -0.000820838965 0.02528915  0.00026660  0.0274114 0.0000
 22  -1288.4318592259  -0.003674655196 0.00448552  0.00008705  0.0045962 0.0000
 23  -1288.4321289597  -0.000269733834 0.00449515  0.00004473  0.0026928 0.0000
 24  -1288.4321890143  -0.000060054534 0.00384836  0.00004066  0.0007533 0.0000
               *** Restarting incremental Fock matrix formation ***
                                   *** Resetting DIIS ***
 25  -1288.4318525154   0.000336498857 0.00449062  0.00009461  0.0005190 0.0000
 26  -1288.4318717537  -0.000019238340 0.00116407  0.00001404  0.0005969 0.0000
 27  -1288.4318722361  -0.000000482385 0.00092697  0.00000836  0.0006614 0.0000
 28  -1288.4318746492  -0.000002413073 0.00038039  0.00000323  0.0001726 0.0000
 29  -1288.4318747873  -0.000000138151 0.00028938  0.00000209  0.0001005 0.0000
 30  -1288.4318748920  -0.000000104640 0.00014007  0.00000108  0.0000503 0.0000
 31  -1288.4318749134  -0.000000021430 0.00007710  0.00000062  0.0000170 0.0000
 32  -1288.4318749214  -0.000000007977 0.00003198  0.00000030  0.0000095 0.0000
 33  -1288.4318749215  -0.000000000093 0.00002367  0.00000018  0.0000048 0.0000
 34  -1288.4318749287  -0.000000007198 0.00000950  0.00000007  0.0000043 0.0000
 35  -1288.4318749265   0.000000002135 0.00000606  0.00000005  0.0000028 0.0000
 36  -1288.4318749365  -0.000000009947 0.00000437  0.00000004  0.0000019 0.0000
                            ***DIIS convergence achieved***

               *****************************************************
               *                     SUCCESS                       *
               *           SCF CONVERGED AFTER  37 CYCLES          *
               *****************************************************

Old exchange energy                            =    -59.650569386 Eh
New exchange energy                            =    -59.650556326 Eh
Exchange energy change after final integration =      0.000013059 Eh
Total energy after final integration           =  -1288.431861874 Eh
Final COS-X integration done in                =     8.205 sec

----------------
TOTAL SCF ENERGY
----------------

Total Energy       :        -1288.43186187 Eh          -35060.01338 eV

Components:
Nuclear Repulsion  :         2018.49071139 Eh           54925.92464 eV
Electronic Energy  :        -3306.92257326 Eh          -89985.93802 eV
One Electron Energy:        -5792.66208263 Eh         -157626.34884 eV
Two Electron Energy:         2485.73950937 Eh           67640.41082 eV
Max COSX asymmetry :            0.00002119 Eh               0.00058 eV

Virial components:
Potential Energy   :        -2501.51472942 Eh          -68069.67638 eV
Kinetic Energy     :         1213.08286755 Eh           33009.66300 eV
Virial Ratio       :            2.06211364


DFT components:
N(Alpha)           :       82.000745882958 electrons
N(Beta)            :       82.000745882958 electrons
N(Total)           :      164.001491765916 electrons
E(X)               :      -79.585713772677 Eh       
E(C)               :       -7.452727397852 Eh       
E(XC)              :      -87.038441170529 Eh       
DFET-embed. en.    :        0.000000000000 Eh       

---------------
SCF CONVERGENCE
---------------

  Last Energy change         ...    3.0373e-09  Tolerance :   1.0000e-08
  Last MAX-Density change    ...    0.0000e+00  Tolerance :   1.0000e-07
  Last RMS-Density change    ...    0.0000e+00  Tolerance :   5.0000e-09
  Last DIIS Error            ...    6.9369e-07  Tolerance :   5.0000e-07

             **** THE GBW FILE WAS UPDATED (reaction-4-ieip_optts_Compound_1.gbw) ****
             **** DENSITY reaction-4-ieip_optts_Compound_1.scfp WAS UPDATED ****
             **** ENERGY FILE WAS UPDATED (reaction-4-ieip_optts_Compound_1.en.tmp) ****
             **** THE GBW FILE WAS UPDATED (reaction-4-ieip_optts_Compound_1.gbw) ****
             **** DENSITY reaction-4-ieip_optts_Compound_1.scfp WAS UPDATED ****
----------------
ORBITAL ENERGIES
----------------

  NO   OCC          E(Eh)            E(eV) 
   0   2.0000     -89.754830     -2442.3531 
   1   2.0000     -19.628135      -534.1087 
   2   2.0000     -19.591697      -533.1172 
   3   2.0000     -14.831122      -403.5753 
   4   2.0000     -10.683400      -290.7101 
   5   2.0000     -10.652856      -289.8790 
   6   2.0000     -10.645416      -289.6765 
   7   2.0000     -10.642532      -289.5980 
   8   2.0000     -10.640519      -289.5432 
   9   2.0000     -10.626037      -289.1492 
  10   2.0000     -10.625016      -289.1214 
  11   2.0000     -10.617249      -288.9100 
  12   2.0000     -10.613178      -288.7993 
  13   2.0000     -10.606422      -288.6154 
  14   2.0000     -10.590756      -288.1891 
  15   2.0000     -10.583193      -287.9833 
  16   2.0000     -10.551978      -287.1339 
  17   2.0000     -10.541152      -286.8393 
  18   2.0000     -10.536605      -286.7156 
  19   2.0000      -8.394668      -228.4305 
  20   2.0000      -6.284598      -171.0126 
  21   2.0000      -6.281070      -170.9166 
  22   2.0000      -6.279490      -170.8736 
  23   2.0000      -4.033908      -109.7682 
  24   2.0000      -2.353679       -64.0469 
  25   2.0000      -2.318050       -63.0774 
  26   2.0000      -2.317596       -63.0650 
  27   2.0000      -1.313078       -35.7307 
  28   2.0000      -1.211753       -32.9735 
  29   2.0000      -1.204236       -32.7689 
  30   2.0000      -1.176272       -32.0080 
  31   2.0000      -1.121385       -30.5144 
  32   2.0000      -1.018397       -27.7120 
  33   2.0000      -0.988367       -26.8948 
  34   2.0000      -0.983576       -26.7645 
  35   2.0000      -0.961999       -26.1773 
  36   2.0000      -0.956407       -26.0252 
  37   2.0000      -0.931858       -25.3571 
  38   2.0000      -0.894988       -24.3539 
  39   2.0000      -0.867692       -23.6111 
  40   2.0000      -0.797849       -21.7106 
  41   2.0000      -0.791510       -21.5381 
  42   2.0000      -0.789769       -21.4907 
  43   2.0000      -0.776661       -21.1340 
  44   2.0000      -0.773899       -21.0589 
  45   2.0000      -0.755285       -20.5523 
  46   2.0000      -0.738834       -20.1047 
  47   2.0000      -0.719659       -19.5829 
  48   2.0000      -0.685843       -18.6627 
  49   2.0000      -0.672569       -18.3015 
  50   2.0000      -0.659787       -17.9537 
  51   2.0000      -0.654083       -17.7985 
  52   2.0000      -0.647375       -17.6160 
  53   2.0000      -0.642535       -17.4843 
  54   2.0000      -0.641800       -17.4643 
  55   2.0000      -0.631771       -17.1914 
  56   2.0000      -0.622769       -16.9464 
  57   2.0000      -0.611957       -16.6522 
  58   2.0000      -0.610192       -16.6042 
  59   2.0000      -0.603619       -16.4253 
  60   2.0000      -0.593369       -16.1464 
  61   2.0000      -0.586368       -15.9559 
  62   2.0000      -0.573643       -15.6096 
  63   2.0000      -0.569632       -15.5005 
  64   2.0000      -0.560131       -15.2419 
  65   2.0000      -0.556917       -15.1545 
  66   2.0000      -0.551610       -15.0101 
  67   2.0000      -0.545791       -14.8517 
  68   2.0000      -0.538217       -14.6456 
  69   2.0000      -0.530595       -14.4382 
  70   2.0000      -0.529299       -14.4029 
  71   2.0000      -0.521956       -14.2031 
  72   2.0000      -0.510148       -13.8818 
  73   2.0000      -0.505801       -13.7635 
  74   2.0000      -0.493443       -13.4273 
  75   2.0000      -0.479399       -13.0451 
  76   2.0000      -0.465579       -12.6691 
  77   2.0000      -0.451533       -12.2868 
  78   2.0000      -0.435507       -11.8508 
  79   2.0000      -0.426995       -11.6191 
  80   2.0000      -0.416415       -11.3312 
  81   2.0000      -0.400809       -10.9066 
  82   0.0000      -0.205682        -5.5969 
  83   0.0000      -0.167511        -4.5582 
  84   0.0000      -0.143721        -3.9108 
  85   0.0000      -0.084476        -2.2987 
  86   0.0000      -0.072473        -1.9721 
  87   0.0000      -0.070524        -1.9191 
  88   0.0000      -0.061888        -1.6841 
  89   0.0000      -0.055585        -1.5125 
  90   0.0000      -0.039702        -1.0804 
  91   0.0000      -0.039169        -1.0659 
  92   0.0000      -0.006370        -0.1733 
  93   0.0000      -0.000933        -0.0254 
  94   0.0000       0.013235         0.3602 
  95   0.0000       0.023588         0.6419 
  96   0.0000       0.028082         0.7641 
  97   0.0000       0.037514         1.0208 
  98   0.0000       0.052086         1.4173 
  99   0.0000       0.060812         1.6548 
 100   0.0000       0.067751         1.8436 
 101   0.0000       0.073498         2.0000 
 102   0.0000       0.077342         2.1046 
 103   0.0000       0.081729         2.2240 
 104   0.0000       0.084363         2.2956 
 105   0.0000       0.090266         2.4563 
 106   0.0000       0.092121         2.5067 
 107   0.0000       0.099642         2.7114 
 108   0.0000       0.108425         2.9504 
 109   0.0000       0.109894         2.9904 
 110   0.0000       0.112055         3.0492 
 111   0.0000       0.119526         3.2525 
 112   0.0000       0.124402         3.3852 
 113   0.0000       0.129502         3.5239 
 114   0.0000       0.132774         3.6130 
 115   0.0000       0.138300         3.7633 
 116   0.0000       0.145747         3.9660 
 117   0.0000       0.150442         4.0937 
 118   0.0000       0.163025         4.4361 
 119   0.0000       0.168340         4.5808 
 120   0.0000       0.175389         4.7726 
 121   0.0000       0.187744         5.1088 
 122   0.0000       0.189707         5.1622 
 123   0.0000       0.191256         5.2044 
 124   0.0000       0.211455         5.7540 
 125   0.0000       0.233341         6.3495 
 126   0.0000       0.252565         6.8726 
 127   0.0000       0.261373         7.1123 
 128   0.0000       0.283705         7.7200 
 129   0.0000       0.298211         8.1147 
 130   0.0000       0.305108         8.3024 
 131   0.0000       0.315542         8.5863 
 132   0.0000       0.328229         8.9316 
 133   0.0000       0.336945         9.1687 
 134   0.0000       0.343300         9.3417 
 135   0.0000       0.348872         9.4933 
 136   0.0000       0.362637         9.8678 
 137   0.0000       0.376951        10.2574 
 138   0.0000       0.387643        10.5483 
 139   0.0000       0.405633        11.0378 
 140   0.0000       0.413616        11.2551 
 141   0.0000       0.417274        11.3546 
 142   0.0000       0.426405        11.6031 
 143   0.0000       0.435659        11.8549 
 144   0.0000       0.440203        11.9785 
 145   0.0000       0.444530        12.0963 
 146   0.0000       0.454247        12.3607 
 147   0.0000       0.459596        12.5063 
 148   0.0000       0.472137        12.8475 
 149   0.0000       0.478904        13.0316 
 150   0.0000       0.488307        13.2875 
 151   0.0000       0.494578        13.4581 
 152   0.0000       0.496614        13.5136 
 153   0.0000       0.502329        13.6691 
 154   0.0000       0.518587        14.1115 
[...]
ORCA: 358  gCP: 357 
If you are NOT using ECPs, check your basis set inputs!
 ** NOTE ** -> element ir will be treated as co
NOTIFICATION: Different basis set in ORCA and otool_gcp:
ORCA: 358  gCP: 357 
If you are NOT using ECPs, check your basis set inputs!
 ** NOTE ** -> element ir will be treated as co
NOTIFICATION: Different basis set in ORCA and otool_gcp:
ORCA: 358  gCP: 357 
If you are NOT using ECPs, check your basis set inputs!
 ** NOTE ** -> element ir will be treated as co
NOTIFICATION: Different basis set in ORCA and otool_gcp:
ORCA: 358  gCP: 357 
If you are NOT using ECPs, check your basis set inputs!
   10     -1288.404166   -1.085099    0.002359  0.000394
 ** NOTE ** -> element ir will be treated as co
NOTIFICATION: Different basis set in ORCA and otool_gcp:
ORCA: 358  gCP: 357 
If you are NOT using ECPs, check your basis set inputs!
 ** NOTE ** -> element ir will be treated as co
NOTIFICATION: Different basis set in ORCA and otool_gcp:
ORCA: 358  gCP: 357 
If you are NOT using ECPs, check your basis set inputs!
 ** NOTE ** -> element ir will be treated as co
NOTIFICATION: Different basis set in ORCA and otool_gcp:
ORCA: 358  gCP: 357 
If you are NOT using ECPs, check your basis set inputs!
 ** NOTE ** -> element ir will be treated as co
NOTIFICATION: Different basis set in ORCA and otool_gcp:
ORCA: 358  gCP: 357 
If you are NOT using ECPs, check your basis set inputs!
 ** NOTE ** -> element ir will be treated as co
NOTIFICATION: Different basis set in ORCA and otool_gcp:
ORCA: 358  gCP: 357 
If you are NOT using ECPs, check your basis set inputs!
 ** NOTE ** -> element ir will be treated as co
NOTIFICATION: Different basis set in ORCA and otool_gcp:
ORCA: 358  gCP: 357 
If you are NOT using ECPs, check your basis set inputs!
   11     -1288.404212   -1.113673    0.002690  0.000438
 ** NOTE ** -> element ir will be treated as co
NOTIFICATION: Different basis set in ORCA and otool_gcp:
ORCA: 358  gCP: 357 
If you are NOT using ECPs, check your basis set inputs!
 ** NOTE ** -> element ir will be treated as co
NOTIFICATION: Different basis set in ORCA and otool_gcp:
ORCA: 358  gCP: 357 
If you are NOT using ECPs, check your basis set inputs!
 ** NOTE ** -> element ir will be treated as co
NOTIFICATION: Different basis set in ORCA and otool_gcp:
ORCA: 358  gCP: 357 
If you are NOT using ECPs, check your basis set inputs!
 ** NOTE ** -> element ir will be treated as co
NOTIFICATION: Different basis set in ORCA and otool_gcp:
ORCA: 358  gCP: 357 
If you are NOT using ECPs, check your basis set inputs!
 ** NOTE ** -> element ir will be treated as co
NOTIFICATION: Different basis set in ORCA and otool_gcp:
ORCA: 358  gCP: 357 
If you are NOT using ECPs, check your basis set inputs!
 ** NOTE ** -> element ir will be treated as co
NOTIFICATION: Different basis set in ORCA and otool_gcp:
ORCA: 358  gCP: 357 
If you are NOT using ECPs, check your basis set inputs!
   12     -1288.404231   -1.125900    0.002187  0.000355
 ** NOTE ** -> element ir will be treated as co
NOTIFICATION: Different basis set in ORCA and otool_gcp:
ORCA: 358  gCP: 357 
If you are NOT using ECPs, check your basis set inputs!
 ** NOTE ** -> element ir will be treated as co
NOTIFICATION: Different basis set in ORCA and otool_gcp:
ORCA: 358  gCP: 357 
If you are NOT using ECPs, check your basis set inputs!
 ** NOTE ** -> element ir will be treated as co
NOTIFICATION: Different basis set in ORCA and otool_gcp:
ORCA: 358  gCP: 357 
If you are NOT using ECPs, check your basis set inputs!
 ** NOTE ** -> element ir will be treated as co
NOTIFICATION: Different basis set in ORCA and otool_gcp:
ORCA: 358  gCP: 357 
If you are NOT using ECPs, check your basis set inputs!
   13     -1288.404261   -1.144591    0.001755  0.000323

                      ***********************HURRAY********************
                      ***            THE IRC HAS CONVERGED          ***
                      *************************************************


         *************************************************************
         *                          BACKWARD IRC                     *
         *************************************************************

 ** NOTE ** -> element ir will be treated as co
NOTIFICATION: Different basis set in ORCA and otool_gcp:
ORCA: 358  gCP: 357 
If you are NOT using ECPs, check your basis set inputs!
Iteration    E(Eh)      dE(kcal/mol)  max(|G|)   RMS(G) 
Convergence thresholds                0.002000  0.000500            
    0     -1288.335153   42.220922    0.168283  0.022276
 ** NOTE ** -> element ir will be treated as co
NOTIFICATION: Different basis set in ORCA and otool_gcp:
ORCA: 358  gCP: 357 
If you are NOT using ECPs, check your basis set inputs!
 ** NOTE ** -> element ir will be treated as co
NOTIFICATION: Different basis set in ORCA and otool_gcp:
ORCA: 358  gCP: 357 
If you are NOT using ECPs, check your basis set inputs!
 ** NOTE ** -> element ir will be treated as co
NOTIFICATION: Different basis set in ORCA and otool_gcp:
ORCA: 358  gCP: 357 
If you are NOT using ECPs, check your basis set inputs!
 ** NOTE ** -> element ir will be treated as co
NOTIFICATION: Different basis set in ORCA and otool_gcp:
ORCA: 358  gCP: 357 
If you are NOT using ECPs, check your basis set inputs!
    1     -1288.366749   22.394473    0.123149  0.016326
 ** NOTE ** -> element ir will be treated as co
NOTIFICATION: Different basis set in ORCA and otool_gcp:
ORCA: 358  gCP: 357 
If you are NOT using ECPs, check your basis set inputs!
 ** NOTE ** -> element ir will be treated as co
NOTIFICATION: Different basis set in ORCA and otool_gcp:
ORCA: 358  gCP: 357 
If you are NOT using ECPs, check your basis set inputs!
 ** NOTE ** -> element ir will be treated as co
NOTIFICATION: Different basis set in ORCA and otool_gcp:
ORCA: 358  gCP: 357 
If you are NOT using ECPs, check your basis set inputs!
 ** NOTE ** -> element ir will be treated as co
NOTIFICATION: Different basis set in ORCA and otool_gcp:
ORCA: 358  gCP: 357 
If you are NOT using ECPs, check your basis set inputs!
    2     -1288.386872    9.766948    0.055328  0.009590
 ** NOTE ** -> element ir will be treated as co
NOTIFICATION: Different basis set in ORCA and otool_gcp:
ORCA: 358  gCP: 357 
If you are NOT using ECPs, check your basis set inputs!
 ** NOTE ** -> element ir will be treated as co
NOTIFICATION: Different basis set in ORCA and otool_gcp:
ORCA: 358  gCP: 357 
If you are NOT using ECPs, check your basis set inputs!
 ** NOTE ** -> element ir will be treated as co
NOTIFICATION: Different basis set in ORCA and otool_gcp:
ORCA: 358  gCP: 357 
If you are NOT using ECPs, check your basis set inputs!
 ** NOTE ** -> element ir will be treated as co
NOTIFICATION: Different basis set in ORCA and otool_gcp:
ORCA: 358  gCP: 357 
If you are NOT using ECPs, check your basis set inputs!
    3     -1288.398479    2.483710    0.023592  0.004884
 ** NOTE ** -> element ir will be treated as co
NOTIFICATION: Different basis set in ORCA and otool_gcp:
ORCA: 358  gCP: 357 
If you are NOT using ECPs, check your basis set inputs!
 ** NOTE ** -> element ir will be treated as co
NOTIFICATION: Different basis set in ORCA and otool_gcp:
ORCA: 358  gCP: 357 
If you are NOT using ECPs, check your basis set inputs!
 ** NOTE ** -> element ir will be treated as co
NOTIFICATION: Different basis set in ORCA and otool_gcp:
ORCA: 358  gCP: 357 
If you are NOT using ECPs, check your basis set inputs!
 ** NOTE ** -> element ir will be treated as co
NOTIFICATION: Different basis set in ORCA and otool_gcp:
ORCA: 358  gCP: 357 
If you are NOT using ECPs, check your basis set inputs!
    4     -1288.402676   -0.150250    0.007151  0.001600
 ** NOTE ** -> element ir will be treated as co
NOTIFICATION: Different basis set in ORCA and otool_gcp:
ORCA: 358  gCP: 357 
If you are NOT using ECPs, check your basis set inputs!
 ** NOTE ** -> element ir will be treated as co
NOTIFICATION: Different basis set in ORCA and otool_gcp:
ORCA: 358  gCP: 357 
If you are NOT using ECPs, check your basis set inputs!
 ** NOTE ** -> element ir will be treated as co
NOTIFICATION: Different basis set in ORCA and otool_gcp:
ORCA: 358  gCP: 357 
If you are NOT using ECPs, check your basis set inputs!
 ** NOTE ** -> element ir will be treated as co
NOTIFICATION: Different basis set in ORCA and otool_gcp:
ORCA: 358  gCP: 357 
If you are NOT using ECPs, check your basis set inputs!
 ** NOTE ** -> element ir will be treated as co
NOTIFICATION: Different basis set in ORCA and otool_gcp:
ORCA: 358  gCP: 357 
If you are NOT using ECPs, check your basis set inputs!
 ** NOTE ** -> element ir will be treated as co
NOTIFICATION: Different basis set in ORCA and otool_gcp:
ORCA: 358  gCP: 357 
If you are NOT using ECPs, check your basis set inputs!
    5     -1288.403017   -0.363905    0.006970  0.001277
 ** NOTE ** -> element ir will be treated as co
NOTIFICATION: Different basis set in ORCA and otool_gcp:
ORCA: 358  gCP: 357 
If you are NOT using ECPs, check your basis set inputs!
 ** NOTE ** -> element ir will be treated as co
NOTIFICATION: Different basis set in ORCA and otool_gcp:
ORCA: 358  gCP: 357 
If you are NOT using ECPs, check your basis set inputs!
 ** NOTE ** -> element ir will be treated as co
NOTIFICATION: Different basis set in ORCA and otool_gcp:
ORCA: 358  gCP: 357 
If you are NOT using ECPs, check your basis set inputs!
 ** NOTE ** -> element ir will be treated as co
NOTIFICATION: Different basis set in ORCA and otool_gcp:
ORCA: 358  gCP: 357 
If you are NOT using ECPs, check your basis set inputs!
 ** NOTE ** -> element ir will be treated as co
NOTIFICATION: Different basis set in ORCA and otool_gcp:
ORCA: 358  gCP: 357 
If you are NOT using ECPs, check your basis set inputs!
 ** NOTE ** -> element ir will be treated as co
NOTIFICATION: Different basis set in ORCA and otool_gcp:
ORCA: 358  gCP: 357 
If you are NOT using ECPs, check your basis set inputs!
    6     -1288.403172   -0.461402    0.004321  0.000930
 ** NOTE ** -> element ir will be treated as co
NOTIFICATION: Different basis set in ORCA and otool_gcp:
ORCA: 358  gCP: 357 
If you are NOT using ECPs, check your basis set inputs!
 ** NOTE ** -> element ir will be treated as co
NOTIFICATION: Different basis set in ORCA and otool_gcp:
ORCA: 358  gCP: 357 
If you are NOT using ECPs, check your basis set inputs!
 ** NOTE ** -> element ir will be treated as co
NOTIFICATION: Different basis set in ORCA and otool_gcp:
ORCA: 358  gCP: 357 
If you are NOT using ECPs, check your basis set inputs!
 ** NOTE ** -> element ir will be treated as co
NOTIFICATION: Different basis set in ORCA and otool_gcp:
ORCA: 358  gCP: 357 
If you are NOT using ECPs, check your basis set inputs!
    7     -1288.403409   -0.610065    0.002593  0.000537
 ** NOTE ** -> element ir will be treated as co
NOTIFICATION: Different basis set in ORCA and otool_gcp:
ORCA: 358  gCP: 357 
If you are NOT using ECPs, check your basis set inputs!
 ** NOTE ** -> element ir will be treated as co
NOTIFICATION: Different basis set in ORCA and otool_gcp:
ORCA: 358  gCP: 357 
If you are NOT using ECPs, check your basis set inputs!
 ** NOTE ** -> element ir will be treated as co
NOTIFICATION: Different basis set in ORCA and otool_gcp:
ORCA: 358  gCP: 357 
If you are NOT using ECPs, check your basis set inputs!
 ** NOTE ** -> element ir will be treated as co
NOTIFICATION: Different basis set in ORCA and otool_gcp:
ORCA: 358  gCP: 357 
If you are NOT using ECPs, check your basis set inputs!
    8     -1288.403590   -0.723847    0.002800  0.000409
 ** NOTE ** -> element ir will be treated as co
NOTIFICATION: Different basis set in ORCA and otool_gcp:
ORCA: 358  gCP: 357 
If you are NOT using ECPs, check your basis set inputs!
 ** NOTE ** -> element ir will be treated as co
NOTIFICATION: Different basis set in ORCA and otool_gcp:
ORCA: 358  gCP: 357 
If you are NOT using ECPs, check your basis set inputs!
 ** NOTE ** -> element ir will be treated as co
NOTIFICATION: Different basis set in ORCA and otool_gcp:
ORCA: 358  gCP: 357 
If you are NOT using ECPs, check your basis set inputs!
 ** NOTE ** -> element ir will be treated as co
NOTIFICATION: Different basis set in ORCA and otool_gcp:
ORCA: 358  gCP: 357 
If you are NOT using ECPs, check your basis set inputs!
    9     -1288.403735   -0.814630    0.002312  0.000347
 ** NOTE ** -> element ir will be treated as co
NOTIFICATION: Different basis set in ORCA and otool_gcp:
ORCA: 358  gCP: 357 
If you are NOT using ECPs, check your basis set inputs!
 ** NOTE ** -> element ir will be treated as co
NOTIFICATION: Different basis set in ORCA and otool_gcp:
ORCA: 358  gCP: 357 
If you are NOT using ECPs, check your basis set inputs!
 ** NOTE ** -> element ir will be treated as co
NOTIFICATION: Different basis set in ORCA and otool_gcp:
ORCA: 358  gCP: 357 
If you are NOT using ECPs, check your basis set inputs!
 ** NOTE ** -> element ir will be treated as co
NOTIFICATION: Different basis set in ORCA and otool_gcp:
ORCA: 358  gCP: 357 
If you are NOT using ECPs, check your basis set inputs!
   10     -1288.403858   -0.891527    0.002095  0.000343
 ** NOTE ** -> element ir will be treated as co
NOTIFICATION: Different basis set in ORCA and otool_gcp:
ORCA: 358  gCP: 357 
If you are NOT using ECPs, check your basis set inputs!
 ** NOTE ** -> element ir will be treated as co
NOTIFICATION: Different basis set in ORCA and otool_gcp:
ORCA: 358  gCP: 357 
If you are NOT using ECPs, check your basis set inputs!
 ** NOTE ** -> element ir will be treated as co
NOTIFICATION: Different basis set in ORCA and otool_gcp:
ORCA: 358  gCP: 357 
If you are NOT using ECPs, check your basis set inputs!
 ** NOTE ** -> element ir will be treated as co
NOTIFICATION: Different basis set in ORCA and otool_gcp:
ORCA: 358  gCP: 357 
If you are NOT using ECPs, check your basis set inputs!
 ** NOTE ** -> element ir will be treated as co
NOTIFICATION: Different basis set in ORCA and otool_gcp:
ORCA: 358  gCP: 357 
If you are NOT using ECPs, check your basis set inputs!
 ** NOTE ** -> element ir will be treated as co
NOTIFICATION: Different basis set in ORCA and otool_gcp:
ORCA: 358  gCP: 357 
If you are NOT using ECPs, check your basis set inputs!
   11     -1288.403893   -0.913929    0.002048  0.000393
 ** NOTE ** -> element ir will be treated as co
NOTIFICATION: Different basis set in ORCA and otool_gcp:
ORCA: 358  gCP: 357 
If you are NOT using ECPs, check your basis set inputs!
 ** NOTE ** -> element ir will be treated as co
NOTIFICATION: Different basis set in ORCA and otool_gcp:
ORCA: 358  gCP: 357 
If you are NOT using ECPs, check your basis set inputs!
 ** NOTE ** -> element ir will be treated as co
NOTIFICATION: Different basis set in ORCA and otool_gcp:
ORCA: 358  gCP: 357 
If you are NOT using ECPs, check your basis set inputs!
 ** NOTE ** -> element ir will be treated as co
NOTIFICATION: Different basis set in ORCA and otool_gcp:
ORCA: 358  gCP: 357 
If you are NOT using ECPs, check your basis set inputs!
 ** NOTE ** -> element ir will be treated as co
NOTIFICATION: Different basis set in ORCA and otool_gcp:
ORCA: 358  gCP: 357 
If you are NOT using ECPs, check your basis set inputs!
 ** NOTE ** -> element ir will be treated as co
NOTIFICATION: Different basis set in ORCA and otool_gcp:
ORCA: 358  gCP: 357 
If you are NOT using ECPs, check your basis set inputs!
   12     -1288.403909   -0.924092    0.002027  0.000307
 ** NOTE ** -> element ir will be treated as co
NOTIFICATION: Different basis set in ORCA and otool_gcp:
ORCA: 358  gCP: 357 
If you are NOT using ECPs, check your basis set inputs!
 ** NOTE ** -> element ir will be treated as co
NOTIFICATION: Different basis set in ORCA and otool_gcp:
ORCA: 358  gCP: 357 
If you are NOT using ECPs, check your basis set inputs!
 ** NOTE ** -> element ir will be treated as co
NOTIFICATION: Different basis set in ORCA and otool_gcp:
ORCA: 358  gCP: 357 
If you are NOT using ECPs, check your basis set inputs!
 ** NOTE ** -> element ir will be treated as co
NOTIFICATION: Different basis set in ORCA and otool_gcp:
ORCA: 358  gCP: 357 
If you are NOT using ECPs, check your basis set inputs!
   13     -1288.403937   -0.941581    0.001986  0.000286

                      ***********************HURRAY********************
                      ***            THE IRC HAS CONVERGED          ***
                      *************************************************


---------------------------------------------------------------
                       IRC PATH SUMMARY              
---------------------------------------------------------------
All gradients are in Eh/Bohr.

Step        E(Eh)      dE(kcal/mol)  max(|G|)   RMS(G) 
   1     -1288.403937   -0.941581    0.001986  0.000286
   2     -1288.403909   -0.924092    0.002027  0.000307
   3     -1288.403893   -0.913929    0.002048  0.000393
   4     -1288.403858   -0.891527    0.002095  0.000343
   5     -1288.403735   -0.814630    0.002312  0.000347
   6     -1288.403590   -0.723847    0.002800  0.000409
   7     -1288.403409   -0.610065    0.002593  0.000537
   8     -1288.403172   -0.461402    0.004321  0.000930
   9     -1288.403017   -0.363905    0.006970  0.001277
  10     -1288.402676   -0.150250    0.007151  0.001600
  11     -1288.398479    2.483710    0.023592  0.004884
  12     -1288.386872    9.766948    0.055328  0.009590
  13     -1288.366749   22.394473    0.123149  0.016326
  14     -1288.335153   42.220922    0.168283  0.022276
  15     -1288.402437    0.000000    0.000044  0.000022 <= TS
  16     -1288.336235   41.542055    0.150118  0.021978
  17     -1288.367409   21.980452    0.106517  0.016148
  18     -1288.387394    9.439539    0.043532  0.009482
  19     -1288.398793    2.286693    0.024912  0.004809
  20     -1288.402844   -0.255718    0.008042  0.001605
  21     -1288.403236   -0.501394    0.007940  0.001398
  22     -1288.403387   -0.596178    0.004656  0.001003
  23     -1288.403645   -0.758218    0.003481  0.000633
  24     -1288.403856   -0.890621    0.003653  0.000508
  25     -1288.404024   -0.995683    0.002639  0.000424
  26     -1288.404166   -1.085099    0.002359  0.000394
  27     -1288.404212   -1.113673    0.002690  0.000438
  28     -1288.404231   -1.125900    0.002187  0.000355
  29     -1288.404261   -1.144591    0.001755  0.000323

Timings for individual modules:

Sum of individual times         ...     7577.199 sec (= 126.287 min)
GTO integral calculation        ...      218.154 sec (=   3.636 min)   2.9 %
SCF iterations                  ...     6294.743 sec (= 104.912 min)  83.1 %
SCF Gradient evaluation         ...     1064.301 sec (=  17.738 min)  14.0 %
================================================================================

cite the ECPs for Ir [Def2-ECP] as follows:
Ce-Yb(ecp-28): M. Dolg, H. Stoll, H.Preuss, J. Chem. Phys., 1989, 90, 1730-1734.
Y-Cd(ecp-28), Hf-Hg(ecp-46): D. Andrae,U. Haeussermann, M. Dolg, H. Stoll, H. Preuss, Theor. Chim. Acta, 1990, 77, 123-141.
In-Sb(ecp-28), Tl-Bi(ecp-46): B. Metz, H. Stoll, M. Dolg, J. Chem. Phys., 2000, 113, 2563-2569.
Te-Xe(ecp-28), Po-Rn(ecp-46): K. A. Peterson, D. Figgen, E. Goll, H. Stoll, M. Dolg, J. Chem. Phys., 2003, 119, 11113-11123.
Rb(ecp-28), Cs(ecp-46): T. Leininger, A. Nicklass, W. Kuechle, H. Stoll, M. Dolg, A. Bergner, Chem. Phys. Lett., 1996, 255, 274-280.
Sr(ecp-28), Ba(ecp-46): M. Kaupp, P. V. Schleyer, H. Stoll and H. Preuss, J. Chem. Phys., 1991, 94, 1360-1366.
La(ecp-46): M. Dolg, H. Stoll, A. Savin, H. Preuss, Theor. Chim. Acta, 1989, 75, 173-194.
Lu(ecp-28): X. Cao, M. Dolg, J. Chem. Phys., 2001, 115, 7348-7355.

ECP parameters for Ir [Def2-ECP] have been obtained from:
TURBOMOLE (7.0.2)

----- Orbital basis set information -----
Your calculation utilizes the basis: def2-SVP
   F. Weigend and R. Ahlrichs, Phys. Chem. Chem. Phys. 7, 3297 (2005).

                             ****ORCA TERMINATED NORMALLY****
TOTAL RUN TIME: 0 days 4 hours 8 minutes 45 seconds 423 msec
