
                                 *****************
                                 * O   R   C   A *
                                 *****************

                                            #,                                       
                                            ###                                      
                                            ####                                     
                                            #####                                    
                                            ######                                   
                                           ########,                                 
                                     ,,################,,,,,                         
                               ,,#################################,,                 
                          ,,##########################################,,             
                       ,#########################################, ''#####,          
                    ,#############################################,,   '####,        
                  ,##################################################,,,,####,       
                ,###########''''           ''''###############################       
              ,#####''   ,,,,##########,,,,          '''####'''          '####       
            ,##' ,,,,###########################,,,                        '##       
           ' ,,###''''                  '''############,,,                           
         ,,##''                                '''############,,,,        ,,,,,,###''
      ,#''                                            '''#######################'''  
     '                                                          ''''####''''         
             ,#######,   #######,   ,#######,      ##                                
            ,#'     '#,  ##    ##  ,#'     '#,    #''#        ######   ,####,        
            ##       ##  ##   ,#'  ##            #'  '#       #        #'  '#        
            ##       ##  #######   ##           ,######,      #####,   #    #        
            '#,     ,#'  ##    ##  '#,     ,#' ,#      #,         ##   #,  ,#        
             '#######'   ##     ##  '#######'  #'      '#     #####' # '####'        



                  #######################################################
                  #                        -***-                        #
                  #          Department of theory and spectroscopy      #
                  #    Directorship and core code : Frank Neese         #
                  #        Max Planck Institute fuer Kohlenforschung    #
                  #                Kaiser Wilhelm Platz 1               #
                  #                 D-45470 Muelheim/Ruhr               #
                  #                      Germany                        #
                  #                                                     #
                  #                  All rights reserved                #
                  #                        -***-                        #
                  #######################################################


                         Program Version 5.0.4 -  RELEASE  -


 With contributions from (in alphabetic order):
   Daniel Aravena         : Magnetic Suceptibility
   Michael Atanasov       : Ab Initio Ligand Field Theory (pilot matlab implementation)
   Alexander A. Auer      : GIAO ZORA, VPT2 properties, NMR spectrum
   Ute Becker             : Parallelization
   Giovanni Bistoni       : ED, misc. LED, open-shell LED, HFLD
   Martin Brehm           : Molecular dynamics
   Dmytro Bykov           : SCF Hessian
   Vijay G. Chilkuri      : MRCI spin determinant printing, contributions to CSF-ICE
   Dipayan Datta          : RHF DLPNO-CCSD density
   Achintya Kumar Dutta   : EOM-CC, STEOM-CC
   Dmitry Ganyushin       : Spin-Orbit,Spin-Spin,Magnetic field MRCI
   Miquel Garcia          : C-PCM and meta-GGA Hessian, CC/C-PCM, Gaussian charge scheme
   Yang Guo               : DLPNO-NEVPT2, F12-NEVPT2, CIM, IAO-localization
   Andreas Hansen         : Spin unrestricted coupled pair/coupled cluster methods
   Benjamin Helmich-Paris : MC-RPA, TRAH-SCF, COSX integrals
   Lee Huntington         : MR-EOM, pCC
   Robert Izsak           : Overlap fitted RIJCOSX, COSX-SCS-MP3, EOM
   Marcus Kettner         : VPT2
   Christian Kollmar      : KDIIS, OOCD, Brueckner-CCSD(T), CCSD density, CASPT2, CASPT2-K
   Simone Kossmann        : Meta GGA functionals, TD-DFT gradient, OOMP2, MP2 Hessian
   Martin Krupicka        : Initial AUTO-CI
   Lucas Lang             : DCDCAS
   Marvin Lechner         : AUTO-CI (C++ implementation), FIC-MRCC
   Dagmar Lenk            : GEPOL surface, SMD
   Dimitrios Liakos       : Extrapolation schemes; Compound Job, initial MDCI parallelization
   Dimitrios Manganas     : Further ROCIS development; embedding schemes
   Dimitrios Pantazis     : SARC Basis sets
   Anastasios Papadopoulos: AUTO-CI, single reference methods and gradients
   Taras Petrenko         : DFT Hessian,TD-DFT gradient, ASA, ECA, R-Raman, ABS, FL, XAS/XES, NRVS
   Peter Pinski           : DLPNO-MP2, DLPNO-MP2 Gradient
   Christoph Reimann      : Effective Core Potentials
   Marius Retegan         : Local ZFS, SOC
   Christoph Riplinger    : Optimizer, TS searches, QM/MM, DLPNO-CCSD(T), (RO)-DLPNO pert. Triples
   Tobias Risthaus        : Range-separated hybrids, TD-DFT gradient, RPA, STAB
   Michael Roemelt        : Original ROCIS implementation
   Masaaki Saitow         : Open-shell DLPNO-CCSD energy and density
   Barbara Sandhoefer     : DKH picture change effects
   Avijit Sen             : IP-ROCIS
   Kantharuban Sivalingam : CASSCF convergence, NEVPT2, FIC-MRCI
   Bernardo de Souza      : ESD, SOC TD-DFT
   Georgi Stoychev        : AutoAux, RI-MP2 NMR, DLPNO-MP2 response
   Willem Van den Heuvel  : Paramagnetic NMR
   Boris Wezisla          : Elementary symmetry handling
   Frank Wennmohs         : Technical directorship


 We gratefully acknowledge several colleagues who have allowed us to
 interface, adapt or use parts of their codes:
   Stefan Grimme, W. Hujo, H. Kruse, P. Pracht,  : VdW corrections, initial TS optimization,
                  C. Bannwarth, S. Ehlert          DFT functionals, gCP, sTDA/sTD-DF
   Ed Valeev, F. Pavosevic, A. Kumar             : LibInt (2-el integral package), F12 methods
   Garnet Chan, S. Sharma, J. Yang, R. Olivares  : DMRG
   Ulf Ekstrom                                   : XCFun DFT Library
   Mihaly Kallay                                 : mrcc  (arbitrary order and MRCC methods)
   Jiri Pittner, Ondrej Demel                    : Mk-CCSD
   Frank Weinhold                                : gennbo (NPA and NBO analysis)
   Christopher J. Cramer and Donald G. Truhlar   : smd solvation model
   Lars Goerigk                                  : TD-DFT with DH, B97 family of functionals
   V. Asgeirsson, H. Jonsson                     : NEB implementation
   FAccTs GmbH                                   : IRC, NEB, NEB-TS, DLPNO-Multilevel, CI-OPT
                                                   MM, QMMM, 2- and 3-layer-ONIOM, Crystal-QMMM,
                                                   LR-CPCM, SF, NACMEs, symmetry and pop. for TD-DFT,
                                                   nearIR, NL-DFT gradient (VV10), updates on ESD,
                                                   ML-optimized integration grids
   S Lehtola, MJT Oliveira, MAL Marques          : LibXC Library
   Liviu Ungur et al                             : ANISO software


 Your calculation uses the libint2 library for the computation of 2-el integrals
 For citations please refer to: http://libint.valeyev.net

 Your ORCA version has been built with support for libXC version: 5.1.0
 For citations please refer to: https://tddft.org/programs/libxc/

 This ORCA versions uses:
   CBLAS   interface :  Fast vector & matrix operations
   LAPACKE interface :  Fast linear algebra routines
   SCALAPACK package :  Parallel linear algebra routines
   Shared memory     :  Shared parallel matrices
   BLAS/LAPACK       :  OpenBLAS 0.3.15  USE64BITINT DYNAMIC_ARCH NO_AFFINITY SkylakeX SINGLE_THREADED
        Core in use  :  SkylakeX
   Copyright (c) 2011-2014, The OpenBLAS Project




***************************************
The coordinates will be read from file: DHSGS_ts_guess.xyz
***************************************




################################################################################


                                COMPOUND JOB MainJOB 
Basename: reaction-4-dhsgs_optts_Compound_0

################################################################################

================================================================================
                                       INPUT FILE
================================================================================
NAME = reaction-4-dhsgs_optts_Compound_0.inp
|  1> %pal nprocs 8 end 
|  2>   
|  3>  *xyzfile 1 1 DHSGS_ts_guess.xyz 
|  4>   
|  5> 
|  6>                          ****END OF INPUT****
================================================================================


***************************************
The coordinates will be read from file: DHSGS_ts_guess.xyz
***************************************


================================================================================

cite the ECPs for Ir [Def2-ECP] as follows:
Ce-Yb(ecp-28): M. Dolg, H. Stoll, H.Preuss, J. Chem. Phys., 1989, 90, 1730-1734.
Y-Cd(ecp-28), Hf-Hg(ecp-46): D. Andrae,U. Haeussermann, M. Dolg, H. Stoll, H. Preuss, Theor. Chim. Acta, 1990, 77, 123-141.
In-Sb(ecp-28), Tl-Bi(ecp-46): B. Metz, H. Stoll, M. Dolg, J. Chem. Phys., 2000, 113, 2563-2569.
Te-Xe(ecp-28), Po-Rn(ecp-46): K. A. Peterson, D. Figgen, E. Goll, H. Stoll, M. Dolg, J. Chem. Phys., 2003, 119, 11113-11123.
Rb(ecp-28), Cs(ecp-46): T. Leininger, A. Nicklass, W. Kuechle, H. Stoll, M. Dolg, A. Bergner, Chem. Phys. Lett., 1996, 255, 274-280.
Sr(ecp-28), Ba(ecp-46): M. Kaupp, P. V. Schleyer, H. Stoll and H. Preuss, J. Chem. Phys., 1991, 94, 1360-1366.
La(ecp-46): M. Dolg, H. Stoll, A. Savin, H. Preuss, Theor. Chim. Acta, 1989, 75, 173-194.
Lu(ecp-28): X. Cao, M. Dolg, J. Chem. Phys., 2001, 115, 7348-7355.

ECP parameters for Ir [Def2-ECP] have been obtained from:
TURBOMOLE (7.0.2)

----- Orbital basis set information -----
Your calculation utilizes the basis: def2-SVP
   F. Weigend and R. Ahlrichs, Phys. Chem. Chem. Phys. 7, 3297 (2005).



################################################################################


                                COMPOUND JOB  1 
Basename: reaction-4-dhsgs_optts_Compound_1
NOTE: please remember that MaxCore and PAL settings will be ignored.

################################################################################

================================================================================
                                       INPUT FILE
================================================================================
NAME = reaction-4-dhsgs_optts_Compound_1.inp
|  1>   
|  2>    
|  3>   ! PBEh-3c OptTS Freq pal8 
|  4>    
|  5>   %geom 
|  6>    calc_hess true 
|  7>    recalc_hess 20 
|  8>    maxiter 600 
|  9>   end  
| 10>    
| 11> 
| 12>                          ****END OF INPUT****
================================================================================
Your calculation utilizes the geometrical counterpoise correction gCP
Please cite in your paper:
H.Kruse, S. Grimme J.Chem.Phys., 136, (2012), 154101 
   

Your calculation utilizes the atom-pairwise dispersion correction
with the Becke-Johnson damping scheme (D3BJ)
Cite in your paper:
S.Grimme, S.Ehrlich, L.Goerigk, J Comput Chem, (2011), 32, 1456–1465 
S.Grimme, J.Antony, S.Ehrlich and H.Krieg, J.Chem.Phys., 132, (2010), 154104 
   

Your calculation employs the composite approach PBEh-3c.
Please cite in your paper:
S. Grimme, J. G. Brandenburg, C. Bannwarth, A. Hansen J.Chem.Phys., 143, (2015), 054107 
   

================================================================================

cite the ECPs for Ir [Def2-ECP] as follows:
Ce-Yb(ecp-28): M. Dolg, H. Stoll, H.Preuss, J. Chem. Phys., 1989, 90, 1730-1734.
Y-Cd(ecp-28), Hf-Hg(ecp-46): D. Andrae,U. Haeussermann, M. Dolg, H. Stoll, H. Preuss, Theor. Chim. Acta, 1990, 77, 123-141.
In-Sb(ecp-28), Tl-Bi(ecp-46): B. Metz, H. Stoll, M. Dolg, J. Chem. Phys., 2000, 113, 2563-2569.
Te-Xe(ecp-28), Po-Rn(ecp-46): K. A. Peterson, D. Figgen, E. Goll, H. Stoll, M. Dolg, J. Chem. Phys., 2003, 119, 11113-11123.
Rb(ecp-28), Cs(ecp-46): T. Leininger, A. Nicklass, W. Kuechle, H. Stoll, M. Dolg, A. Bergner, Chem. Phys. Lett., 1996, 255, 274-280.
Sr(ecp-28), Ba(ecp-46): M. Kaupp, P. V. Schleyer, H. Stoll and H. Preuss, J. Chem. Phys., 1991, 94, 1360-1366.
La(ecp-46): M. Dolg, H. Stoll, A. Savin, H. Preuss, Theor. Chim. Acta, 1989, 75, 173-194.
Lu(ecp-28): X. Cao, M. Dolg, J. Chem. Phys., 2001, 115, 7348-7355.

ECP parameters for Ir [Def2-ECP] have been obtained from:
TURBOMOLE (7.0.2)

----- Orbital basis set information -----
Your calculation utilizes the basis: def2-mSVP

----- AuxJ basis set information -----
Your calculation utilizes the auxiliary basis: def2/J
   F. Weigend, Phys. Chem. Chem. Phys. 8, 1057 (2006).

================================================================================
                                        WARNINGS
                       Please study these warnings very carefully!
================================================================================


WARNING: Geometry Optimization
  ===> : Switching off AutoStart
         For restart on a previous wavefunction, please use MOREAD

WARNING: No Hueckel Guess possible with ECP basis!
  ===> : Switching to HCORE guess!

INFO   : the flag for use of the SHARK integral package has been found!


                       *****************************
                       * Geometry Optimization Run *
                       *****************************

Geometry optimization settings:
Update method            Update   .... Bofill
Choice of coordinates    CoordSys .... Z-matrix Internals
Initial Hessian          InHess   .... Almoef's Model

Convergence Tolerances:
Energy Change            TolE     ....  5.0000e-06 Eh
Max. Gradient            TolMAXG  ....  3.0000e-04 Eh/bohr
RMS Gradient             TolRMSG  ....  1.0000e-04 Eh/bohr
Max. Displacement        TolMAXD  ....  4.0000e-03 bohr
RMS Displacement         TolRMSD  ....  2.0000e-03 bohr
Strict Convergence                ....  False
------------------------------------------------------------------------------
                        ORCA OPTIMIZATION COORDINATE SETUP
------------------------------------------------------------------------------

The optimization will be done in new redundant internal coordinates
Making redundant internal coordinates   ...  (new redundants) done
Following TS mode number                ...     0
Evaluating the initial hessian          ...  (Is done on the fly) done
Evaluating the coordinates              ...  done
Calculating the B-matrix                .... done
Calculating the G-matrix                .... done
Diagonalizing the G-matrix              .... done
Small eigenvalue found = 3.134e-03
Small eigenvalue found = 7.019e-03
Small eigenvalue found = 1.540e-02
Small eigenvalue found = 1.905e-02
Small eigenvalue found = 2.645e-02
The first mode is                       ....  225
The number of degrees of freedom        ....  111

    -----------------------------------------------------------------
                    Redundant Internal Coordinates


    -----------------------------------------------------------------
         Definition                    Initial Value    d2E/dq (diagonal element)
    -----------------------------------------------------------------
      1. B(C   1,Ir  0)                  2.1215         0.000000   
      2. B(C   2,C   1)                  1.4361         0.000000   
      3. B(C   2,Ir  0)                  2.1871         0.000000   
      4. B(C   3,Ir  0)                  2.1544         0.000000   
      5. B(C   4,C   1)                  1.4389         0.000000   
      6. B(C   4,C   3)                  1.4096         0.000000   
      7. B(C   4,Ir  0)                  2.1445         0.000000   
      8. B(C   5,C   3)                  1.4472         0.000000   
      9. B(C   5,Ir  0)                  2.1789         0.000000   
     10. B(C   5,C   2)                  1.4022         0.000000   
     11. B(N   6,Ir  0)                  2.0782         0.000000   
     12. B(C   7,N   6)                  1.4749         0.000000   
     13. B(C   8,C   7)                  1.5230         0.000000   
     14. B(H   9,C   8)                  1.0886         0.000000   
     15. B(H  10,C   8)                  1.0910         0.000000   
     16. B(H  11,C   8)                  1.0889         0.000000   
     17. B(C  12,C   7)                  1.5229         0.000000   
     18. B(H  13,C   7)                  1.0884         0.000000   
     19. B(H  14,C  12)                  1.0880         0.000000   
     20. B(H  15,C  12)                  1.0912         0.000000   
     21. B(H  16,C  12)                  1.0902         0.000000   
     22. B(C  17,N   6)                  1.2793         0.000000   
     23. B(C  18,C  17)                  1.4239         0.000000   
     24. B(H  19,C  17)                  1.0871         0.000000   
     25. B(C  20,C  18)                  1.3918         0.000000   
     26. B(C  21,C  20)                  1.4298         0.000000   
     27. B(S  22,C  18)                  1.7059         0.000000   
     28. B(C  23,S  22)                  1.7018         0.000000   
     29. B(C  23,C  21)                  1.3660         0.000000   
     30. B(H  24,C  20)                  1.2070         0.000000   
     31. B(H  25,C  21)                  1.0788         0.000000   
     32. B(H  26,C  23)                  1.0802         0.000000   
     33. B(H  27,C   1)                  1.0807         0.000000   
     34. B(H  28,C   2)                  1.0804         0.000000   
     35. B(H  29,C   5)                  1.0804         0.000000   
     36. B(O  31,Ir  0)                  2.0547         0.000000   
     37. B(C  32,O  31)                  1.2889         0.000000   
     38. B(C  32,O  30)                  1.2299         0.000000   
     39. B(C  33,C  32)                  1.5016         0.000000   
     40. B(H  34,C  33)                  1.0879         0.000000   
     41. B(H  35,C  33)                  1.0909         0.000000   
     42. B(H  36,C  33)                  1.0859         0.000000   
     43. B(H  37,C   3)                  1.0784         0.000000   
     44. B(H  38,C   4)                  1.0804         0.000000   
     45. A(C   2,Ir  0,N   6)          152.0896         0.000000   
     46. A(C   1,Ir  0,C   2)           38.9019         0.000000   
     47. A(C   3,Ir  0,C   5)           39.0149         0.000000   
     48. A(C   4,Ir  0,O  31)          139.4522         0.000000   
     49. A(C   1,Ir  0,C   4)           39.4206         0.000000   
     50. A(C   2,Ir  0,C   4)           64.5526         0.000000   
     51. A(C   2,Ir  0,O  31)           95.9039         0.000000   
     52. A(N   6,Ir  0,O  31)           80.6358         0.000000   
     53. A(C   2,Ir  0,C   5)           37.4674         0.000000   
     54. A(C   2,Ir  0,C   3)           64.2513         0.000000   
     55. A(C   1,Ir  0,O  31)          103.0000         0.000000   
     56. A(C   1,Ir  0,C   5)           64.7360         0.000000   
     57. A(C   4,Ir  0,N   6)          100.3288         0.000000   
     58. A(C   5,Ir  0,O  31)          121.4219         0.000000   
     59. A(C   3,Ir  0,O  31)          159.4793         0.000000   
     60. A(C   1,Ir  0,N   6)          114.5635         0.000000   
     61. A(C   3,Ir  0,N   6)          119.2281         0.000000   
     62. A(C   5,Ir  0,N   6)          157.9056         0.000000   
     63. A(C   1,Ir  0,C   3)           65.3982         0.000000   
     64. A(C   4,Ir  0,C   5)           64.4653         0.000000   
     65. A(C   3,Ir  0,C   4)           38.2818         0.000000   
     66. A(C   2,C   1,H  27)          125.6786         0.000000   
     67. A(C   4,C   1,H  27)          126.6462         0.000000   
     68. A(Ir  0,C   1,C   4)           71.1535         0.000000   
     69. A(C   2,C   1,C   4)          107.1511         0.000000   
     70. A(Ir  0,C   1,H  27)          127.5947         0.000000   
     71. A(Ir  0,C   1,C   2)           73.0160         0.000000   
     72. A(Ir  0,C   2,C   1)           68.0821         0.000000   
     73. A(C   1,C   2,C   5)          108.4425         0.000000   
     74. A(Ir  0,C   2,C   5)           70.9513         0.000000   
     75. A(C   5,C   2,H  28)          126.0425         0.000000   
     76. A(C   1,C   2,H  28)          125.4431         0.000000   
     77. A(Ir  0,C   2,H  28)          124.3485         0.000000   
     78. A(C   5,C   3,H  37)          125.8907         0.000000   
     79. A(Ir  0,C   3,C   4)           70.4792         0.000000   
     80. A(C   4,C   3,H  37)          126.4618         0.000000   
     81. A(C   4,C   3,C   5)          107.6450         0.000000   
     82. A(Ir  0,C   3,H  37)          124.0240         0.000000   
     83. A(Ir  0,C   3,C   5)           71.4060         0.000000   
     84. A(C   1,C   4,C   3)          108.3792         0.000000   
     85. A(Ir  0,C   4,C   3)           71.2391         0.000000   
     86. A(C   3,C   4,H  38)          126.3602         0.000000   
     87. A(C   1,C   4,H  38)          125.1748         0.000000   
     88. A(Ir  0,C   4,H  38)          122.4860         0.000000   
     89. A(Ir  0,C   4,C   1)           69.4259         0.000000   
     90. A(Ir  0,C   5,C   2)           71.5812         0.000000   
     91. A(C   2,C   5,C   3)          108.2370         0.000000   
     92. A(Ir  0,C   5,C   3)           69.5790         0.000000   
     93. A(C   2,C   5,H  29)          125.4023         0.000000   
     94. A(C   3,C   5,H  29)          126.3578         0.000000   
     95. A(Ir  0,C   5,H  29)          124.0906         0.000000   
     96. A(Ir  0,N   6,C   7)          123.1402         0.000000   
     97. A(C   7,N   6,C  17)          118.8898         0.000000   
     98. A(Ir  0,N   6,C  17)          117.9684         0.000000   
     99. A(C  12,C   7,H  13)          109.0734         0.000000   
    100. A(C   8,C   7,H  13)          108.3505         0.000000   
    101. A(N   6,C   7,H  13)          105.9419         0.000000   
    102. A(C   8,C   7,C  12)          112.8084         0.000000   
    103. A(N   6,C   7,C  12)          109.1683         0.000000   
    104. A(N   6,C   7,C   8)          111.2446         0.000000   
    105. A(H  10,C   8,H  11)          108.3696         0.000000   
    106. A(H   9,C   8,H  11)          107.8545         0.000000   
    107. A(C   7,C   8,H  11)          111.2900         0.000000   
    108. A(H   9,C   8,H  10)          107.0045         0.000000   
    109. A(C   7,C   8,H  10)          112.3471         0.000000   
    110. A(C   7,C   8,H   9)          109.7837         0.000000   
    111. A(H  15,C  12,H  16)          107.9612         0.000000   
    112. A(H  14,C  12,H  16)          107.9552         0.000000   
    113. A(C   7,C  12,H  16)          111.4898         0.000000   
    114. A(H  14,C  12,H  15)          107.3805         0.000000   
    115. A(C   7,C  12,H  15)          111.6946         0.000000   
    116. A(C   7,C  12,H  14)          110.1892         0.000000   
    117. A(C  18,C  17,H  19)          120.6399         0.000000   
    118. A(N   6,C  17,H  19)          121.1565         0.000000   
    119. A(N   6,C  17,C  18)          118.2035         0.000000   
    120. A(C  20,C  18,S  22)          114.1241         0.000000   
    121. A(C  17,C  18,S  22)          122.9552         0.000000   
    122. A(C  17,C  18,C  20)          122.6672         0.000000   
    123. A(C  21,C  20,H  24)          118.2678         0.000000   
    124. A(C  18,C  20,H  24)          123.6943         0.000000   
    125. A(C  18,C  20,C  21)          108.8010         0.000000   
    126. A(C  20,C  21,C  23)          113.6133         0.000000   
    127. A(C  23,C  21,H  25)          120.9153         0.000000   
    128. A(C  20,C  21,H  25)          125.3289         0.000000   
    129. A(C  18,S  22,C  23)           90.8359         0.000000   
    130. A(C  21,C  23,S  22)          112.5703         0.000000   
    131. A(S  22,C  23,H  26)          119.3780         0.000000   
    132. A(C  21,C  23,H  26)          128.0437         0.000000   
    133. A(Ir  0,O  31,C  32)          117.4404         0.000000   
    134. A(O  31,C  32,C  33)          117.2419         0.000000   
    135. A(O  30,C  32,C  33)          119.4580         0.000000   
    136. A(O  30,C  32,O  31)          123.3001         0.000000   
    137. A(H  35,C  33,H  36)          108.5489         0.000000   
    138. A(H  34,C  33,H  36)          109.9067         0.000000   
    139. A(C  32,C  33,H  36)          113.6785         0.000000   
    140. A(H  34,C  33,H  35)          106.8462         0.000000   
    141. A(C  32,C  33,H  35)          109.3133         0.000000   
    142. A(C  32,C  33,H  34)          108.3266         0.000000   
    143. D(C   4,C   1,Ir  0,N   6)     75.7836         0.000000   
    144. D(C   4,C   1,Ir  0,C   3)    -36.6243         0.000000   
    145. D(C   4,C   1,Ir  0,O  31)    161.3051         0.000000   
    146. D(C   4,C   1,Ir  0,C   5)    -79.8339         0.000000   
    147. D(H  27,C   1,Ir  0,C   5)    157.9470         0.000000   
    148. D(H  27,C   1,Ir  0,C   2)    122.3095         0.000000   
    149. D(C   2,C   1,Ir  0,C   5)     35.6375         0.000000   
    150. D(C   4,C   1,Ir  0,C   2)   -115.4713         0.000000   
    151. D(C   2,C   1,Ir  0,C   4)    115.4713         0.000000   
    152. D(H  27,C   1,Ir  0,O  31)     39.0860         0.000000   
    153. D(H  27,C   1,Ir  0,C   3)   -158.8434         0.000000   
    154. D(C   2,C   1,Ir  0,C   3)     78.8471         0.000000   
    155. D(H  27,C   1,Ir  0,C   4)   -122.2191         0.000000   
    156. D(C   2,C   1,Ir  0,O  31)    -83.2235         0.000000   
    157. D(C   2,C   1,Ir  0,N   6)   -168.7450         0.000000   
    158. D(H  27,C   1,Ir  0,N   6)    -46.4355         0.000000   
    159. D(H  28,C   2,Ir  0,C   5)    121.1969         0.000000   
    160. D(C   5,C   2,Ir  0,C   4)     80.5676         0.000000   
    161. D(H  28,C   2,Ir  0,C   4)   -158.2355         0.000000   
    162. D(C   5,C   2,Ir  0,O  31)   -136.6080         0.000000   
    163. D(H  28,C   2,Ir  0,C   3)    159.1255         0.000000   
    164. D(H  28,C   2,Ir  0,C   1)   -118.8242         0.000000   
    165. D(C   5,C   2,Ir  0,N   6)    142.2646         0.000000   
    166. D(C   1,C   2,Ir  0,C   5)   -119.9789         0.000000   
    167. D(C   1,C   2,Ir  0,C   3)    -82.0502         0.000000   
    168. D(H  28,C   2,C   1,H  27)     -7.0763         0.000000   
    169. D(C   5,C   2,C   1,H  27)    175.8616         0.000000   
    170. D(H  28,C   2,C   1,Ir  0)    117.3950         0.000000   
    171. D(C   1,C   2,Ir  0,C   4)    -39.4113         0.000000   
    172. D(Ir  0,C   2,C   1,H  27)   -124.4713         0.000000   
    173. D(H  28,C   2,Ir  0,N   6)    -96.5385         0.000000   
    174. D(Ir  0,C   2,C   1,C   4)     63.4010         0.000000   
    175. D(H  28,C   2,Ir  0,O  31)    -15.4111         0.000000   
    176. D(C   5,C   2,C   1,Ir  0)    -59.6670         0.000000   
    177. D(C   5,C   2,C   1,C   4)      3.7340         0.000000   
    178. D(C   1,C   2,Ir  0,N   6)     22.2858         0.000000   
    179. D(C   5,C   2,Ir  0,C   1)    119.9789         0.000000   
    180. D(H  28,C   2,C   1,C   4)   -179.2039         0.000000   
    181. D(C   1,C   2,Ir  0,O  31)    103.4131         0.000000   
    182. D(C   5,C   2,Ir  0,C   3)     37.9287         0.000000   
    183. D(H  37,C   3,Ir  0,O  31)   -142.0415         0.000000   
    184. D(H  37,C   3,Ir  0,N   6)     53.5953         0.000000   
    185. D(H  37,C   3,Ir  0,C   2)   -157.7154         0.000000   
    186. D(H  37,C   3,Ir  0,C   5)   -121.2763         0.000000   
    187. D(C   5,C   3,Ir  0,N   6)    174.8716         0.000000   
    188. D(C   5,C   3,Ir  0,C   4)   -117.2959         0.000000   
    189. D(H  37,C   3,Ir  0,C   4)    121.4277         0.000000   
    190. D(C   5,C   3,Ir  0,C   2)    -36.4391         0.000000   
    191. D(C   5,C   3,Ir  0,O  31)    -20.7652         0.000000   
    192. D(H  37,C   3,Ir  0,C   1)    159.1237         0.000000   
    193. D(C   5,C   3,Ir  0,C   1)    -79.6000         0.000000   
    194. D(C   4,C   3,Ir  0,O  31)     96.5307         0.000000   
    195. D(C   4,C   3,Ir  0,N   6)    -67.8325         0.000000   
    196. D(C   4,C   3,Ir  0,C   2)     80.8569         0.000000   
    197. D(C   4,C   3,Ir  0,C   1)     37.6959         0.000000   
    198. D(C   4,C   3,Ir  0,C   5)    117.2959         0.000000   
    199. D(C   3,C   4,Ir  0,C   2)    -80.0007         0.000000   
    200. D(C   3,C   4,Ir  0,C   1)   -118.8934         0.000000   
    201. D(C   1,C   4,Ir  0,O  31)    -28.7129         0.000000   
    202. D(C   1,C   4,Ir  0,N   6)   -116.3409         0.000000   
    203. D(C   1,C   4,Ir  0,C   5)     80.5785         0.000000   
    204. D(H  38,C   4,C   3,H  37)     -1.4160         0.000000   
    205. D(C   1,C   4,Ir  0,C   3)    118.8934         0.000000   
    206. D(H  38,C   4,C   3,Ir  0)    117.0204         0.000000   
    207. D(C   1,C   4,C   3,H  37)   -178.1752         0.000000   
    208. D(C   1,C   4,C   3,C   5)      2.3711         0.000000   
    209. D(C   1,C   4,C   3,Ir  0)    -59.7388         0.000000   
    210. D(Ir  0,C   4,C   3,H  37)   -118.4364         0.000000   
    211. D(Ir  0,C   4,C   3,C   5)     62.1099         0.000000   
    212. D(H  38,C   4,C   1,H  27)      7.4023         0.000000   
    213. D(H  38,C   4,C   1,Ir  0)   -115.9318         0.000000   
    214. D(C   3,C   4,C   1,H  27)   -175.7905         0.000000   
    215. D(C   3,C   4,C   1,C   2)     -3.7613         0.000000   
    216. D(C   3,C   4,C   1,Ir  0)     60.8754         0.000000   
    217. D(Ir  0,C   4,C   1,H  27)    123.3341         0.000000   
    218. D(H  38,C   4,Ir  0,O  31)     90.6581         0.000000   
    219. D(H  38,C   4,Ir  0,N   6)      3.0301         0.000000   
    220. D(H  38,C   4,C   1,C   2)    179.4316         0.000000   
    221. D(H  38,C   4,Ir  0,C   5)   -160.0506         0.000000   
    222. D(H  38,C   4,Ir  0,C   3)   -121.7357         0.000000   
    223. D(H  38,C   4,Ir  0,C   2)    158.2637         0.000000   
    224. D(Ir  0,C   4,C   1,C   2)    -64.6366         0.000000   
    225. D(C   3,C   4,Ir  0,O  31)   -147.6062         0.000000   
    226. D(C   3,C   4,Ir  0,N   6)    124.7658         0.000000   
    227. D(C   3,C   4,Ir  0,C   5)    -38.3149         0.000000   
    228. D(H  38,C   4,C   3,C   5)    179.1303         0.000000   
    229. D(H  38,C   4,Ir  0,C   1)    119.3710         0.000000   
    230. D(C   1,C   4,Ir  0,C   2)     38.8927         0.000000   
    231. D(H  29,C   5,C   3,H  37)      1.0867         0.000000   
    232. D(H  29,C   5,C   3,Ir  0)   -117.9431         0.000000   
    233. D(C   2,C   5,C   3,H  37)   -179.5026         0.000000   
    234. D(C   2,C   5,C   3,C   4)     -0.0449         0.000000   
    235. D(C   2,C   5,C   3,Ir  0)     61.4675         0.000000   
    236. D(Ir  0,C   5,C   3,H  37)    119.0299         0.000000   
    237. D(Ir  0,C   5,C   3,C   4)    -61.5125         0.000000   
    238. D(H  29,C   5,C   2,H  28)      0.0735         0.000000   
    239. D(H  29,C   5,C   2,Ir  0)    119.2151         0.000000   
    240. D(C   3,C   5,C   2,H  28)   -179.3443         0.000000   
    241. D(C   3,C   5,C   2,C   1)     -2.3044         0.000000   
    242. D(Ir  0,C   5,C   2,H  28)   -119.1416         0.000000   
    243. D(Ir  0,C   5,C   2,C   1)     57.8982         0.000000   
    244. D(H  29,C   5,Ir  0,O  31)    -67.5866         0.000000   
    245. D(H  29,C   5,Ir  0,N   6)    108.8182         0.000000   
    246. D(H  29,C   5,Ir  0,C   4)    158.3874         0.000000   
    247. D(H  29,C   5,Ir  0,C   3)    120.7878         0.000000   
    248. D(C   3,C   5,C   2,Ir  0)    -60.2027         0.000000   
    249. D(H  29,C   5,Ir  0,C   2)   -120.7908         0.000000   
    250. D(H  29,C   5,Ir  0,C   1)   -157.7684         0.000000   
    251. D(C   3,C   5,Ir  0,O  31)    171.6256         0.000000   
    252. D(H  29,C   5,C   2,C   1)    177.1133         0.000000   
    253. D(C   3,C   5,Ir  0,N   6)    -11.9696         0.000000   
    254. D(C   3,C   5,Ir  0,C   4)     37.5997         0.000000   
    255. D(C   3,C   5,Ir  0,C   2)    118.4215         0.000000   
    256. D(C   3,C   5,Ir  0,C   1)     81.4438         0.000000   
    257. D(C   2,C   5,Ir  0,O  31)     53.2042         0.000000   
    258. D(C   2,C   5,Ir  0,N   6)   -130.3911         0.000000   
    259. D(C   2,C   5,Ir  0,C   4)    -80.8218         0.000000   
    260. D(H  29,C   5,C   3,C   4)   -179.4556         0.000000   
    261. D(C   2,C   5,Ir  0,C   3)   -118.4215         0.000000   
    262. D(C   2,C   5,Ir  0,C   1)    -36.9777         0.000000   
    263. D(C   7,N   6,Ir  0,O  31)    -60.9531         0.000000   
    264. D(C   7,N   6,Ir  0,C   5)    122.1558         0.000000   
    265. D(C   7,N   6,Ir  0,C   4)     77.8767         0.000000   
    266. D(C   7,N   6,Ir  0,C   3)    113.5517         0.000000   
    267. D(C   7,N   6,Ir  0,C   2)     23.9634         0.000000   
    268. D(C  17,N   6,Ir  0,C   1)   -141.3127         0.000000   
    269. D(C   7,N   6,Ir  0,C   1)     39.1430         0.000000   
    270. D(C  17,N   6,Ir  0,O  31)    118.5912         0.000000   
    271. D(C  17,N   6,Ir  0,C   5)    -58.2999         0.000000   
    272. D(C  17,N   6,Ir  0,C   4)   -102.5790         0.000000   
    273. D(C  17,N   6,Ir  0,C   3)    -66.9040         0.000000   
    274. D(C  17,N   6,Ir  0,C   2)   -156.4923         0.000000   
    275. D(H  13,C   7,N   6,C  17)   -174.8143         0.000000   
    276. D(H  13,C   7,N   6,Ir  0)      4.7260         0.000000   
    277. D(C  12,C   7,N   6,C  17)     67.8570         0.000000   
    278. D(C  12,C   7,N   6,Ir  0)   -112.6027         0.000000   
    279. D(C   8,C   7,N   6,C  17)    -57.2756         0.000000   
    280. D(C   8,C   7,N   6,Ir  0)    122.2647         0.000000   
    281. D(H  11,C   8,C   7,H  13)     59.2394         0.000000   
    282. D(H  11,C   8,C   7,C  12)   -179.8980         0.000000   
    283. D(H  11,C   8,C   7,N   6)    -56.8283         0.000000   
    284. D(H  10,C   8,C   7,H  13)   -179.0327         0.000000   
    285. D(H  10,C   8,C   7,C  12)    -58.1700         0.000000   
    286. D(H  10,C   8,C   7,N   6)     64.8997         0.000000   
    287. D(H   9,C   8,C   7,H  13)    -60.0924         0.000000   
    288. D(H   9,C   8,C   7,C  12)     60.7702         0.000000   
    289. D(H   9,C   8,C   7,N   6)   -176.1601         0.000000   
    290. D(H  16,C  12,C   7,H  13)    -60.9693         0.000000   
    291. D(H  16,C  12,C   7,C   8)    178.5811         0.000000   
    292. D(H  16,C  12,C   7,N   6)     54.3630         0.000000   
    293. D(H  15,C  12,C   7,H  13)    178.1462         0.000000   
    294. D(H  15,C  12,C   7,C   8)     57.6967         0.000000   
    295. D(H  15,C  12,C   7,N   6)    -66.5214         0.000000   
    296. D(H  14,C  12,C   7,H  13)     58.8828         0.000000   
    297. D(H  14,C  12,C   7,C   8)    -61.5667         0.000000   
    298. D(H  14,C  12,C   7,N   6)    174.2152         0.000000   
    299. D(H  19,C  17,N   6,C   7)     -5.3330         0.000000   
    300. D(H  19,C  17,N   6,Ir  0)    175.1028         0.000000   
    301. D(C  18,C  17,N   6,C   7)    174.5482         0.000000   
    302. D(C  18,C  17,N   6,Ir  0)     -5.0160         0.000000   
    303. D(S  22,C  18,C  17,H  19)    -25.0060         0.000000   
    304. D(S  22,C  18,C  17,N   6)    155.1121         0.000000   
    305. D(C  20,C  18,C  17,H  19)    161.1195         0.000000   
    306. D(C  20,C  18,C  17,N   6)    -18.7624         0.000000   
    307. D(H  24,C  20,C  18,S  22)    143.5161         0.000000   
    308. D(H  24,C  20,C  18,C  17)    -42.1141         0.000000   
    309. D(C  21,C  20,C  18,S  22)     -2.4086         0.000000   
    310. D(C  21,C  20,C  18,C  17)    171.9613         0.000000   
    311. D(H  25,C  21,C  20,H  24)     30.0483         0.000000   
    312. D(H  25,C  21,C  20,C  18)    178.0915         0.000000   
    313. D(C  23,C  21,C  20,H  24)   -145.6226         0.000000   
    314. D(C  23,C  21,C  20,C  18)      2.4206         0.000000   
    315. D(C  23,S  22,C  18,C  20)      1.4404         0.000000   
    316. D(C  23,S  22,C  18,C  17)   -172.9111         0.000000   
    317. D(H  26,C  23,S  22,C  18)   -179.0285         0.000000   
    318. D(C  21,C  23,S  22,C  18)      0.0213         0.000000   
    319. D(H  26,C  23,C  21,H  25)      1.6311         0.000000   
    320. D(H  26,C  23,C  21,C  20)    177.5147         0.000000   
    321. D(S  22,C  23,C  21,H  25)   -177.3175         0.000000   
    322. D(S  22,C  23,C  21,C  20)     -1.4338         0.000000   
    323. D(C  32,O  31,Ir  0,N   6)   -101.6733         0.000000   
    324. D(C  32,O  31,Ir  0,C   5)     76.9569         0.000000   
    325. D(C  32,O  31,Ir  0,C   4)    163.3486         0.000000   
    326. D(C  32,O  31,Ir  0,C   3)     92.1187         0.000000   
    327. D(C  32,O  31,Ir  0,C   2)    106.2789         0.000000   
    328. D(C  32,O  31,Ir  0,C   1)    145.1027         0.000000   
    329. D(C  33,C  32,O  31,Ir  0)   -179.1456         0.000000   
    330. D(O  30,C  32,O  31,Ir  0)      0.8826         0.000000   
    331. D(H  36,C  33,C  32,O  31)    -17.4995         0.000000   
    332. D(H  36,C  33,C  32,O  30)    162.4735         0.000000   
    333. D(H  35,C  33,C  32,O  31)    103.9504         0.000000   
    334. D(H  35,C  33,C  32,O  30)    -76.0766         0.000000   
    335. D(H  34,C  33,C  32,O  31)   -139.9728         0.000000   
    336. D(H  34,C  33,C  32,O  30)     40.0002         0.000000   
    -----------------------------------------------------------------

Number of atoms                         .... 39
Number of degrees of freedom            .... 336

         *************************************************************
         *                GEOMETRY OPTIMIZATION CYCLE   1            *
         *************************************************************
---------------------------------
CARTESIAN COORDINATES (ANGSTROEM)
---------------------------------
  Ir     0.556230   -0.738910    0.595120
  C      0.052120   -2.334020    1.899820
  C      1.375060   -1.903220    2.255570
  C      1.425590   -2.638200    0.067390
  C      0.117550   -2.837690    0.553490
  C      2.206680   -2.054340    1.136710
  N     -1.032570   -0.003870   -0.524870
  C     -2.394850    0.157110    0.017090
  C     -2.868840    1.599620   -0.100960
  H     -3.846410    1.705630    0.366090
  H     -2.975060    1.917710   -1.139140
  H     -2.184130    2.282930    0.398960
  C     -3.327460   -0.829110   -0.673380
  H     -2.328200   -0.096300    1.073430
  H     -4.314040   -0.796330   -0.215820
  H     -3.451050   -0.594100   -1.731790
  H     -2.955400   -1.851060   -0.597120
  C     -0.806900    0.330330   -1.738970
  C      0.535130    0.280870   -2.212220
  H     -1.614350    0.646080   -2.394790
  C      1.633060    0.262680   -1.357080
  C      2.813460    0.023420   -2.127710
  S      0.931470    0.086390   -3.859970
  C      2.580670   -0.070050   -3.470520
  H      1.724580    0.951460   -0.370120
  H      3.817660   -0.014130   -1.735350
  H      3.301430   -0.209020   -4.263000
  H     -0.792720   -2.394940    2.570960
  H      1.662610   -1.485520    3.209600
  H      3.248060   -1.770830    1.088050
  O      1.813010    1.998260    0.783220
  O      0.105790    0.928490    1.708060
  C      0.860560    1.962750    1.560530
  C      0.539260    3.172180    2.390530
  H      0.673820    4.057010    1.772140
  H      1.254940    3.247630    3.210370
  H     -0.463460    3.161300    2.807210
  H      1.787190   -2.883190   -0.918600
  H     -0.716100   -3.245380    0.000310

----------------------------
CARTESIAN COORDINATES (A.U.)
----------------------------
  NO LB      ZA    FRAG     MASS         X           Y           Z
   0 Ir   17.0000*   0   192.220    1.051122   -1.396338    1.124614
   1 C     6.0000    0    12.011    0.098493   -4.410659    3.590140
   2 C     6.0000    0    12.011    2.598487   -3.596565    4.262410
   3 C     6.0000    0    12.011    2.693975   -4.985475    0.127349
   4 C     6.0000    0    12.011    0.222137   -5.362457    1.045945
   5 C     6.0000    0    12.011    4.170021   -3.882140    2.148071
   6 N     7.0000    0    14.007   -1.951275   -0.007313   -0.991861
   7 C     6.0000    0    12.011   -4.525611    0.296895    0.032295
   8 C     6.0000    0    12.011   -5.421322    3.022844   -0.190787
   9 H     1.0000    0     1.008   -7.268661    3.223174    0.691810
  10 H     1.0000    0     1.008   -5.622049    3.623947   -2.152663
  11 H     1.0000    0     1.008   -4.127408    4.314112    0.753925
  12 C     6.0000    0    12.011   -6.287988   -1.566791   -1.272504
  13 H     1.0000    0     1.008   -4.399660   -0.181981    2.028489
  14 H     1.0000    0     1.008   -8.152354   -1.504846   -0.407841
  15 H     1.0000    0     1.008   -6.521539   -1.122686   -3.272609
  16 H     1.0000    0     1.008   -5.584897   -3.497996   -1.128393
  17 C     6.0000    0    12.011   -1.524820    0.624233   -3.286177
  18 C     6.0000    0    12.011    1.011249    0.530767   -4.180490
  19 H     1.0000    0     1.008   -3.050679    1.220914   -4.525497
  20 C     6.0000    0    12.011    3.086036    0.496393   -2.564510
  21 C     6.0000    0    12.011    5.316669    0.044257   -4.020789
  22 S    16.0000    0    32.060    1.760223    0.163253   -7.294286
  23 C     6.0000    0    12.011    4.876760   -0.132375   -6.558332
  24 H     1.0000    0     1.008    3.258984    1.797999   -0.699425
  25 H     1.0000    0     1.008    7.214332   -0.026702   -3.279336
  26 H     1.0000    0     1.008    6.238799   -0.394991   -8.055903
  27 H     1.0000    0     1.008   -1.498024   -4.525781    4.858410
  28 H     1.0000    0     1.008    3.141878   -2.807226    6.065265
  29 H     1.0000    0     1.008    6.137944   -3.346384    2.056117
  30 O     8.0000    0    15.999    3.426092    3.776164    1.480071
  31 O     8.0000    0    15.999    0.199914    1.754592    3.227766
  32 C     6.0000    0    12.011    1.626223    3.709060    2.948974
  33 C     6.0000    0    12.011    1.019054    5.994551    4.517447
  34 H     1.0000    0     1.008    1.273335    7.666638    3.348859
  35 H     1.0000    0     1.008    2.371493    6.137131    6.066720
  36 H     1.0000    0     1.008   -0.875812    5.973991    5.304858
  37 H     1.0000    0     1.008    3.377300   -5.448439   -1.735902
  38 H     1.0000    0     1.008   -1.353233   -6.132879    0.000586
* core charge reduced due to ECP

--------------------------------
INTERNAL COORDINATES (ANGSTROEM)
--------------------------------
 Ir     0   0   0     0.000000000000     0.00000000     0.00000000
 C      1   0   0     2.121495909541     0.00000000     0.00000000
 C      2   1   0     1.436076929033    73.01602969     0.00000000
 C      1   2   3     2.154434558440    65.39819322    78.84707667
 C      4   1   2     1.409630487646    70.47916614    37.69592234
 C      3   2   1     1.402239914708   108.44247260   300.33297290
 N      1   2   3     2.078207603128   114.56350940   191.25495562
 C      7   1   2     1.474937964933   123.14019051    39.14304365
 C      8   7   1     1.522969934930   111.24464763   122.26466252
 H      9   8   7     1.088584827884   109.78369765   183.83989696
 H      9   8   7     1.091000297388   112.34707879    64.89967901
 H      9   8   7     1.088880317849   111.28995537   303.17174868
 C      8   7   1     1.522872326034   109.16828886   247.39733184
 H      8   7   1     1.088353364583   105.94194430     4.72598129
 H     13   8   7     1.088014603946   110.18922328   174.21516959
 H     13   8   7     1.091208466014   111.69464004   293.47860149
 H     13   8   7     1.090241273159   111.48976570    54.36300984
 C      7   1   2     1.279318333684   117.96844131   218.68733315
 C     18   7   1     1.423887767698   118.20349850   354.98404531
 H     18   7   1     1.087094033375   121.15651449   175.10280974
 C     19  18   7     1.391777848868   122.66723867   341.23764639
 C     21  19  18     1.429846182112   108.80104435   171.96126619
 S     19  18   7     1.705868672700   122.95521749   155.11207887
 C     22  21  19     1.366040453684   113.61329031     2.42055368
 H     21  19  18     1.207014432557   123.69433098   317.88593314
 H     22  21  19     1.078783579825   125.32891735   178.09149372
 H     24  22  21     1.080200068922   128.04365316   177.51472911
 H      2   1   3     1.080691802319   127.59473770   122.30951893
 H      3   2   1     1.080431179391   125.44306344   117.39504880
 H      6   3   2     1.080378646633   125.40232385   177.11331103
 O     25  21  19     1.560065146236   172.61672006   304.12411841
 O      1   2   3     2.054690827643   102.99995347   276.77649145
 C     31  25  21     1.229891376789   113.82673342   110.39836500
 C     33  31  25     1.501617333045   119.45801481   202.04551583
 H     34  33  31     1.087858775117   108.32661928    40.00019176
 H     34  33  31     1.090884132482   109.31327597   283.92337078
 H     34  33  31     1.085904229295   113.67845954   162.47351407
 H      4   1   2     1.078402030877   124.02395527   159.12366278
 H      5   4   1     1.080366405901   126.36022635   117.02038271

---------------------------
INTERNAL COORDINATES (A.U.)
---------------------------
 Ir     0   0   0     0.000000000000     0.00000000     0.00000000
 C      1   0   0     4.009046263267     0.00000000     0.00000000
 C      2   1   0     2.713792103114    73.01602969     0.00000000
 C      1   2   3     4.071291288907    65.39819322    78.84707667
 C      4   1   2     2.663815571676    70.47916614    37.69592234
 C      3   2   1     2.649849412851   108.44247260   300.33297290
 N      1   2   3     3.927243219345   114.56350940   191.25495562
 C      7   1   2     2.787228818246   123.14019051    39.14304365
 C      8   7   1     2.877996087213   111.24464763   122.26466252
 H      9   8   7     2.057127198243   109.78369765   183.83989696
 H      9   8   7     2.061691774089   112.34707879    64.89967901
 H      9   8   7     2.057685593353   111.28995537   303.17174868
 C      8   7   1     2.877811633132   109.16828886   247.39733184
 H      8   7   1     2.056689795994   105.94194430     4.72598129
 H     13   8   7     2.056049631165   110.18922328   174.21516959
 H     13   8   7     2.062085155782   111.69464004   293.47860149
 H     13   8   7     2.060257426169   111.48976570    54.36300984
 C      7   1   2     2.417561288767   117.96844131   218.68733315
 C     18   7   1     2.690757926390   118.20349850   354.98404531
 H     18   7   1     2.054310004899   121.15651449   175.10280974
 C     19  18   7     2.630078973619   122.66723867   341.23764639
 C     21  19  18     2.702017697824   108.80104435   171.96126619
 S     19  18   7     3.223624611839   122.95521749   155.11207887
 C     22  21  19     2.581442345319   113.61329031     2.42055368
 H     21  19  18     2.280926717222   123.69433098   317.88593314
 H     22  21  19     2.038605523640   125.32891735   178.09149372
 H     24  22  21     2.041282300106   128.04365316   177.51472911
 H      2   1   3     2.042211541557   127.59473770   122.30951893
 H      3   2   1     2.041719035598   125.44306344   117.39504880
 H      6   3   2     2.041619763072   125.40232385   177.11331103
 O     25  21  19     2.948095877462   172.61672006   304.12411841
 O      1   2   3     3.882802954125   102.99995347   276.77649145
 C     31  25  21     2.324157876603   113.82673342   110.39836500
 C     33  31  25     2.837645517404   119.45801481   202.04551583
 H     34  33  31     2.055755157355   108.32661928    40.00019176
 H     34  33  31     2.061472254230   109.31327597   283.92337078
 H     34  33  31     2.052061601034   113.67845954   162.47351407
 H      4   1   2     2.037884500622   124.02395527   159.12366278
 H      5   4   1     2.041596631442   126.36022635   117.02038271

---------------------
BASIS SET INFORMATION
---------------------
There are 6 groups of distinct atoms

 Group   1 Type Ir  : 7s6p5d1f contracted to 6s3p2d1f pattern {211111/411/41/1}
 Group   2 Type C   : 8s4p1d contracted to 4s2p1d pattern {5111/31/1}
 Group   3 Type N   : 8s4p1d contracted to 4s2p1d pattern {5111/31/1}
 Group   4 Type H   : 4s contracted to 2s pattern {31}
 Group   5 Type S   : 10s7p1d contracted to 4s3p1d pattern {5311/511/1}
 Group   6 Type O   : 8s4p1d contracted to 4s2p1d pattern {5111/31/1}

Atom   0Ir   basis set group =>   1
Atom   1C    basis set group =>   2
Atom   2C    basis set group =>   2
Atom   3C    basis set group =>   2
Atom   4C    basis set group =>   2
Atom   5C    basis set group =>   2
Atom   6N    basis set group =>   3
Atom   7C    basis set group =>   2
Atom   8C    basis set group =>   2
Atom   9H    basis set group =>   4
Atom  10H    basis set group =>   4
Atom  11H    basis set group =>   4
Atom  12C    basis set group =>   2
Atom  13H    basis set group =>   4
Atom  14H    basis set group =>   4
Atom  15H    basis set group =>   4
Atom  16H    basis set group =>   4
Atom  17C    basis set group =>   2
Atom  18C    basis set group =>   2
Atom  19H    basis set group =>   4
Atom  20C    basis set group =>   2
Atom  21C    basis set group =>   2
Atom  22S    basis set group =>   5
Atom  23C    basis set group =>   2
Atom  24H    basis set group =>   4
Atom  25H    basis set group =>   4
Atom  26H    basis set group =>   4
Atom  27H    basis set group =>   4
Atom  28H    basis set group =>   4
Atom  29H    basis set group =>   4
Atom  30O    basis set group =>   6
Atom  31O    basis set group =>   6
Atom  32C    basis set group =>   2
Atom  33C    basis set group =>   2
Atom  34H    basis set group =>   4
Atom  35H    basis set group =>   4
Atom  36H    basis set group =>   4
Atom  37H    basis set group =>   4
Atom  38H    basis set group =>   4
---------------------------------
AUXILIARY/J BASIS SET INFORMATION
---------------------------------
There are 6 groups of distinct atoms

 Group   1 Type Ir  : 11s5p5d3f3g contracted to 8s5p5d2f3g pattern {41111111/11111/11111/21/111}
 Group   2 Type C   : 12s5p4d2f1g contracted to 6s4p3d1f1g pattern {711111/2111/211/2/1}
 Group   3 Type N   : 12s5p4d2f1g contracted to 6s4p3d1f1g pattern {711111/2111/211/2/1}
 Group   4 Type H   : 5s2p1d contracted to 3s1p1d pattern {311/2/1}
 Group   5 Type S   : 14s5p5d2f1g contracted to 8s4p3d1f1g pattern {71111111/2111/311/2/1}
 Group   6 Type O   : 12s5p4d2f1g contracted to 6s4p3d1f1g pattern {711111/2111/211/2/1}

Atom   0Ir   basis set group =>   1
Atom   1C    basis set group =>   2
Atom   2C    basis set group =>   2
Atom   3C    basis set group =>   2
Atom   4C    basis set group =>   2
Atom   5C    basis set group =>   2
Atom   6N    basis set group =>   3
Atom   7C    basis set group =>   2
Atom   8C    basis set group =>   2
Atom   9H    basis set group =>   4
Atom  10H    basis set group =>   4
Atom  11H    basis set group =>   4
Atom  12C    basis set group =>   2
Atom  13H    basis set group =>   4
Atom  14H    basis set group =>   4
Atom  15H    basis set group =>   4
Atom  16H    basis set group =>   4
Atom  17C    basis set group =>   2
Atom  18C    basis set group =>   2
Atom  19H    basis set group =>   4
Atom  20C    basis set group =>   2
Atom  21C    basis set group =>   2
Atom  22S    basis set group =>   5
Atom  23C    basis set group =>   2
Atom  24H    basis set group =>   4
Atom  25H    basis set group =>   4
Atom  26H    basis set group =>   4
Atom  27H    basis set group =>   4
Atom  28H    basis set group =>   4
Atom  29H    basis set group =>   4
Atom  30O    basis set group =>   6
Atom  31O    basis set group =>   6
Atom  32C    basis set group =>   2
Atom  33C    basis set group =>   2
Atom  34H    basis set group =>   4
Atom  35H    basis set group =>   4
Atom  36H    basis set group =>   4
Atom  37H    basis set group =>   4
Atom  38H    basis set group =>   4
-------------------------
ECP PARAMETER INFORMATION
-------------------------

 Group 1, Type Ir ECP Def2-ECP (replacing 60 core electrons, lmax=3)

Atom   0Ir   ECP group =>   1



           ************************************************************
           *        Program running with 8 parallel MPI-processes     *
           *              working on a common directory               *
           ************************************************************
------------------------------------------------------------------------------
                           ORCA GTO INTEGRAL CALCULATION
                           -- RI-GTO INTEGRALS CHOSEN --
------------------------------------------------------------------------------
------------------------------------------------------------------------------
                   ___                                                        
                  /   \      - P O W E R E D   B Y -                         
                 /     \                                                     
                 |  |  |   _    _      __       _____    __    __             
                 |  |  |  | |  | |    /  \     |  _  \  |  |  /  |          
                  \  \/   | |  | |   /    \    | | | |  |  | /  /          
                 / \  \   | |__| |  /  /\  \   | |_| |  |  |/  /          
                |  |  |   |  __  | /  /__\  \  |    /   |      \           
                |  |  |   | |  | | |   __   |  |    \   |  |\   \          
                \     /   | |  | | |  |  |  |  | |\  \  |  | \   \       
                 \___/    |_|  |_| |__|  |__|  |_| \__\ |__|  \__/        
                                                                              
                      - O R C A' S   B I G   F R I E N D -                    
                                      &                                       
                       - I N T E G R A L  F E E D E R -                       
                                                                              
 v1 FN, 2020, v2 2021                                                         
------------------------------------------------------------------------------


Reading SHARK input file reaction-4-dhsgs_optts_Compound_1.SHARKINP.tmp ... ok
----------------------
SHARK INTEGRAL PACKAGE
----------------------

Number of atoms                             ...     39
Number of basis functions                   ...    358
Number of shells                            ...    184
Maximum angular momentum                    ...      3
Integral batch strategy                     ... SHARK/LIBINT Hybrid
RI-J (if used) integral strategy            ... SPLIT-RIJ (Revised 2003 algorithm where possible)
Printlevel                                  ...      1
Contraction scheme used                     ... SEGMENTED contraction
Coulomb Range Separation                    ... NOT USED
Exchange Range Separation                   ... NOT USED
Finite Nucleus Model                        ... NOT USED
Auxiliary Coulomb fitting basis             ... AVAILABLE
   # of basis functions in Aux-J            ...   1231
   # of shells in Aux-J                     ...    405
   Maximum angular momentum in Aux-J        ...      4
Auxiliary J/K fitting basis                 ... NOT available
Auxiliary Correlation fitting basis         ... NOT available
Auxiliary 'external' fitting basis          ... NOT available
Integral threshold                          ...     2.500000e-11
Primitive cut-off                           ...     2.500000e-12
Primitive pair pre-selection threshold      ...     2.500000e-12

Calculating pre-screening integrals         ... done (  0.0 sec) Dimension = 184
Organizing shell pair data                  ... done (  0.1 sec)
Shell pair information
Total number of shell pairs                 ...     17020
Shell pairs after pre-screening             ...     12911
Total number of primitive shell pairs       ...     60705
Primitive shell pairs kept                  ...     29048
          la=0 lb=0:   4960 shell pairs
          la=1 lb=0:   4232 shell pairs
          la=1 lb=1:    857 shell pairs
          la=2 lb=0:   1730 shell pairs
          la=2 lb=1:    784 shell pairs
          la=2 lb=2:    175 shell pairs
          la=3 lb=0:    110 shell pairs
          la=3 lb=1:     41 shell pairs
          la=3 lb=2:     21 shell pairs
          la=3 lb=3:      1 shell pairs

Calculating one electron integrals          ... done (  0.0 sec)
Calculating ECP integrals                   ... done (  0.9 sec)
Calculating RI/J V-Matrix + Cholesky decomp.... done (  0.1 sec)
Calculating Nuclear repulsion               ... done (  0.0 sec) ENN=   2024.259343475900 Eh

SHARK setup successfully completed in   1.3 seconds

Maximum memory used throughout the entire GTOINT-calculation: 27.1 MB


           ************************************************************
           *        Program running with 8 parallel MPI-processes     *
           *              working on a common directory               *
           ************************************************************
-------------------------------------------------------------------------------
                                 ORCA SCF
-------------------------------------------------------------------------------

------------
SCF SETTINGS
------------
Hamiltonian:
 Density Functional     Method          .... DFT(GTOs)
 Exchange Functional    Exchange        .... PBE
   PBE kappa parameter   XKappa         ....  1.024500
   PBE mue parameter    XMuePBE         ....  0.123457
 Correlation Functional Correlation     .... PBE
   PBE beta parameter  CBetaPBE         ....  0.030000
 LDA part of GGA corr.  LDAOpt          .... PW91-LDA
 Gradients option       PostSCFGGA      .... off
 Hybrid DFT is turned on
   Fraction HF Exchange ScalHFX         ....  0.420000
   Scaling of DF-GGA-X  ScalDFX         ....  0.580000
   Scaling of DF-GGA-C  ScalDFC         ....  1.000000
   Scaling of DF-LDA-C  ScalLDAC        ....  1.000000
   Perturbative correction              ....  0.000000
   Density functional embedding theory  .... OFF
 RI-approximation to the Coulomb term is turned on
   Number of AuxJ basis functions       .... 1231
   RIJ-ON(X) (HFX calculated with O(N)) .... on
   Number of AuxJ basis functions       .... 1231
   RIJ-COSX (HFX calculated with COS-X)).... on


General Settings:
 Integral files         IntName         .... reaction-4-dhsgs_optts_Compound_1
 Hartree-Fock type      HFTyp           .... RHF
 Total Charge           Charge          ....    1
 Multiplicity           Mult            ....    1
 Number of Electrons    NEL             ....  164
 Basis Dimension        Dim             ....  358
 Nuclear Repulsion      ENuc            ....   2024.2593434759 Eh

Convergence Acceleration:
 DIIS                   CNVDIIS         .... on
   Start iteration      DIISMaxIt       ....    12
   Startup error        DIISStart       ....  0.200000
   # of expansion vecs  DIISMaxEq       ....     5
   Bias factor          DIISBfac        ....   1.050
   Max. coefficient     DIISMaxC        ....  10.000
 Trust-Rad. Augm. Hess. CNVTRAH         .... auto
   Auto Start mean grad. ratio tolernc. ....  1.125000
   Auto Start start iteration           ....    20
   Auto Start num. interpolation iter.  ....    10
   Max. Number of Micro iterations      ....    16
   Max. Number of Macro iterations      .... Maxiter - #DIIS iter
   Number of Davidson start vectors     ....     2
   Converg. threshold I  (grad. norm)   ....   1.000e-05
   Converg. threshold II (energy diff.) ....   1.000e-08
   Grad. Scal. Fac. for Micro threshold ....   0.100
   Minimum threshold for Micro iter.    ....   0.010
   NR start threshold (gradient norm)   ....   0.001
   Initial trust radius                 ....   0.400
   Minimum AH scaling param. (alpha)    ....   1.000
   Maximum AH scaling param. (alpha)    .... 1000.000
   Orbital update algorithm             .... Taylor
   White noise on init. David. guess    .... on
   Maximum white noise                  ....   0.010
   Quad. conv. algorithm                .... NR
   COSX micro iterations for RIJONX calc.... off
 SOSCF                  CNVSOSCF        .... off
 Level Shifting         CNVShift        .... on
   Level shift para.    LevelShift      ....    0.2500
   Turn off err/grad.   ShiftErr        ....    0.0010
 Zerner damping         CNVZerner       .... off
 Static damping         CNVDamp         .... on
   Fraction old density DampFac         ....    0.7000
   Max. Damping (<1)    DampMax         ....    0.9800
   Min. Damping (>=0)   DampMin         ....    0.0000
   Turn off err/grad.   DampErr         ....    0.1000
 Fernandez-Rico         CNVRico         .... off

SCF Procedure:
 Maximum # iterations   MaxIter         ....   125
 SCF integral mode      SCFMode         .... Direct
   Integral package                     .... SHARK and LIBINT hybrid scheme
 Reset frequency        DirectResetFreq ....    20
 Integral Threshold     Thresh          ....  2.500e-11 Eh
 Primitive CutOff       TCut            ....  2.500e-12 Eh

Convergence Tolerance:
 Convergence Check Mode ConvCheckMode   .... Total+1el-Energy
 Convergence forced     ConvForced      .... 0
 Energy Change          TolE            ....  1.000e-08 Eh
 1-El. energy change                    ....  1.000e-05 Eh
 DIIS Error             TolErr          ....  5.000e-07


Diagonalization of the overlap matrix:
Smallest eigenvalue                        ... 1.120e-03
Time for diagonalization                   ...    0.025 sec
Threshold for overlap eigenvalues          ... 1.000e-08
Number of eigenvalues below threshold      ... 0
Time for construction of square roots      ...    0.014 sec
Total time needed                          ...    0.041 sec

--------------------
INITIAL GUESS: HCORE
--------------------
                      -----------------
                      INTIAL GUESS DONE 
                      -----------------
-------------------
DFT GRID GENERATION
-------------------

General Integration Accuracy     IntAcc      ... 4.159
Radial Grid Type                 RadialGrid  ... OptM3 with GC (2021)
Angular Grid (max. ang.)         AngularGrid ... 3 (Lebedev-194)
Angular grid pruning method      GridPruning ... 4 (adaptive)
Weight generation scheme         WeightScheme... Becke
Basis function cutoff            BFCut       ... 1.0000e-11
Integration weight cutoff        WCut        ... 1.0000e-14
Angular grids for H and He will be reduced by one unit
Partially contracted basis set               ... off
Rotationally invariant grid construction     ... off

Total number of grid points                  ...    93338
Total number of batches                      ...     1478
Average number of points per batch           ...       63
Average number of grid points per atom       ...     2393
Time for grid setup =    0.436 sec

--------------------
COSX GRID GENERATION
--------------------

GRIDX 1
-------
General Integration Accuracy     IntAcc      ... 3.816
Radial Grid Type                 RadialGrid  ... OptM3 with GC (2021)
Angular Grid (max. ang.)         AngularGrid ... 1 (Lebedev-50)
Angular grid pruning method      GridPruning ... 4 (adaptive)
Weight generation scheme         WeightScheme... Becke
Basis function cutoff            BFCut       ... 1.0000e-11
Integration weight cutoff        WCut        ... 1.0000e-14
Angular grids for H and He will be reduced by one unit
Partially contracted basis set               ... on
Rotationally invariant grid construction     ... off

Total number of grid points                  ...    23203
Total number of batches                      ...      383
Average number of points per batch           ...       60
Average number of grid points per atom       ...      595
UseSFitting                                  ... on

GRIDX 2
-------
General Integration Accuracy     IntAcc      ... 4.020
Radial Grid Type                 RadialGrid  ... OptM3 with GC (2021)
Angular Grid (max. ang.)         AngularGrid ... 2 (Lebedev-110)
Angular grid pruning method      GridPruning ... 4 (adaptive)
Weight generation scheme         WeightScheme... Becke
Basis function cutoff            BFCut       ... 1.0000e-11
Integration weight cutoff        WCut        ... 1.0000e-14
Angular grids for H and He will be reduced by one unit
Partially contracted basis set               ... on
Rotationally invariant grid construction     ... off

Total number of grid points                  ...    50375
Total number of batches                      ...      805
Average number of points per batch           ...       62
Average number of grid points per atom       ...     1292
UseSFitting                                  ... on

GRIDX 3
-------
General Integration Accuracy     IntAcc      ... 4.338
Radial Grid Type                 RadialGrid  ... OptM3 with GC (2021)
Angular Grid (max. ang.)         AngularGrid ... 3 (Lebedev-194)
Angular grid pruning method      GridPruning ... 4 (adaptive)
Weight generation scheme         WeightScheme... Becke
Basis function cutoff            BFCut       ... 1.0000e-11
Integration weight cutoff        WCut        ... 1.0000e-14
Angular grids for H and He will be reduced by one unit
Partially contracted basis set               ... on
Rotationally invariant grid construction     ... off

Total number of grid points                  ...   108850
Total number of batches                      ...     1719
Average number of points per batch           ...       63
Average number of grid points per atom       ...     2791
UseSFitting                                  ... on

Time for X-Grid setup             =    1.098 sec

--------------
SCF ITERATIONS
--------------
ITER       Energy         Delta-E        Max-DP      RMS-DP      [F,P]     Damp
               ***  Starting incremental Fock matrix formation  ***
  0   -855.0041176708   0.00000000000020.92980855  0.15352655  3.4817108 0.7000
  1  -1095.9523508477-240.94823317690114.08296981  0.15368061  1.4868886 0.7000
  2  -1166.6943639935 -70.742013145799 5.24751810  0.06590944  1.0292373 0.7000
  3  -1194.8991213339 -28.204757340435 3.73837458  0.04531792  0.7296784 0.7000
  4  -1212.0388889919 -17.139767658030 2.56647659  0.03726886  0.4514921 0.7000
  5  -1227.1502824331 -15.111393441132 2.45739009  0.02920091  0.3394843 0.7000
  6  -1237.2307722060 -10.080489772903 1.95498732  0.03061614  0.3098200 0.7000
  7  -1243.3639341275  -6.133161921562 1.94875328  0.02402986  0.3110775 0.7000
  8  -1248.5431280372  -5.179193909705 1.58830804  0.02814789  0.3323867 0.7000
  9  -1251.0952763319  -2.552148294610 1.43355473  0.02335981  0.3170901 0.7000
 10  -1253.6460069079  -2.550730576093 1.44403737  0.02584134  0.3494788 0.7000
 11  -1255.4747922517  -1.828785343705 1.53090199  0.02343405  0.3027183 0.7000
                               ***Turning on DIIS***
 12  -1259.0295798521  -3.554787600435 1.39253726  0.02367779  0.3097340 0.7000
 13  -1259.1221595358  -0.092579683667 1.19133404  0.01935361  0.2825081 0.7000
 14  -1268.2550066322  -9.132847096451 0.83604235  0.01371118  0.2141987 0.7000
 15  -1274.6217742664  -6.366767634203 0.58794001  0.00968500  0.1631361 0.7000
 16  -1278.9730728116  -4.351298545201 0.41323518  0.00682664  0.1051048 0.7000
 17  -1281.9059108718  -2.932838060228 0.95890288  0.01601127  0.0656816 0.0000
 18  -1288.4221046409  -6.516193769020 0.03435993  0.00050466  0.0252345 0.0000
 19  -1288.4346581686  -0.012553527766 0.03092972  0.00039073  0.0161516 0.0000
               *** Restarting incremental Fock matrix formation ***
                                   *** Resetting DIIS ***
 20  -1288.4372242282  -0.002566059525 0.04522030  0.00059059  0.0184088 0.0000
 21  -1288.4385407716  -0.001316543427 0.02231966  0.00024593  0.0241836 0.0000
 22  -1288.4415681393  -0.003027367736 0.00292015  0.00008134  0.0036664 0.0000
 23  -1288.4417787432  -0.000210603843 0.00345499  0.00004031  0.0025266 0.0000
 24  -1288.4418257687  -0.000047025538 0.00224042  0.00003150  0.0004420 0.0000
               *** Restarting incremental Fock matrix formation ***
                                   *** Resetting DIIS ***
 25  -1288.4426733283  -0.000847559613 0.00500502  0.00008988  0.0005412 0.0000
 26  -1288.4426893662  -0.000016037882 0.00111145  0.00001423  0.0006320 0.0000
 27  -1288.4426893932  -0.000000027024 0.00078225  0.00000851  0.0006138 0.0000
 28  -1288.4426921261  -0.000002732903 0.00025439  0.00000280  0.0001369 0.0000
 29  -1288.4426922171  -0.000000090976 0.00015918  0.00000156  0.0000858 0.0000
 30  -1288.4426922875  -0.000000070434 0.00006235  0.00000064  0.0000349 0.0000
 31  -1288.4426923000  -0.000000012439 0.00002556  0.00000032  0.0000156 0.0000
 32  -1288.4426923010  -0.000000000997 0.00001206  0.00000016  0.0000044 0.0000
 33  -1288.4426922925   0.000000008444 0.00000780  0.00000009  0.0000028 0.0000
 34  -1288.4426922964  -0.000000003866 0.00000400  0.00000004  0.0000028 0.0000
 35  -1288.4426922870   0.000000009356 0.00000342  0.00000003  0.0000015 0.0000
 36  -1288.4426922912  -0.000000004144 0.00000266  0.00000002  0.0000011 0.0000
                            ***DIIS convergence achieved***

               *****************************************************
               *                     SUCCESS                       *
               *           SCF CONVERGED AFTER  37 CYCLES          *
               *****************************************************

Old exchange energy                            =    -59.653991918 Eh
New exchange energy                            =    -59.653928333 Eh
Exchange energy change after final integration =      0.000063584 Eh
Total energy after final integration           =  -1288.442628701 Eh
Final COS-X integration done in                =     9.068 sec

----------------
TOTAL SCF ENERGY
----------------

Total Energy       :        -1288.44262870 Eh          -35060.30636 eV

Components:
Nuclear Repulsion  :         2024.25934348 Eh           55082.89710 eV
Electronic Energy  :        -3312.70197218 Eh          -90143.20345 eV
One Electron Energy:        -5804.09200032 Eh         -157937.37271 eV
Two Electron Energy:         2491.39002814 Eh           67794.16925 eV
Max COSX asymmetry :            0.00001868 Eh               0.00051 eV

Virial components:
Potential Energy   :        -2501.53591057 Eh          -68070.25275 eV
Kinetic Energy     :         1213.09328187 Eh           33009.94639 eV
Virial Ratio       :            2.06211340


DFT components:
N(Alpha)           :       82.000401333755 electrons
N(Beta)            :       82.000401333755 electrons
N(Total)           :      164.000802667511 electrons
E(X)               :      -79.588720552456 Eh       
E(C)               :       -7.452556553124 Eh       
E(XC)              :      -87.041277105580 Eh       
DFET-embed. en.    :        0.000000000000 Eh       

---------------
SCF CONVERGENCE
---------------

  Last Energy change         ...    5.3362e-09  Tolerance :   1.0000e-08
  Last MAX-Density change    ...    0.0000e+00  Tolerance :   1.0000e-07
  Last RMS-Density change    ...    0.0000e+00  Tolerance :   5.0000e-09
  Last DIIS Error            ...    4.2665e-07  Tolerance :   5.0000e-07

             **** THE GBW FILE WAS UPDATED (reaction-4-dhsgs_optts_Compound_1.gbw) ****
             **** DENSITY reaction-4-dhsgs_optts_Compound_1.scfp WAS UPDATED ****
             **** ENERGY FILE WAS UPDATED (reaction-4-dhsgs_optts_Compound_1.en.tmp) ****
             **** THE GBW FILE WAS UPDATED (reaction-4-dhsgs_optts_Compound_1.gbw) ****
             **** DENSITY reaction-4-dhsgs_optts_Compound_1.scfp WAS UPDATED ****
----------------
ORBITAL ENERGIES
----------------

  NO   OCC          E(Eh)            E(eV) 
   0   2.0000     -89.761815     -2442.5432 
   1   2.0000     -19.621565      -533.9299 
   2   2.0000     -19.582054      -532.8548 
   3   2.0000     -14.835445      -403.6930 
   4   2.0000     -10.675053      -290.4830 
   5   2.0000     -10.657113      -289.9948 
   6   2.0000     -10.640373      -289.5393 
   7   2.0000     -10.635159      -289.3974 
   8   2.0000     -10.634093      -289.3684 
   9   2.0000     -10.632919      -289.3364 
  10   2.0000     -10.629870      -289.2535 
  11   2.0000     -10.625838      -289.1438 
  12   2.0000     -10.612694      -288.7861 
  13   2.0000     -10.610997      -288.7399 
  14   2.0000     -10.598793      -288.4078 
  15   2.0000     -10.588094      -288.1167 
  16   2.0000     -10.554556      -287.2041 
  17   2.0000     -10.547046      -286.9997 
  18   2.0000     -10.531969      -286.5894 
  19   2.0000      -8.401631      -228.6200 
  20   2.0000      -6.291562      -171.2021 
  21   2.0000      -6.288005      -171.1053 
  22   2.0000      -6.286461      -171.0633 
  23   2.0000      -4.032288      -109.7241 
  24   2.0000      -2.351637       -63.9913 
  25   2.0000      -2.316653       -63.0393 
  26   2.0000      -2.316148       -63.0256 
  27   2.0000      -1.301939       -35.4276 
  28   2.0000      -1.211699       -32.9720 
  29   2.0000      -1.201193       -32.6861 
  30   2.0000      -1.174714       -31.9656 
  31   2.0000      -1.128450       -30.7067 
  32   2.0000      -1.022572       -27.8256 
  33   2.0000      -0.989341       -26.9213 
  34   2.0000      -0.979199       -26.6454 
  35   2.0000      -0.968631       -26.3578 
  36   2.0000      -0.960501       -26.1365 
  37   2.0000      -0.924957       -25.1694 
  38   2.0000      -0.898121       -24.4391 
  39   2.0000      -0.874233       -23.7891 
  40   2.0000      -0.800076       -21.7712 
  41   2.0000      -0.791148       -21.5282 
  42   2.0000      -0.787754       -21.4359 
  43   2.0000      -0.782451       -21.2916 
  44   2.0000      -0.774110       -21.0646 
  45   2.0000      -0.751320       -20.4445 
  46   2.0000      -0.741477       -20.1766 
  47   2.0000      -0.721957       -19.6455 
  48   2.0000      -0.686170       -18.6716 
  49   2.0000      -0.667715       -18.1694 
  50   2.0000      -0.659858       -17.9556 
  51   2.0000      -0.650433       -17.6992 
  52   2.0000      -0.648113       -17.6360 
  53   2.0000      -0.640287       -17.4231 
  54   2.0000      -0.637968       -17.3600 
  55   2.0000      -0.627980       -17.0882 
  56   2.0000      -0.620695       -16.8900 
  57   2.0000      -0.610924       -16.6241 
  58   2.0000      -0.609726       -16.5915 
  59   2.0000      -0.608720       -16.5641 
  60   2.0000      -0.597506       -16.2590 
  61   2.0000      -0.595834       -16.2135 
  62   2.0000      -0.578981       -15.7549 
  63   2.0000      -0.575066       -15.6483 
  64   2.0000      -0.568697       -15.4750 
  65   2.0000      -0.553888       -15.0721 
  66   2.0000      -0.549041       -14.9402 
  67   2.0000      -0.548567       -14.9273 
  68   2.0000      -0.540011       -14.6944 
  69   2.0000      -0.534712       -14.5502 
  70   2.0000      -0.526457       -14.3256 
  71   2.0000      -0.520608       -14.1665 
  72   2.0000      -0.513707       -13.9787 
  73   2.0000      -0.504234       -13.7209 
  74   2.0000      -0.489677       -13.3248 
  75   2.0000      -0.477828       -13.0024 
  76   2.0000      -0.469282       -12.7698 
  77   2.0000      -0.449069       -12.2198 
  78   2.0000      -0.431583       -11.7440 
  79   2.0000      -0.426294       -11.6000 
  80   2.0000      -0.419923       -11.4267 
  81   2.0000      -0.404324       -11.0022 
  82   0.0000      -0.205397        -5.5891 
  83   0.0000      -0.165318        -4.4985 
  84   0.0000      -0.144806        -3.9404 
  85   0.0000      -0.090208        -2.4547 
  86   0.0000      -0.075331        -2.0499 
  87   0.0000      -0.068173        -1.8551 
  88   0.0000      -0.062348        -1.6966 
  89   0.0000      -0.053569        -1.4577 
  90   0.0000      -0.044555        -1.2124 
  91   0.0000      -0.038772        -1.0550 
  92   0.0000      -0.006370        -0.1733 
  93   0.0000      -0.001391        -0.0379 
  94   0.0000       0.013532         0.3682 
  95   0.0000       0.015081         0.4104 
  96   0.0000       0.022997         0.6258 
  97   0.0000       0.035663         0.9704 
  98   0.0000       0.044412         1.2085 
  99   0.0000       0.056779         1.5450 
 100   0.0000       0.068274         1.8578 
 101   0.0000       0.072536         1.9738 
 102   0.0000       0.076869         2.0917 
 103   0.0000       0.082050         2.2327 
 104   0.0000       0.086547         2.3551 
 105   0.0000       0.093857         2.5540 
 106   0.0000       0.099525         2.7082 
 107   0.0000       0.102065         2.7773 
 108   0.0000       0.106717         2.9039 
 109   0.0000       0.110848         3.0163 
 110   0.0000       0.114697         3.1211 
 111   0.0000       0.116545         3.1714 
 112   0.0000       0.116656         3.1744 
 113   0.0000       0.125285         3.4092 
 114   0.0000       0.136244         3.7074 
 115   0.0000       0.138065         3.7569 
 116   0.0000       0.141459         3.8493 
 117   0.0000       0.154059         4.1922 
 118   0.0000       0.164945         4.4884 
 119   0.0000       0.168626         4.5885 
 120   0.0000       0.175258         4.7690 
 121   0.0000       0.182758         4.9731 
 122   0.0000       0.192087         5.2269 
 123   0.0000       0.199004         5.4152 
 124   0.0000       0.207193         5.6380 
 125   0.0000       0.227326         6.1859 
 126   0.0000       0.248620         6.7653 
 127   0.0000       0.253265         6.8917 
 128   0.0000       0.281378         7.6567 
 129   0.0000       0.296593         8.0707 
 130   0.0000       0.304979         8.2989 
 131   0.0000       0.317045         8.6272 
 132   0.0000       0.324365         8.8264 
 133   0.0000       0.337071         9.1722 
 134   0.0000       0.342000         9.3063 
 135   0.0000       0.348442         9.4816 
 136   0.0000       0.355288         9.6679 
 137   0.0000       0.377727        10.2785 
 138   0.0000       0.387110        10.5338 
 139   0.0000       0.394146        10.7253 
 140   0.0000       0.409538        11.1441 
 141   0.0000       0.412934        11.2365 
 142   0.0000       0.423480        11.5235 
 143   0.0000       0.441695        12.0191 
 144   0.0000       0.448460        12.2032 
 145   0.0000       0.450679        12.2636 
 146   0.0000       0.459869        12.5137 
 147   0.0000       0.460730        12.5371 
 148   0.0000       0.469686        12.7808 
 149   0.0000       0.475518        12.9395 
 150   0.0000       0.480546        13.0763 
 151   0.0000       0.496344        13.5062 
 152   0.0000       0.497242        13.5306 
 153   0.0000       0.501157        13.6372 
[...]
  15   H   :   -0.000000635   -0.000000247   -0.000034721
  16   H   :    0.000009886   -0.000020191   -0.000020809
  17   H   :    0.000003725    0.000009573   -0.000011496
  18   C   :    0.000005028   -0.000021178   -0.000034678
  19   C   :    0.000007475   -0.000020699   -0.000023557
  20   H   :    0.000006015   -0.000035299   -0.000044854
  21   C   :    0.000004144   -0.000001853   -0.000024572
  22   C   :    0.000009596   -0.000007799   -0.000010707
  23   S   :    0.000019298   -0.000039951   -0.000005522
  24   C   :    0.000019008   -0.000025913    0.000000547
  25   H   :   -0.000004474    0.000008302   -0.000036207
  26   H   :    0.000006204    0.000004350   -0.000010179
  27   H   :    0.000023776   -0.000032453    0.000011362
  28   H   :    0.000002944    0.000044070    0.000014923
  29   H   :   -0.000004386    0.000068383    0.000014170
  30   H   :    0.000005678    0.000041627    0.000021769
  31   O   :   -0.000019068    0.000020050   -0.000062027
  32   O   :   -0.000019145    0.000048394   -0.000031082
  33   C   :   -0.000018905    0.000034446   -0.000055012
  34   C   :   -0.000028644    0.000058332   -0.000070379
  35   H   :   -0.000032629    0.000053853   -0.000086444
  36   H   :   -0.000031389    0.000073165   -0.000062202
  37   H   :   -0.000030767    0.000065906   -0.000067231
  38   H   :    0.000019893   -0.000000120    0.000028150
  39   H   :    0.000017364    0.000001699    0.000024258

Difference to translation invariance:
           :   -0.0000149708    0.0004515553   -0.0009064602

Difference to rotation invariance:
           :   -0.0084765401   -0.0040620078    0.0027188923

Norm of the cartesian gradient     ...    0.0003426175
RMS gradient                       ...    0.0000316750
MAX gradient                       ...    0.0000864439

-------
TIMINGS
-------

Total SCF gradient time            ...       16.331 sec

One electron gradient       ....       3.316 sec  ( 20.3%)
RI-J Coulomb gradient       ....       1.246 sec  (  7.6%)
COSX gradient               ....       9.366 sec  ( 57.4%)
XC gradient                 ....       1.732 sec  ( 10.6%)

Maximum memory used throughout the entire SCFGRAD-calculation: 65.4 MB

                            ***************************************
                            *     ORCA property calculations      *
                            ***************************************

                                    ---------------------
                                    Active property flags
                                    ---------------------
   (+) Dipole Moment


------------------------------------------------------------------------------
                       ORCA ELECTRIC PROPERTIES CALCULATION
------------------------------------------------------------------------------

Dipole Moment Calculation                       ... on
Quadrupole Moment Calculation                   ... off
Polarizability Calculation                      ... off
GBWName                                         ... reaction-4-dhsgs_optts_Compound_2.gbw
Electron density                                ... reaction-4-dhsgs_optts_Compound_2.scfp
The origin for moment calculation is the CENTER OF MASS  = ( 0.785451, -0.654809 -0.012778)

-------------
DIPOLE MOMENT
-------------
                                X             Y             Z
Electronic contribution:     34.50382     -67.85361      79.46398
Nuclear contribution   :    -34.73154      66.26824     -79.95293
                        -----------------------------------------
Total Dipole Moment    :     -0.22771      -1.58537      -0.48895
                        -----------------------------------------
Magnitude (a.u.)       :      1.67461
Magnitude (Debye)      :      4.25652



--------------------
Rotational spectrum 
--------------------
 
Rotational constants in cm-1:     0.011233     0.009151     0.007871 
Rotational constants in MHz :   336.758689   274.330466   235.959260 

 Dipole components along the rotational axes: 
x,y,z [a.u.] :    -0.834487    -0.729260     1.255441 
x,y,z [Debye]:    -2.121097    -1.853633     3.191077 

 



--------------------------------------------------------------------------------
                   Intrinsic Reaction Coordinate Calculation
--------------------------------------------------------------------------------

System:
Nr. of atoms                        .... 39
Algorithm: SD (steepest descent step) plus correction
Settings:
Max. no of cycles        MaxIter    .... 600
Direction                           .... Forward and backward
Initial displacement Hessian type   .... Read
Hessian Filename                    .... reaction-4-dhsgs_optts_Compound_1.hess
Following Hessian mode              .... 0
Initial displacement type           .... Energy
  Initial displacement energy change.... 2.000 mEh
Coordinate system following type    .... Cartesian
Length of steepest descent step     .... 0.150 bohr
Do parabolic fit 
  if SD step is uphill              .... YES
Do Correction to SD step            .... YES
Scaling for length of correction
  compared to SD step               .... 0.333
Do parabolic fit to SD correction   .... YES
Only interpolate for parabolic fit  .... YES
Do update to length of
  SD step and correction            .... YES
Convergence Tolerances:
  Max. Gradient            TolMAXG  ....  2.0000e-03 Eh/bohr
  RMS Gradient             TolRMSG  ....  5.0000e-04 Eh/bohr
Storing full IRC trajectory in      .... reaction-4-dhsgs_optts_Compound_2_IRC_Full_trj.xyz
Storing forward trajectory in       .... reaction-4-dhsgs_optts_Compound_2_IRC_F_trj.xyz
Storing backward trajectory in      .... reaction-4-dhsgs_optts_Compound_2_IRC_B_trj.xyz


 ...good, the file reaction-4-dhsgs_optts_Compound_1.hess exists
Reading the hessian file           ...... done
Determining length of initial displacement:
  Requested energy change (quadratic behavior): 2.000 mEh
  Resulting scaling factor for initial displacement along normalized TS mode: 3.0640

         *************************************************************
         *                          FORWARD IRC                      *
         *************************************************************

 ** NOTE ** -> element ir will be treated as co
NOTIFICATION: Different basis set in ORCA and otool_gcp:
ORCA: 358  gCP: 357 
If you are NOT using ECPs, check your basis set inputs!
Iteration    E(Eh)      dE(kcal/mol)  max(|G|)   RMS(G) 
Convergence thresholds                0.002000  0.000500            
    0     -1288.403183    1.605877    0.038811  0.005555
 ** NOTE ** -> element ir will be treated as co
NOTIFICATION: Different basis set in ORCA and otool_gcp:
ORCA: 358  gCP: 357 
If you are NOT using ECPs, check your basis set inputs!
 ** NOTE ** -> element ir will be treated as co
NOTIFICATION: Different basis set in ORCA and otool_gcp:
ORCA: 358  gCP: 357 
If you are NOT using ECPs, check your basis set inputs!
 ** NOTE ** -> element ir will be treated as co
NOTIFICATION: Different basis set in ORCA and otool_gcp:
ORCA: 358  gCP: 357 
If you are NOT using ECPs, check your basis set inputs!
 ** NOTE ** -> element ir will be treated as co
NOTIFICATION: Different basis set in ORCA and otool_gcp:
ORCA: 358  gCP: 357 
If you are NOT using ECPs, check your basis set inputs!
 ** NOTE ** -> element ir will be treated as co
NOTIFICATION: Different basis set in ORCA and otool_gcp:
ORCA: 358  gCP: 357 
If you are NOT using ECPs, check your basis set inputs!
 ** NOTE ** -> element ir will be treated as co
NOTIFICATION: Different basis set in ORCA and otool_gcp:
ORCA: 358  gCP: 357 
If you are NOT using ECPs, check your basis set inputs!
    1     -1288.404660    0.679052    0.021756  0.003305
 ** NOTE ** -> element ir will be treated as co
NOTIFICATION: Different basis set in ORCA and otool_gcp:
ORCA: 358  gCP: 357 
If you are NOT using ECPs, check your basis set inputs!
 ** NOTE ** -> element ir will be treated as co
NOTIFICATION: Different basis set in ORCA and otool_gcp:
ORCA: 358  gCP: 357 
If you are NOT using ECPs, check your basis set inputs!
 ** NOTE ** -> element ir will be treated as co
NOTIFICATION: Different basis set in ORCA and otool_gcp:
ORCA: 358  gCP: 357 
If you are NOT using ECPs, check your basis set inputs!
 ** NOTE ** -> element ir will be treated as co
NOTIFICATION: Different basis set in ORCA and otool_gcp:
ORCA: 358  gCP: 357 
If you are NOT using ECPs, check your basis set inputs!
    2     -1288.405855   -0.070848    0.005003  0.001347
 ** NOTE ** -> element ir will be treated as co
NOTIFICATION: Different basis set in ORCA and otool_gcp:
ORCA: 358  gCP: 357 
If you are NOT using ECPs, check your basis set inputs!
 ** NOTE ** -> element ir will be treated as co
NOTIFICATION: Different basis set in ORCA and otool_gcp:
ORCA: 358  gCP: 357 
If you are NOT using ECPs, check your basis set inputs!
 ** NOTE ** -> element ir will be treated as co
NOTIFICATION: Different basis set in ORCA and otool_gcp:
ORCA: 358  gCP: 357 
If you are NOT using ECPs, check your basis set inputs!
 ** NOTE ** -> element ir will be treated as co
NOTIFICATION: Different basis set in ORCA and otool_gcp:
ORCA: 358  gCP: 357 
If you are NOT using ECPs, check your basis set inputs!
    3     -1288.406394   -0.409105    0.002261  0.000506
 ** NOTE ** -> element ir will be treated as co
NOTIFICATION: Different basis set in ORCA and otool_gcp:
ORCA: 358  gCP: 357 
If you are NOT using ECPs, check your basis set inputs!
 ** NOTE ** -> element ir will be treated as co
NOTIFICATION: Different basis set in ORCA and otool_gcp:
ORCA: 358  gCP: 357 
If you are NOT using ECPs, check your basis set inputs!
 ** NOTE ** -> element ir will be treated as co
NOTIFICATION: Different basis set in ORCA and otool_gcp:
ORCA: 358  gCP: 357 
If you are NOT using ECPs, check your basis set inputs!
 ** NOTE ** -> element ir will be treated as co
NOTIFICATION: Different basis set in ORCA and otool_gcp:
ORCA: 358  gCP: 357 
If you are NOT using ECPs, check your basis set inputs!
 ** NOTE ** -> element ir will be treated as co
NOTIFICATION: Different basis set in ORCA and otool_gcp:
ORCA: 358  gCP: 357 
If you are NOT using ECPs, check your basis set inputs!
 ** NOTE ** -> element ir will be treated as co
NOTIFICATION: Different basis set in ORCA and otool_gcp:
ORCA: 358  gCP: 357 
If you are NOT using ECPs, check your basis set inputs!
    4     -1288.406435   -0.434895    0.002482  0.000483
 ** NOTE ** -> element ir will be treated as co
NOTIFICATION: Different basis set in ORCA and otool_gcp:
ORCA: 358  gCP: 357 
If you are NOT using ECPs, check your basis set inputs!
 ** NOTE ** -> element ir will be treated as co
NOTIFICATION: Different basis set in ORCA and otool_gcp:
ORCA: 358  gCP: 357 
If you are NOT using ECPs, check your basis set inputs!
 ** NOTE ** -> element ir will be treated as co
NOTIFICATION: Different basis set in ORCA and otool_gcp:
ORCA: 358  gCP: 357 
If you are NOT using ECPs, check your basis set inputs!
 ** NOTE ** -> element ir will be treated as co
NOTIFICATION: Different basis set in ORCA and otool_gcp:
ORCA: 358  gCP: 357 
If you are NOT using ECPs, check your basis set inputs!
 ** NOTE ** -> element ir will be treated as co
NOTIFICATION: Different basis set in ORCA and otool_gcp:
ORCA: 358  gCP: 357 
If you are NOT using ECPs, check your basis set inputs!
 ** NOTE ** -> element ir will be treated as co
NOTIFICATION: Different basis set in ORCA and otool_gcp:
ORCA: 358  gCP: 357 
If you are NOT using ECPs, check your basis set inputs!
    5     -1288.406452   -0.445666    0.001203  0.000358

                      ***********************HURRAY********************
                      ***            THE IRC HAS CONVERGED          ***
                      *************************************************


         *************************************************************
         *                          BACKWARD IRC                     *
         *************************************************************

 ** NOTE ** -> element ir will be treated as co
NOTIFICATION: Different basis set in ORCA and otool_gcp:
ORCA: 358  gCP: 357 
If you are NOT using ECPs, check your basis set inputs!
Iteration    E(Eh)      dE(kcal/mol)  max(|G|)   RMS(G) 
Convergence thresholds                0.002000  0.000500            
    0     -1288.400628    3.208897    0.035947  0.005679
 ** NOTE ** -> element ir will be treated as co
NOTIFICATION: Different basis set in ORCA and otool_gcp:
ORCA: 358  gCP: 357 
If you are NOT using ECPs, check your basis set inputs!
 ** NOTE ** -> element ir will be treated as co
NOTIFICATION: Different basis set in ORCA and otool_gcp:
ORCA: 358  gCP: 357 
If you are NOT using ECPs, check your basis set inputs!
 ** NOTE ** -> element ir will be treated as co
NOTIFICATION: Different basis set in ORCA and otool_gcp:
ORCA: 358  gCP: 357 
If you are NOT using ECPs, check your basis set inputs!
 ** NOTE ** -> element ir will be treated as co
NOTIFICATION: Different basis set in ORCA and otool_gcp:
ORCA: 358  gCP: 357 
If you are NOT using ECPs, check your basis set inputs!
 ** NOTE ** -> element ir will be treated as co
NOTIFICATION: Different basis set in ORCA and otool_gcp:
ORCA: 358  gCP: 357 
If you are NOT using ECPs, check your basis set inputs!
 ** NOTE ** -> element ir will be treated as co
NOTIFICATION: Different basis set in ORCA and otool_gcp:
ORCA: 358  gCP: 357 
If you are NOT using ECPs, check your basis set inputs!
    1     -1288.402415    2.087462    0.019776  0.003448
 ** NOTE ** -> element ir will be treated as co
NOTIFICATION: Different basis set in ORCA and otool_gcp:
ORCA: 358  gCP: 357 
If you are NOT using ECPs, check your basis set inputs!
 ** NOTE ** -> element ir will be treated as co
NOTIFICATION: Different basis set in ORCA and otool_gcp:
ORCA: 358  gCP: 357 
If you are NOT using ECPs, check your basis set inputs!
 ** NOTE ** -> element ir will be treated as co
NOTIFICATION: Different basis set in ORCA and otool_gcp:
ORCA: 358  gCP: 357 
If you are NOT using ECPs, check your basis set inputs!
 ** NOTE ** -> element ir will be treated as co
NOTIFICATION: Different basis set in ORCA and otool_gcp:
ORCA: 358  gCP: 357 
If you are NOT using ECPs, check your basis set inputs!
    2     -1288.403844    1.190748    0.006888  0.001612
 ** NOTE ** -> element ir will be treated as co
NOTIFICATION: Different basis set in ORCA and otool_gcp:
ORCA: 358  gCP: 357 
If you are NOT using ECPs, check your basis set inputs!
 ** NOTE ** -> element ir will be treated as co
NOTIFICATION: Different basis set in ORCA and otool_gcp:
ORCA: 358  gCP: 357 
If you are NOT using ECPs, check your basis set inputs!
 ** NOTE ** -> element ir will be treated as co
NOTIFICATION: Different basis set in ORCA and otool_gcp:
ORCA: 358  gCP: 357 
If you are NOT using ECPs, check your basis set inputs!
 ** NOTE ** -> element ir will be treated as co
NOTIFICATION: Different basis set in ORCA and otool_gcp:
ORCA: 358  gCP: 357 
If you are NOT using ECPs, check your basis set inputs!
    3     -1288.404591    0.721996    0.002576  0.000711
 ** NOTE ** -> element ir will be treated as co
NOTIFICATION: Different basis set in ORCA and otool_gcp:
ORCA: 358  gCP: 357 
If you are NOT using ECPs, check your basis set inputs!
 ** NOTE ** -> element ir will be treated as co
NOTIFICATION: Different basis set in ORCA and otool_gcp:
ORCA: 358  gCP: 357 
If you are NOT using ECPs, check your basis set inputs!
 ** NOTE ** -> element ir will be treated as co
NOTIFICATION: Different basis set in ORCA and otool_gcp:
ORCA: 358  gCP: 357 
If you are NOT using ECPs, check your basis set inputs!
 ** NOTE ** -> element ir will be treated as co
NOTIFICATION: Different basis set in ORCA and otool_gcp:
ORCA: 358  gCP: 357 
If you are NOT using ECPs, check your basis set inputs!
    4     -1288.404920    0.515499    0.002720  0.000609
 ** NOTE ** -> element ir will be treated as co
NOTIFICATION: Different basis set in ORCA and otool_gcp:
ORCA: 358  gCP: 357 
If you are NOT using ECPs, check your basis set inputs!
 ** NOTE ** -> element ir will be treated as co
NOTIFICATION: Different basis set in ORCA and otool_gcp:
ORCA: 358  gCP: 357 
If you are NOT using ECPs, check your basis set inputs!
 ** NOTE ** -> element ir will be treated as co
NOTIFICATION: Different basis set in ORCA and otool_gcp:
ORCA: 358  gCP: 357 
If you are NOT using ECPs, check your basis set inputs!
 ** NOTE ** -> element ir will be treated as co
NOTIFICATION: Different basis set in ORCA and otool_gcp:
ORCA: 358  gCP: 357 
If you are NOT using ECPs, check your basis set inputs!
 ** NOTE ** -> element ir will be treated as co
NOTIFICATION: Different basis set in ORCA and otool_gcp:
ORCA: 358  gCP: 357 
If you are NOT using ECPs, check your basis set inputs!
 ** NOTE ** -> element ir will be treated as co
NOTIFICATION: Different basis set in ORCA and otool_gcp:
ORCA: 358  gCP: 357 
If you are NOT using ECPs, check your basis set inputs!
    5     -1288.404972    0.483421    0.001936  0.000500

                      ***********************HURRAY********************
                      ***            THE IRC HAS CONVERGED          ***
                      *************************************************


---------------------------------------------------------------
                       IRC PATH SUMMARY              
---------------------------------------------------------------
All gradients are in Eh/Bohr.

Step        E(Eh)      dE(kcal/mol)  max(|G|)   RMS(G) 
   1     -1288.404972    0.483421    0.001936  0.000500
   2     -1288.404920    0.515499    0.002720  0.000609
   3     -1288.404591    0.721996    0.002576  0.000711
   4     -1288.403844    1.190748    0.006888  0.001612
   5     -1288.402415    2.087462    0.019776  0.003448
   6     -1288.400628    3.208897    0.035947  0.005679
   7     -1288.405742    0.000000    0.000086  0.000032 <= TS
   8     -1288.403183    1.605877    0.038811  0.005555
   9     -1288.404660    0.679052    0.021756  0.003305
  10     -1288.405855   -0.070848    0.005003  0.001347
  11     -1288.406394   -0.409105    0.002261  0.000506
  12     -1288.406435   -0.434895    0.002482  0.000483
  13     -1288.406452   -0.445666    0.001203  0.000358

Timings for individual modules:

Sum of individual times         ...     3064.432 sec (=  51.074 min)
GTO integral calculation        ...       87.018 sec (=   1.450 min)   2.8 %
SCF iterations                  ...     2574.391 sec (=  42.907 min)  84.0 %
SCF Gradient evaluation         ...      403.024 sec (=   6.717 min)  13.2 %
================================================================================

cite the ECPs for Ir [Def2-ECP] as follows:
Ce-Yb(ecp-28): M. Dolg, H. Stoll, H.Preuss, J. Chem. Phys., 1989, 90, 1730-1734.
Y-Cd(ecp-28), Hf-Hg(ecp-46): D. Andrae,U. Haeussermann, M. Dolg, H. Stoll, H. Preuss, Theor. Chim. Acta, 1990, 77, 123-141.
In-Sb(ecp-28), Tl-Bi(ecp-46): B. Metz, H. Stoll, M. Dolg, J. Chem. Phys., 2000, 113, 2563-2569.
Te-Xe(ecp-28), Po-Rn(ecp-46): K. A. Peterson, D. Figgen, E. Goll, H. Stoll, M. Dolg, J. Chem. Phys., 2003, 119, 11113-11123.
Rb(ecp-28), Cs(ecp-46): T. Leininger, A. Nicklass, W. Kuechle, H. Stoll, M. Dolg, A. Bergner, Chem. Phys. Lett., 1996, 255, 274-280.
Sr(ecp-28), Ba(ecp-46): M. Kaupp, P. V. Schleyer, H. Stoll and H. Preuss, J. Chem. Phys., 1991, 94, 1360-1366.
La(ecp-46): M. Dolg, H. Stoll, A. Savin, H. Preuss, Theor. Chim. Acta, 1989, 75, 173-194.
Lu(ecp-28): X. Cao, M. Dolg, J. Chem. Phys., 2001, 115, 7348-7355.

ECP parameters for Ir [Def2-ECP] have been obtained from:
TURBOMOLE (7.0.2)

----- Orbital basis set information -----
Your calculation utilizes the basis: def2-SVP
   F. Weigend and R. Ahlrichs, Phys. Chem. Chem. Phys. 7, 3297 (2005).

                             ****ORCA TERMINATED NORMALLY****
TOTAL RUN TIME: 0 days 2 hours 15 minutes 35 seconds 833 msec
