
                                 *****************
                                 * O   R   C   A *
                                 *****************

                                            #,                                       
                                            ###                                      
                                            ####                                     
                                            #####                                    
                                            ######                                   
                                           ########,                                 
                                     ,,################,,,,,                         
                               ,,#################################,,                 
                          ,,##########################################,,             
                       ,#########################################, ''#####,          
                    ,#############################################,,   '####,        
                  ,##################################################,,,,####,       
                ,###########''''           ''''###############################       
              ,#####''   ,,,,##########,,,,          '''####'''          '####       
            ,##' ,,,,###########################,,,                        '##       
           ' ,,###''''                  '''############,,,                           
         ,,##''                                '''############,,,,        ,,,,,,###''
      ,#''                                            '''#######################'''  
     '                                                          ''''####''''         
             ,#######,   #######,   ,#######,      ##                                
            ,#'     '#,  ##    ##  ,#'     '#,    #''#        ######   ,####,        
            ##       ##  ##   ,#'  ##            #'  '#       #        #'  '#        
            ##       ##  #######   ##           ,######,      #####,   #    #        
            '#,     ,#'  ##    ##  '#,     ,#' ,#      #,         ##   #,  ,#        
             '#######'   ##     ##  '#######'  #'      '#     #####' # '####'        



                  #######################################################
                  #                        -***-                        #
                  #          Department of theory and spectroscopy      #
                  #    Directorship and core code : Frank Neese         #
                  #        Max Planck Institute fuer Kohlenforschung    #
                  #                Kaiser Wilhelm Platz 1               #
                  #                 D-45470 Muelheim/Ruhr               #
                  #                      Germany                        #
                  #                                                     #
                  #                  All rights reserved                #
                  #                        -***-                        #
                  #######################################################


                         Program Version 5.0.3 -  RELEASE  -


 With contributions from (in alphabetic order):
   Daniel Aravena         : Magnetic Suceptibility
   Michael Atanasov       : Ab Initio Ligand Field Theory (pilot matlab implementation)
   Alexander A. Auer      : GIAO ZORA, VPT2 properties, NMR spectrum
   Ute Becker             : Parallelization
   Giovanni Bistoni       : ED, misc. LED, open-shell LED, HFLD
   Martin Brehm           : Molecular dynamics
   Dmytro Bykov           : SCF Hessian
   Vijay G. Chilkuri      : MRCI spin determinant printing, contributions to CSF-ICE
   Dipayan Datta          : RHF DLPNO-CCSD density
   Achintya Kumar Dutta   : EOM-CC, STEOM-CC
   Dmitry Ganyushin       : Spin-Orbit,Spin-Spin,Magnetic field MRCI
   Miquel Garcia          : C-PCM and meta-GGA Hessian, CC/C-PCM, Gaussian charge scheme
   Yang Guo               : DLPNO-NEVPT2, F12-NEVPT2, CIM, IAO-localization
   Andreas Hansen         : Spin unrestricted coupled pair/coupled cluster methods
   Benjamin Helmich-Paris : MC-RPA, TRAH-SCF, COSX integrals
   Lee Huntington         : MR-EOM, pCC
   Robert Izsak           : Overlap fitted RIJCOSX, COSX-SCS-MP3, EOM
   Marcus Kettner         : VPT2
   Christian Kollmar      : KDIIS, OOCD, Brueckner-CCSD(T), CCSD density, CASPT2, CASPT2-K
   Simone Kossmann        : Meta GGA functionals, TD-DFT gradient, OOMP2, MP2 Hessian
   Martin Krupicka        : Initial AUTO-CI
   Lucas Lang             : DCDCAS
   Marvin Lechner         : AUTO-CI (C++ implementation), FIC-MRCC
   Dagmar Lenk            : GEPOL surface, SMD
   Dimitrios Liakos       : Extrapolation schemes; Compound Job, initial MDCI parallelization
   Dimitrios Manganas     : Further ROCIS development; embedding schemes
   Dimitrios Pantazis     : SARC Basis sets
   Anastasios Papadopoulos: AUTO-CI, single reference methods and gradients
   Taras Petrenko         : DFT Hessian,TD-DFT gradient, ASA, ECA, R-Raman, ABS, FL, XAS/XES, NRVS
   Peter Pinski           : DLPNO-MP2, DLPNO-MP2 Gradient
   Christoph Reimann      : Effective Core Potentials
   Marius Retegan         : Local ZFS, SOC
   Christoph Riplinger    : Optimizer, TS searches, QM/MM, DLPNO-CCSD(T), (RO)-DLPNO pert. Triples
   Tobias Risthaus        : Range-separated hybrids, TD-DFT gradient, RPA, STAB
   Michael Roemelt        : Original ROCIS implementation
   Masaaki Saitow         : Open-shell DLPNO-CCSD energy and density
   Barbara Sandhoefer     : DKH picture change effects
   Avijit Sen             : IP-ROCIS
   Kantharuban Sivalingam : CASSCF convergence, NEVPT2, FIC-MRCI
   Bernardo de Souza      : ESD, SOC TD-DFT
   Georgi Stoychev        : AutoAux, RI-MP2 NMR, DLPNO-MP2 response
   Willem Van den Heuvel  : Paramagnetic NMR
   Boris Wezisla          : Elementary symmetry handling
   Frank Wennmohs         : Technical directorship


 We gratefully acknowledge several colleagues who have allowed us to
 interface, adapt or use parts of their codes:
   Stefan Grimme, W. Hujo, H. Kruse, P. Pracht,  : VdW corrections, initial TS optimization,
                  C. Bannwarth, S. Ehlert          DFT functionals, gCP, sTDA/sTD-DF
   Ed Valeev, F. Pavosevic, A. Kumar             : LibInt (2-el integral package), F12 methods
   Garnet Chan, S. Sharma, J. Yang, R. Olivares  : DMRG
   Ulf Ekstrom                                   : XCFun DFT Library
   Mihaly Kallay                                 : mrcc  (arbitrary order and MRCC methods)
   Jiri Pittner, Ondrej Demel                    : Mk-CCSD
   Frank Weinhold                                : gennbo (NPA and NBO analysis)
   Christopher J. Cramer and Donald G. Truhlar   : smd solvation model
   Lars Goerigk                                  : TD-DFT with DH, B97 family of functionals
   V. Asgeirsson, H. Jonsson                     : NEB implementation
   FAccTs GmbH                                   : IRC, NEB, NEB-TS, DLPNO-Multilevel, CI-OPT
                                                   MM, QMMM, 2- and 3-layer-ONIOM, Crystal-QMMM,
                                                   LR-CPCM, SF, NACMEs, symmetry and pop. for TD-DFT,
                                                   nearIR, NL-DFT gradient (VV10), updates on ESD,
                                                   ML-optimized integration grids
   S Lehtola, MJT Oliveira, MAL Marques          : LibXC Library
   Liviu Ungur et al                             : ANISO software


 Your calculation uses the libint2 library for the computation of 2-el integrals
 For citations please refer to: http://libint.valeyev.net

 Your ORCA version has been built with support for libXC version: 5.1.0
 For citations please refer to: https://tddft.org/programs/libxc/

 This ORCA versions uses:
   CBLAS   interface :  Fast vector & matrix operations
   LAPACKE interface :  Fast linear algebra routines
   SCALAPACK package :  Parallel linear algebra routines
   Shared memory     :  Shared parallel matrices
   BLAS/LAPACK       :  OpenBLAS 0.3.15  USE64BITINT DYNAMIC_ARCH NO_AFFINITY SkylakeX SINGLE_THREADED
        Core in use  :  SkylakeX
   Copyright (c) 2011-2014, The OpenBLAS Project


Your calculation utilizes the geometrical counterpoise correction gCP
Please cite in your paper:
H.Kruse, S. Grimme J.Chem.Phys., 136, (2012), 154101 
   

Your calculation utilizes the atom-pairwise dispersion correction
with the Becke-Johnson damping scheme (D3BJ)
Cite in your paper:
S.Grimme, S.Ehrlich, L.Goerigk, J Comput Chem, (2011), 32, 1456–1465 
S.Grimme, J.Antony, S.Ehrlich and H.Krieg, J.Chem.Phys., 132, (2010), 154104 
   

Your calculation employs the composite approach PBEh-3c.
Please cite in your paper:
S. Grimme, J. G. Brandenburg, C. Bannwarth, A. Hansen J.Chem.Phys., 143, (2015), 054107 
   

================================================================================

cite the ECPs for Ir [Def2-ECP] as follows:
Ce-Yb(ecp-28): M. Dolg, H. Stoll, H.Preuss, J. Chem. Phys., 1989, 90, 1730-1734.
Y-Cd(ecp-28), Hf-Hg(ecp-46): D. Andrae,U. Haeussermann, M. Dolg, H. Stoll, H. Preuss, Theor. Chim. Acta, 1990, 77, 123-141.
In-Sb(ecp-28), Tl-Bi(ecp-46): B. Metz, H. Stoll, M. Dolg, J. Chem. Phys., 2000, 113, 2563-2569.
Te-Xe(ecp-28), Po-Rn(ecp-46): K. A. Peterson, D. Figgen, E. Goll, H. Stoll, M. Dolg, J. Chem. Phys., 2003, 119, 11113-11123.
Rb(ecp-28), Cs(ecp-46): T. Leininger, A. Nicklass, W. Kuechle, H. Stoll, M. Dolg, A. Bergner, Chem. Phys. Lett., 1996, 255, 274-280.
Sr(ecp-28), Ba(ecp-46): M. Kaupp, P. V. Schleyer, H. Stoll and H. Preuss, J. Chem. Phys., 1991, 94, 1360-1366.
La(ecp-46): M. Dolg, H. Stoll, A. Savin, H. Preuss, Theor. Chim. Acta, 1989, 75, 173-194.
Lu(ecp-28): X. Cao, M. Dolg, J. Chem. Phys., 2001, 115, 7348-7355.

ECP parameters for Ir [Def2-ECP] have been obtained from:
TURBOMOLE (7.0.2)

----- Orbital basis set information -----
Your calculation utilizes the basis: def2-mSVP

----- AuxJ basis set information -----
Your calculation utilizes the auxiliary basis: def2/J
   F. Weigend, Phys. Chem. Chem. Phys. 8, 1057 (2006).

================================================================================
                                        WARNINGS
                       Please study these warnings very carefully!
================================================================================


WARNING: No Hueckel Guess possible with ECP basis!
  ===> : Switching to HCORE guess!

INFO   : the flag for use of the SHARK integral package has been found!

================================================================================
                                       INPUT FILE
================================================================================
NAME = 5_4_orca.inp
|  1> ! EnGrad PBEh-3c
|  2> %output 
|  3> xyzfile=True 
|  4> end 
|  5> %scf 
|  6> maxiter 250 
|  7> end
|  8> %output
|  9> Print[P_Hirshfeld] = 1
| 10> end
| 11> % maxcore
| 12> 4000
| 13> *xyz 1 1
| 14> Ir   0.56539161  -0.78011261   0.51067023 
| 15> C    0.11828964  -2.92316313   0.96004272 
| 16> C    0.03879361  -2.26308009   2.21080246 
| 17> C    2.15367206  -1.94144992   1.35124028 
| 18> C    1.40848093  -2.76837447   0.43856302 
| 19> C    1.31749890  -1.68420835   2.44152437 
| 20> N   -1.13031465  -0.15654308  -0.53584535 
| 21> C   -2.51031458  -0.18451111   0.02651817 
| 22> C   -2.75219560   0.98328638   0.95934932 
| 23> H   -3.75999586   0.91357754   1.38261955 
| 24> H   -2.68314495   1.92041857   0.42028414 
| 25> H   -2.06254073   0.99307248   1.79372275 
| 26> C   -3.61226161  -0.27723726  -1.01146711 
| 27> H   -2.55530764  -1.08536871   0.60702346 
| 28> H   -4.56813976  -0.44940143  -0.49511474 
| 29> H   -3.72861481   0.63732498  -1.58183294 
| 30> H   -3.47378511  -1.11529674  -1.68504568 
| 31> C   -0.91792837   0.21372737  -1.74944482 
| 32> C    0.40867879   0.17330296  -2.31138865 
| 33> H   -1.73357957   0.53419561  -2.36871241 
| 34> C    1.47431223  -0.20248975  -1.49842321 
| 35> C    2.67262245  -0.27382781  -2.34364179 
| 36> S    0.80703842   0.39621068  -3.97219551 
| 37> C    2.44199231   0.04313709  -3.66303004 
| 38> H    2.20385924   1.33213745  -0.77056046 
| 39> H    3.67091337  -0.50522539  -1.99941854 
| 40> H    3.17819487   0.05272922  -4.45479327 
| 41> H   -0.59805650  -3.62892889   0.57252035 
| 42> H   -0.74612644  -2.31956493   2.92984405 
| 43> H    1.58967030  -1.19338988   3.35225370 
| 44> O    2.12286886   2.12984875   0.02762833 
| 45> O    0.45367673   1.21155455   1.27811361 
| 46> C    1.19363503   2.17858978   0.95232838 
| 47> C    1.01997681   3.51614641   1.70258942 
| 48> H    0.90963798   4.32551686   0.98586395 
| 49> H    1.92099736   3.73064911   2.27985941 
| 50> H    0.17222868   3.49609489   2.37255723 
| 51> H    3.19730634  -1.71610484   1.28336506 
| 52> H    1.79188078  -3.31488598  -0.39791080 
| 53> *
| 54> 
| 55>                          ****END OF INPUT****
================================================================================

                     *******************************
                     * Energy+Gradient Calculation *
                     *******************************

---------------------------------
CARTESIAN COORDINATES (ANGSTROEM)
---------------------------------
  Ir     0.565392   -0.780113    0.510670
  C      0.118290   -2.923163    0.960043
  C      0.038794   -2.263080    2.210802
  C      2.153672   -1.941450    1.351240
  C      1.408481   -2.768374    0.438563
  C      1.317499   -1.684208    2.441524
  N     -1.130315   -0.156543   -0.535845
  C     -2.510315   -0.184511    0.026518
  C     -2.752196    0.983286    0.959349
  H     -3.759996    0.913578    1.382620
  H     -2.683145    1.920419    0.420284
  H     -2.062541    0.993072    1.793723
  C     -3.612262   -0.277237   -1.011467
  H     -2.555308   -1.085369    0.607023
  H     -4.568140   -0.449401   -0.495115
  H     -3.728615    0.637325   -1.581833
  H     -3.473785   -1.115297   -1.685046
  C     -0.917928    0.213727   -1.749445
  C      0.408679    0.173303   -2.311389
  H     -1.733580    0.534196   -2.368712
  C      1.474312   -0.202490   -1.498423
  C      2.672622   -0.273828   -2.343642
  S      0.807038    0.396211   -3.972196
  C      2.441992    0.043137   -3.663030
  H      2.203859    1.332137   -0.770560
  H      3.670913   -0.505225   -1.999419
  H      3.178195    0.052729   -4.454793
  H     -0.598056   -3.628929    0.572520
  H     -0.746126   -2.319565    2.929844
  H      1.589670   -1.193390    3.352254
  O      2.122869    2.129849    0.027628
  O      0.453677    1.211555    1.278114
  C      1.193635    2.178590    0.952328
  C      1.019977    3.516146    1.702589
  H      0.909638    4.325517    0.985864
  H      1.920997    3.730649    2.279859
  H      0.172229    3.496095    2.372557
  H      3.197306   -1.716105    1.283365
  H      1.791881   -3.314886   -0.397911

----------------------------
CARTESIAN COORDINATES (A.U.)
----------------------------
  NO LB      ZA    FRAG     MASS         X           Y           Z
   0 Ir   17.0000*   0   192.220    1.068435   -1.474199    0.965027
   1 C     6.0000    0    12.011    0.223535   -5.523978    1.814218
   2 C     6.0000    0    12.011    0.073309   -4.276602    4.177811
   3 C     6.0000    0    12.011    4.069850   -3.668809    2.553474
   4 C     6.0000    0    12.011    2.661643   -5.231470    0.828764
   5 C     6.0000    0    12.011    2.489712   -3.182693    4.613812
   6 N     7.0000    0    14.007   -2.135985   -0.295824   -1.012601
   7 C     6.0000    0    12.011   -4.743807   -0.348675    0.050112
   8 C     6.0000    0    12.011   -5.200896    1.858142    1.812907
   9 H     1.0000    0     1.008   -7.105362    1.726411    2.612772
  10 H     1.0000    0     1.008   -5.070409    3.629065    0.794222
  11 H     1.0000    0     1.008   -3.897637    1.876635    3.389645
  12 C     6.0000    0    12.011   -6.826185   -0.523902   -1.911396
  13 H     1.0000    0     1.008   -4.828832   -2.051050    1.147108
  14 H     1.0000    0     1.008   -8.632533   -0.849246   -0.935631
  15 H     1.0000    0     1.008   -7.046061    1.204370   -2.989231
  16 H     1.0000    0     1.008   -6.564503   -2.107605   -3.184275
  17 C     6.0000    0    12.011   -1.734633    0.403886   -3.305972
  18 C     6.0000    0    12.011    0.772291    0.327495   -4.367892
  19 H     1.0000    0     1.008   -3.275991    1.009483   -4.476218
  20 C     6.0000    0    12.011    2.786046   -0.382650   -2.831609
  21 C     6.0000    0    12.011    5.050524   -0.517460   -4.428841
  22 S    16.0000    0    32.060    1.525082    0.748730   -7.506362
  23 C     6.0000    0    12.011    4.614697    0.081517   -6.922124
  24 H     1.0000    0     1.008    4.164690    2.517375   -1.456148
  25 H     1.0000    0     1.008    6.937021   -0.954738   -3.778353
  26 H     1.0000    0     1.008    6.005918    0.099644   -8.418339
  27 H     1.0000    0     1.008   -1.130163   -6.857682    1.081907
  28 H     1.0000    0     1.008   -1.409975   -4.383342    5.536603
  29 H     1.0000    0     1.008    3.004042   -2.255180    6.334841
  30 O     8.0000    0    15.999    4.011641    4.024831    0.052210
  31 O     8.0000    0    15.999    0.857325    2.289506    2.415285
  32 C     6.0000    0    12.011    2.255643    4.116938    1.799640
  33 C     6.0000    0    12.011    1.927477    6.644554    3.217428
  34 H     1.0000    0     1.008    1.718967    8.174042    1.863013
  35 H     1.0000    0     1.008    3.630159    7.049905    4.308310
  36 H     1.0000    0     1.008    0.325465    6.606662    4.483483
  37 H     1.0000    0     1.008    6.042033   -3.242968    2.425208
  38 H     1.0000    0     1.008    3.386164   -6.264227   -0.751942
* core charge reduced due to ECP

--------------------------------
INTERNAL COORDINATES (ANGSTROEM)
--------------------------------
 Ir     0   0   0     0.000000000000     0.00000000     0.00000000
 C      1   0   0     2.234838100986     0.00000000     0.00000000
 C      2   1   0     1.416484791901    75.04365088     0.00000000
 C      1   2   3     2.139602099552    63.19375445    78.71857395
 C      2   1   3     1.400176478723    68.57748151   241.92107953
 C      4   1   2     1.397883462864    76.26058233   283.82296634
 N      1   2   3     2.087930443796   102.98486724   250.39892150
 C      7   1   2     1.490447834085   123.86532837    60.02062098
 C      8   7   1     1.514077725844   111.46339963    78.61006848
 H      9   8   7     1.095298303676   109.63300561   182.03940139
 H      9   8   7     1.083317129048   110.51500818    63.32979009
 H      9   8   7     1.082542668054   112.33757011   300.60711372
 C      8   7   1     1.516673609356   114.55938713   205.22205491
 H      8   7   1     1.072639353485   104.99863677   322.02273602
 H     13   8   7     1.099983322184   108.64349744   171.25326170
 H     13   8   7     1.084103010795   112.73491028   289.17999412
 H     13   8   7     1.084079112903   112.31436183    53.87871838
 C      7   1   2     1.286480396920   115.13206532   242.79733497
 C     18   7   1     1.441284690116   120.77618722     0.56222752
 H     18   7   1     1.073069951557   120.32296016   178.94925658
 C     19  18   7     1.392015659384   118.97904373   356.44898833
 C     21  19  18     1.468138600452   107.56145653   175.04519955
 S     19  18   7     1.722398813479   125.81701448   169.76495891
 C     22  21  19     1.376387432210   113.82288033     0.32226989
 H     21  19  18     1.848540955894   107.93664232   267.43482463
 H     22  21  19     1.081026940841   125.50858721   177.66086752
 H     24  22  21     1.081191579087   126.15182282   180.14705342
 H      2   1   3     1.077696936774   133.52435853   125.58646426
 H      3   2   1     1.065978813200   127.75233022   130.07411015
 H      6   4   1     1.069770047250   126.60130063   237.77009887
 O     25  21  19     1.131374431513   146.60402823    80.07772469
 O      1   2   3     2.137331895645   144.18580243   344.56567102
 C     32   1   2     1.260488571105   126.25762987   154.39217530
 C     33  32   1     1.543407445872   118.24070721   184.54964941
 H     34  33  32     1.086715501907   109.64984805   230.91015309
 H     34  33  32     1.091370734986   109.54579339   114.20797792
 H     34  33  32     1.080710794713   111.93384440   353.35296814
 H      4   1   2     1.069841091453   125.79506997   158.52040560
 H      5   2   1     1.070214336985   124.38483303   232.55234671

---------------------------
INTERNAL COORDINATES (A.U.)
---------------------------
 Ir     0   0   0     0.000000000000     0.00000000     0.00000000
 C      1   0   0     4.223231964516     0.00000000     0.00000000
 C      2   1   0     2.676768329557    75.04365088     0.00000000
 C      1   2   3     4.043262003716    63.19375445    78.71857395
 C      2   1   3     2.645950083944    68.57748151   241.92107953
 C      4   1   2     2.641616911950    76.26058233   283.82296634
 N      1   2   3     3.945616725451   102.98486724   250.39892150
 C      7   1   2     2.816538223317   123.86532837    60.02062098
 C      8   7   1     2.861192247315   111.46339963    78.61006848
 H      9   8   7     2.069813828895   109.63300561   182.03940139
 H      9   8   7     2.047172690086   110.51500818    63.32979009
 H      9   8   7     2.045709170907   112.33757011   300.60711372
 C      8   7   1     2.866097756228   114.55938713   205.22205491
 H      8   7   1     2.026994618552   104.99863677   322.02273602
 H     13   8   7     2.078667230809   108.64349744   171.25326170
 H     13   8   7     2.048657791363   112.73491028   289.17999412
 H     13   8   7     2.048612630892   112.31436183    53.87871838
 C      7   1   2     2.431095626837   115.13206532   242.79733497
 C     18   7   1     2.723633345332   120.77618722     0.56222752
 H     18   7   1     2.027808330983   120.32296016   178.94925658
 C     19  18   7     2.630528370365   118.97904373   356.44898833
 C     21  19  18     2.774379881493   107.56145653   175.04519955
 S     19  18   7     3.254862050865   125.81701448   169.76495891
 C     22  21  19     2.600995301049   113.82288033     0.32226989
 H     21  19  18     3.493236153977   107.93664232   267.43482463
 H     22  21  19     2.042844861581   125.50858721   177.66086752
 H     24  22  21     2.043155982776   126.15182282   180.14705342
 H      2   1   3     2.036552065868   133.52435853   125.58646426
 H      3   2   1     2.014408021511   127.75233022   130.07411015
 H      6   4   1     2.021572415575   126.60130063   237.77009887
 O     25  21  19     2.137987830481   146.60402823    80.07772469
 O      1   2   3     4.038971940064   144.18580243   344.56567102
 C     32   1   2     2.381978194326   126.25762987   154.39217530
 C     33  32   1     2.916617385753   118.24070721   184.54964941
 H     34  33  32     2.053594684092   109.64984805   230.91015309
 H     34  33  32     2.062391799700   109.54579339   114.20797792
 H     34  33  32     2.042247431980   111.93384440   353.35296814
 H      4   1   2     2.021706669662   125.79506997   158.52040560
 H      5   2   1     2.022412001497   124.38483303   232.55234671

---------------------
BASIS SET INFORMATION
---------------------
There are 6 groups of distinct atoms

 Group   1 Type Ir  : 7s6p5d1f contracted to 6s3p2d1f pattern {211111/411/41/1}
 Group   2 Type C   : 8s4p1d contracted to 4s2p1d pattern {5111/31/1}
 Group   3 Type N   : 8s4p1d contracted to 4s2p1d pattern {5111/31/1}
 Group   4 Type H   : 4s contracted to 2s pattern {31}
 Group   5 Type S   : 10s7p1d contracted to 4s3p1d pattern {5311/511/1}
 Group   6 Type O   : 8s4p1d contracted to 4s2p1d pattern {5111/31/1}

Atom   0Ir   basis set group =>   1
Atom   1C    basis set group =>   2
Atom   2C    basis set group =>   2
Atom   3C    basis set group =>   2
Atom   4C    basis set group =>   2
Atom   5C    basis set group =>   2
Atom   6N    basis set group =>   3
Atom   7C    basis set group =>   2
Atom   8C    basis set group =>   2
Atom   9H    basis set group =>   4
Atom  10H    basis set group =>   4
Atom  11H    basis set group =>   4
Atom  12C    basis set group =>   2
Atom  13H    basis set group =>   4
Atom  14H    basis set group =>   4
Atom  15H    basis set group =>   4
Atom  16H    basis set group =>   4
Atom  17C    basis set group =>   2
Atom  18C    basis set group =>   2
Atom  19H    basis set group =>   4
Atom  20C    basis set group =>   2
Atom  21C    basis set group =>   2
Atom  22S    basis set group =>   5
Atom  23C    basis set group =>   2
Atom  24H    basis set group =>   4
Atom  25H    basis set group =>   4
Atom  26H    basis set group =>   4
Atom  27H    basis set group =>   4
Atom  28H    basis set group =>   4
Atom  29H    basis set group =>   4
Atom  30O    basis set group =>   6
Atom  31O    basis set group =>   6
Atom  32C    basis set group =>   2
Atom  33C    basis set group =>   2
Atom  34H    basis set group =>   4
Atom  35H    basis set group =>   4
Atom  36H    basis set group =>   4
Atom  37H    basis set group =>   4
Atom  38H    basis set group =>   4
---------------------------------
AUXILIARY/J BASIS SET INFORMATION
---------------------------------
There are 6 groups of distinct atoms

 Group   1 Type Ir  : 11s5p5d3f3g contracted to 8s5p5d2f3g pattern {41111111/11111/11111/21/111}
 Group   2 Type C   : 12s5p4d2f1g contracted to 6s4p3d1f1g pattern {711111/2111/211/2/1}
 Group   3 Type N   : 12s5p4d2f1g contracted to 6s4p3d1f1g pattern {711111/2111/211/2/1}
 Group   4 Type H   : 5s2p1d contracted to 3s1p1d pattern {311/2/1}
 Group   5 Type S   : 14s5p5d2f1g contracted to 8s4p3d1f1g pattern {71111111/2111/311/2/1}
 Group   6 Type O   : 12s5p4d2f1g contracted to 6s4p3d1f1g pattern {711111/2111/211/2/1}

Atom   0Ir   basis set group =>   1
Atom   1C    basis set group =>   2
Atom   2C    basis set group =>   2
Atom   3C    basis set group =>   2
Atom   4C    basis set group =>   2
Atom   5C    basis set group =>   2
Atom   6N    basis set group =>   3
Atom   7C    basis set group =>   2
Atom   8C    basis set group =>   2
Atom   9H    basis set group =>   4
Atom  10H    basis set group =>   4
Atom  11H    basis set group =>   4
Atom  12C    basis set group =>   2
Atom  13H    basis set group =>   4
Atom  14H    basis set group =>   4
Atom  15H    basis set group =>   4
Atom  16H    basis set group =>   4
Atom  17C    basis set group =>   2
Atom  18C    basis set group =>   2
Atom  19H    basis set group =>   4
Atom  20C    basis set group =>   2
Atom  21C    basis set group =>   2
Atom  22S    basis set group =>   5
Atom  23C    basis set group =>   2
Atom  24H    basis set group =>   4
Atom  25H    basis set group =>   4
Atom  26H    basis set group =>   4
Atom  27H    basis set group =>   4
Atom  28H    basis set group =>   4
Atom  29H    basis set group =>   4
Atom  30O    basis set group =>   6
Atom  31O    basis set group =>   6
Atom  32C    basis set group =>   2
Atom  33C    basis set group =>   2
Atom  34H    basis set group =>   4
Atom  35H    basis set group =>   4
Atom  36H    basis set group =>   4
Atom  37H    basis set group =>   4
Atom  38H    basis set group =>   4
-------------------------
ECP PARAMETER INFORMATION
-------------------------

 Group 1, Type Ir ECP Def2-ECP (replacing 60 core electrons, lmax=3)

Atom   0Ir   ECP group =>   1

------------------------------------------------------------------------------
                           ORCA GTO INTEGRAL CALCULATION
                           -- RI-GTO INTEGRALS CHOSEN --
------------------------------------------------------------------------------
------------------------------------------------------------------------------
                   ___                                                        
                  /   \      - P O W E R E D   B Y -                         
                 /     \                                                     
                 |  |  |   _    _      __       _____    __    __             
                 |  |  |  | |  | |    /  \     |  _  \  |  |  /  |          
                  \  \/   | |  | |   /    \    | | | |  |  | /  /          
                 / \  \   | |__| |  /  /\  \   | |_| |  |  |/  /          
                |  |  |   |  __  | /  /__\  \  |    /   |      \           
                |  |  |   | |  | | |   __   |  |    \   |  |\   \          
                \     /   | |  | | |  |  |  |  | |\  \  |  | \   \       
                 \___/    |_|  |_| |__|  |__|  |_| \__\ |__|  \__/        
                                                                              
                      - O R C A' S   B I G   F R I E N D -                    
                                      &                                       
                       - I N T E G R A L  F E E D E R -                       
                                                                              
 v1 FN, 2020, v2 2021                                                         
------------------------------------------------------------------------------


Reading SHARK input file 5_4_orca.SHARKINP.tmp ... ok
----------------------
SHARK INTEGRAL PACKAGE
----------------------

Number of atoms                             ...     39
Number of basis functions                   ...    358
Number of shells                            ...    184
Maximum angular momentum                    ...      3
Integral batch strategy                     ... SHARK/LIBINT Hybrid
RI-J (if used) integral strategy            ... SPLIT-RIJ (Revised 2003 algorithm where possible)
Printlevel                                  ...      1
Contraction scheme used                     ... SEGMENTED contraction
Coulomb Range Separation                    ... NOT USED
Exchange Range Separation                   ... NOT USED
Finite Nucleus Model                        ... NOT USED
Auxiliary Coulomb fitting basis             ... AVAILABLE
   # of basis functions in Aux-J            ...   1231
   # of shells in Aux-J                     ...    405
   Maximum angular momentum in Aux-J        ...      4
Auxiliary J/K fitting basis                 ... NOT available
Auxiliary Correlation fitting basis         ... NOT available
Auxiliary 'external' fitting basis          ... NOT available
Integral threshold                          ...     2.500000e-11
Primitive cut-off                           ...     2.500000e-12
Primitive pair pre-selection threshold      ...     2.500000e-12

Calculating pre-screening integrals         ... done (  0.1 sec) Dimension = 184
Organizing shell pair data                  ... done (  0.1 sec)
Shell pair information
Total number of shell pairs                 ...     17020
Shell pairs after pre-screening             ...     12711
Total number of primitive shell pairs       ...     60705
Primitive shell pairs kept                  ...     28460
          la=0 lb=0:   4845 shell pairs
          la=1 lb=0:   4203 shell pairs
          la=1 lb=1:    850 shell pairs
          la=2 lb=0:   1693 shell pairs
          la=2 lb=1:    777 shell pairs
          la=2 lb=2:    169 shell pairs
          la=3 lb=0:    111 shell pairs
          la=3 lb=1:     41 shell pairs
          la=3 lb=2:     21 shell pairs
          la=3 lb=3:      1 shell pairs

Calculating one electron integrals          ... done (  0.1 sec)
Calculating ECP integrals                   ... done (  0.8 sec)
Calculating RI/J V-Matrix + Cholesky decomp.... done (  0.1 sec)
Calculating Nuclear repulsion               ... done (  0.0 sec) ENN=   1992.626040216509 Eh

SHARK setup successfully completed in   1.5 seconds

Maximum memory used throughout the entire GTOINT-calculation: 88.6 MB
-------------------------------------------------------------------------------
                                 ORCA SCF
-------------------------------------------------------------------------------

------------
SCF SETTINGS
------------
Hamiltonian:
 Density Functional     Method          .... DFT(GTOs)
 Exchange Functional    Exchange        .... PBE
   PBE kappa parameter   XKappa         ....  1.024500
   PBE mue parameter    XMuePBE         ....  0.123457
 Correlation Functional Correlation     .... PBE
   PBE beta parameter  CBetaPBE         ....  0.030000
 LDA part of GGA corr.  LDAOpt          .... PW91-LDA
 Gradients option       PostSCFGGA      .... off
 Hybrid DFT is turned on
   Fraction HF Exchange ScalHFX         ....  0.420000
   Scaling of DF-GGA-X  ScalDFX         ....  0.580000
   Scaling of DF-GGA-C  ScalDFC         ....  1.000000
   Scaling of DF-LDA-C  ScalLDAC        ....  1.000000
   Perturbative correction              ....  0.000000
   Density functional embedding theory  .... OFF
 RI-approximation to the Coulomb term is turned on
   Number of AuxJ basis functions       .... 1231
   RIJ-ON(X) (HFX calculated with O(N)) .... on
   Number of AuxJ basis functions       .... 1231
   RIJ-COSX (HFX calculated with COS-X)).... on


General Settings:
 Integral files         IntName         .... 5_4_orca
 Hartree-Fock type      HFTyp           .... RHF
 Total Charge           Charge          ....    1
 Multiplicity           Mult            ....    1
 Number of Electrons    NEL             ....  164
 Basis Dimension        Dim             ....  358
 Nuclear Repulsion      ENuc            ....   1992.6260402165 Eh

Convergence Acceleration:
 DIIS                   CNVDIIS         .... on
   Start iteration      DIISMaxIt       ....    12
   Startup error        DIISStart       ....  0.200000
   # of expansion vecs  DIISMaxEq       ....     5
   Bias factor          DIISBfac        ....   1.050
   Max. coefficient     DIISMaxC        ....  10.000
 Trust-Rad. Augm. Hess. CNVTRAH         .... auto
   Auto Start mean grad. ratio tolernc. ....  1.125000
   Auto Start start iteration           ....    20
   Auto Start num. interpolation iter.  ....    10
   Max. Number of Micro iterations      ....    16
   Max. Number of Macro iterations      .... Maxiter - #DIIS iter
   Number of Davidson start vectors     ....     2
   Converg. threshold I  (grad. norm)   ....   1.000e-05
   Converg. threshold II (energy diff.) ....   1.000e-08
   Grad. Scal. Fac. for Micro threshold ....   0.100
   Minimum threshold for Micro iter.    ....   0.010
   NR start threshold (gradient norm)   ....   0.001
   Initial trust radius                 ....   0.400
   Minimum AH scaling param. (alpha)    ....   1.000
   Maximum AH scaling param. (alpha)    .... 1000.000
   Orbital update algorithm             .... Taylor
   White noise on init. David. guess    .... on
   Maximum white noise                  ....   0.010
   Quad. conv. algorithm                .... NR
   COSX micro iterations for RIJONX calc.... off
 SOSCF                  CNVSOSCF        .... off
 Level Shifting         CNVShift        .... on
   Level shift para.    LevelShift      ....    0.2500
   Turn off err/grad.   ShiftErr        ....    0.0010
 Zerner damping         CNVZerner       .... off
 Static damping         CNVDamp         .... on
   Fraction old density DampFac         ....    0.7000
   Max. Damping (<1)    DampMax         ....    0.9800
   Min. Damping (>=0)   DampMin         ....    0.0000
   Turn off err/grad.   DampErr         ....    0.1000
 Fernandez-Rico         CNVRico         .... off

SCF Procedure:
 Maximum # iterations   MaxIter         ....   250
 SCF integral mode      SCFMode         .... Direct
   Integral package                     .... SHARK and LIBINT hybrid scheme
 Reset frequency        DirectResetFreq ....    20
 Integral Threshold     Thresh          ....  2.500e-11 Eh
 Primitive CutOff       TCut            ....  2.500e-12 Eh

Convergence Tolerance:
 Convergence Check Mode ConvCheckMode   .... Total+1el-Energy
 Convergence forced     ConvForced      .... 0
 Energy Change          TolE            ....  1.000e-08 Eh
 1-El. energy change                    ....  1.000e-05 Eh
 DIIS Error             TolErr          ....  5.000e-07


Diagonalization of the overlap matrix:
Smallest eigenvalue                        ... 1.155e-03
Time for diagonalization                   ...    0.019 sec
Threshold for overlap eigenvalues          ... 1.000e-08
Number of eigenvalues below threshold      ... 0
Time for construction of square roots      ...    0.007 sec
Total time needed                          ...    0.026 sec

--------------------
INITIAL GUESS: HCORE
--------------------
                      -----------------
                      INTIAL GUESS DONE 
                      -----------------
-------------------
DFT GRID GENERATION
-------------------

General Integration Accuracy     IntAcc      ... 4.159
Radial Grid Type                 RadialGrid  ... OptM3 with GC (2021)
Angular Grid (max. ang.)         AngularGrid ... 3 (Lebedev-194)
Angular grid pruning method      GridPruning ... 4 (adaptive)
Weight generation scheme         WeightScheme... Becke
Basis function cutoff            BFCut       ... 1.0000e-11
Integration weight cutoff        WCut        ... 1.0000e-14
Angular grids for H and He will be reduced by one unit
Partially contracted basis set               ... off
Rotationally invariant grid construction     ... off

Total number of grid points                  ...    93590
Total number of batches                      ...     1481
Average number of points per batch           ...       63
Average number of grid points per atom       ...     2400
Time for grid setup =    1.749 sec

--------------------
COSX GRID GENERATION
--------------------

GRIDX 1
-------
General Integration Accuracy     IntAcc      ... 3.816
Radial Grid Type                 RadialGrid  ... OptM3 with GC (2021)
Angular Grid (max. ang.)         AngularGrid ... 1 (Lebedev-50)
Angular grid pruning method      GridPruning ... 4 (adaptive)
Weight generation scheme         WeightScheme... Becke
Basis function cutoff            BFCut       ... 1.0000e-11
Integration weight cutoff        WCut        ... 1.0000e-14
Angular grids for H and He will be reduced by one unit
Partially contracted basis set               ... on
Rotationally invariant grid construction     ... off

Total number of grid points                  ...    23224
Total number of batches                      ...      385
Average number of points per batch           ...       60
Average number of grid points per atom       ...      595
UseSFitting                                  ... on

GRIDX 2
-------
General Integration Accuracy     IntAcc      ... 4.020
Radial Grid Type                 RadialGrid  ... OptM3 with GC (2021)
Angular Grid (max. ang.)         AngularGrid ... 2 (Lebedev-110)
Angular grid pruning method      GridPruning ... 4 (adaptive)
Weight generation scheme         WeightScheme... Becke
Basis function cutoff            BFCut       ... 1.0000e-11
Integration weight cutoff        WCut        ... 1.0000e-14
Angular grids for H and He will be reduced by one unit
Partially contracted basis set               ... on
Rotationally invariant grid construction     ... off

Total number of grid points                  ...    50488
Total number of batches                      ...      810
Average number of points per batch           ...       62
Average number of grid points per atom       ...     1295
UseSFitting                                  ... on

GRIDX 3
-------
General Integration Accuracy     IntAcc      ... 4.338
Radial Grid Type                 RadialGrid  ... OptM3 with GC (2021)
Angular Grid (max. ang.)         AngularGrid ... 3 (Lebedev-194)
Angular grid pruning method      GridPruning ... 4 (adaptive)
Weight generation scheme         WeightScheme... Becke
Basis function cutoff            BFCut       ... 1.0000e-11
Integration weight cutoff        WCut        ... 1.0000e-14
Angular grids for H and He will be reduced by one unit
Partially contracted basis set               ... on
Rotationally invariant grid construction     ... off

Total number of grid points                  ...   109287
Total number of batches                      ...     1726
Average number of points per batch           ...       63
Average number of grid points per atom       ...     2802
UseSFitting                                  ... on

Time for X-Grid setup             =    4.819 sec

--------------
SCF ITERATIONS
--------------
ITER       Energy         Delta-E        Max-DP      RMS-DP      [F,P]     Damp
               ***  Starting incremental Fock matrix formation  ***
  0   -842.9827101456   0.00000000000019.52981053  0.14323252  3.2688684 0.7000
  1  -1089.7995013378-246.816791192223 8.61059456  0.10847706  1.4934645 0.7000
  2  -1166.2954636019 -76.495962264124 5.03964861  0.06203296  1.0569218 0.7000
  3  -1194.9377668045 -28.642303202622 3.60342800  0.04169185  0.7606991 0.7000
  4  -1212.6111764615 -17.673409656998 2.47540570  0.03393159  0.4481575 0.7000
  5  -1227.8725641828 -15.261387721295 2.53219184  0.02843483  0.3686662 0.7000
  6  -1238.5868862490 -10.714322066210 1.78481845  0.02738099  0.3019807 0.7000
  7  -1245.8472803740  -7.260394124953 1.98610738  0.02404486  0.2921964 0.7000
  8  -1249.9697401737  -4.122459799717 1.95101765  0.02672286  0.3481820 0.7000
  9  -1253.6742555473  -3.704515373545 1.67185557  0.02300997  0.3116134 0.7000
 10  -1255.2981233401  -1.623867792812 4.10998169  0.03272532  0.3613653 0.7000
 11  -1257.4121737348  -2.114050394697 2.13041757  0.02520519  0.3160418 0.7000
                               ***Turning on DIIS***
 12  -1256.9003132581   0.511860476698 4.36671581  0.03290377  0.3726970 0.7000
 13  -1258.6922758300  -1.791962571981 2.69818013  0.02330223  0.3197417 0.7000
 14  -1268.0840585792  -9.391782749192 1.90432990  0.01650630  0.2329215 0.7000
 15  -1274.5542914203  -6.470232841105 1.34096423  0.01165304  0.1886188 0.7000
 16  -1278.8596668976  -4.305375477256 0.94392098  0.00821881  0.1034384 0.7000
 17  -1281.7328009849  -2.873134087277 2.21920975  0.01930418  0.0426637 0.0000
 18  -1288.3119171839  -6.579116198993 0.04919774  0.00096067  0.0565795 0.0000
 19  -1288.3787685960  -0.066851412112 0.05382996  0.00084345  0.0418045 0.0000
               *** Restarting incremental Fock matrix formation ***
                                   *** Resetting DIIS ***
 20  -1288.4087708887  -0.030002292747 0.05621755  0.00108656  0.0281568 0.0000
 21  -1288.4169800905  -0.008209201796 0.03148022  0.00039487  0.0316378 0.0000
 22  -1288.4271978210  -0.010217730516 0.01037825  0.00018108  0.0078269 0.0000
 23  -1288.4282884702  -0.001090649111 0.00664652  0.00009431  0.0049902 0.0000
 24  -1288.4286010509  -0.000312580764 0.00208773  0.00005198  0.0014657 0.0000
 25  -1288.4286697355  -0.000068684571 0.00305178  0.00004394  0.0007729 0.0000
               *** Restarting incremental Fock matrix formation ***
                                   *** Resetting DIIS ***
 26  -1288.4291369027  -0.000467167253 0.00352674  0.00007983  0.0004824 0.0000
 27  -1288.4291524498  -0.000015547049 0.00097768  0.00001903  0.0006990 0.0000
 28  -1288.4291572711  -0.000004821341 0.00064444  0.00000946  0.0004515 0.0000
 29  -1288.4291599404  -0.000002669285 0.00034552  0.00000350  0.0001051 0.0000
 30  -1288.4291601221  -0.000000181728 0.00034489  0.00000225  0.0001073 0.0000
 31  -1288.4291602274  -0.000000105210 0.00016388  0.00000119  0.0000759 0.0000
 32  -1288.4291602600  -0.000000032616 0.00013181  0.00000094  0.0000307 0.0000
 33  -1288.4291602765  -0.000000016570 0.00004263  0.00000041  0.0000110 0.0000
 34  -1288.4291602789  -0.000000002348 0.00001432  0.00000016  0.0000078 0.0000
 35  -1288.4291602837  -0.000000004832 0.00001067  0.00000012  0.0000046 0.0000
 36  -1288.4291602764   0.000000007356 0.00000689  0.00000006  0.0000021 0.0000
 37  -1288.4291602855  -0.000000009170 0.00000497  0.00000004  0.0000026 0.0000
 38  -1288.4291602755   0.000000010012 0.00000305  0.00000002  0.0000017 0.0000
                            ***DIIS convergence achieved***

               *****************************************************
               *                     SUCCESS                       *
               *           SCF CONVERGED AFTER  39 CYCLES          *
               *****************************************************

Old exchange energy                            =    -59.590539117 Eh
New exchange energy                            =    -59.590556199 Eh
Exchange energy change after final integration =     -0.000017082 Eh
Total energy after final integration           =  -1288.429177356 Eh
Final COS-X integration done in                =    58.797 sec

----------------
TOTAL SCF ENERGY
----------------

Total Energy       :        -1288.42917736 Eh          -35059.94033 eV

Components:
Nuclear Repulsion  :         1992.62604022 Eh           54222.11115 eV
Electronic Energy  :        -3281.05521757 Eh          -89282.05148 eV
One Electron Energy:        -5741.74687639 Eh         -156240.87564 eV
Two Electron Energy:         2460.69165882 Eh           66958.82416 eV
Max COSX asymmetry :            0.00002439 Eh               0.00066 eV

Virial components:
Potential Energy   :        -2500.90887894 Eh          -68053.19035 eV
Kinetic Energy     :         1212.47970158 Eh           32993.25002 eV
Virial Ratio       :            2.06263979


DFT components:
N(Alpha)           :       81.999324057705 electrons
N(Beta)            :       81.999324057705 electrons
N(Total)           :      163.998648115409 electrons
E(X)               :      -79.507299595843 Eh       
E(C)               :       -7.439312571864 Eh       
E(XC)              :      -86.946612167707 Eh       
DFET-embed. en.    :        0.000000000000 Eh       

---------------
SCF CONVERGENCE
---------------

  Last Energy change         ...    6.7030e-10  Tolerance :   1.0000e-08
  Last MAX-Density change    ...    0.0000e+00  Tolerance :   1.0000e-07
  Last RMS-Density change    ...    0.0000e+00  Tolerance :   5.0000e-09
  Last DIIS Error            ...    4.6990e-07  Tolerance :   5.0000e-07

             **** THE GBW FILE WAS UPDATED (5_4_orca.gbw) ****
             **** DENSITY 5_4_orca.scfp WAS UPDATED ****
             **** ENERGY FILE WAS UPDATED (5_4_orca.en.tmp) ****
             **** THE GBW FILE WAS UPDATED (5_4_orca.gbw) ****
             **** DENSITY 5_4_orca.scfp WAS UPDATED ****
----------------
ORBITAL ENERGIES
----------------

  NO   OCC          E(Eh)            E(eV) 
   0   2.0000     -89.745937     -2442.1111 
   1   2.0000     -19.672644      -535.3199 
   2   2.0000     -19.661897      -535.0274 
   3   2.0000     -14.817753      -403.2116 
   4   2.0000     -10.740559      -292.2655 
   5   2.0000     -10.640115      -289.5322 
   6   2.0000     -10.617770      -288.9242 
   7   2.0000     -10.616723      -288.8957 
   8   2.0000     -10.609642      -288.7030 
   9   2.0000     -10.605120      -288.5800 
  10   2.0000     -10.602784      -288.5164 
  11   2.0000     -10.602466      -288.5078 
  12   2.0000     -10.602216      -288.5010 
  13   2.0000     -10.598707      -288.4055 
  14   2.0000     -10.594627      -288.2945 
  15   2.0000     -10.582199      -287.9563 
  16   2.0000     -10.569016      -287.5976 
  17   2.0000     -10.542970      -286.8888 
  18   2.0000     -10.536006      -286.6993 
  19   2.0000      -8.385226      -228.1736 
  20   2.0000      -6.275171      -170.7561 
  21   2.0000      -6.271794      -170.6642 
  22   2.0000      -6.269994      -170.6152 
  23   2.0000      -4.009928      -109.1157 
  24   2.0000      -2.325132       -63.2701 
  25   2.0000      -2.296572       -62.4929 
  26   2.0000      -2.291057       -62.3428 
  27   2.0000      -1.342638       -36.5350 
  28   2.0000      -1.256103       -34.1803 
  29   2.0000      -1.184832       -32.2409 
  30   2.0000      -1.155453       -31.4415 
  31   2.0000      -1.105362       -30.0784 
  32   2.0000      -1.011003       -27.5108 
  33   2.0000      -0.966723       -26.3059 
  34   2.0000      -0.959044       -26.0969 
  35   2.0000      -0.957077       -26.0434 
  36   2.0000      -0.948571       -25.8119 
  37   2.0000      -0.939979       -25.5781 
  38   2.0000      -0.890100       -24.2209 
  39   2.0000      -0.853994       -23.2384 
  40   2.0000      -0.813947       -22.1486 
  41   2.0000      -0.783754       -21.3270 
  42   2.0000      -0.771533       -20.9945 
  43   2.0000      -0.768580       -20.9141 
  44   2.0000      -0.764300       -20.7977 
  45   2.0000      -0.756324       -20.5806 
  46   2.0000      -0.743164       -20.2225 
  47   2.0000      -0.716644       -19.5009 
  48   2.0000      -0.687068       -18.6961 
  49   2.0000      -0.676593       -18.4110 
  50   2.0000      -0.670767       -18.2525 
  51   2.0000      -0.661309       -17.9951 
  52   2.0000      -0.648791       -17.6545 
  53   2.0000      -0.631187       -17.1755 
  54   2.0000      -0.628595       -17.1049 
  55   2.0000      -0.620426       -16.8826 
  56   2.0000      -0.611563       -16.6415 
  57   2.0000      -0.594710       -16.1829 
  58   2.0000      -0.592953       -16.1351 
  59   2.0000      -0.591100       -16.0847 
  60   2.0000      -0.588533       -16.0148 
  61   2.0000      -0.584170       -15.8961 
  62   2.0000      -0.575021       -15.6471 
  63   2.0000      -0.570113       -15.5136 
  64   2.0000      -0.562516       -15.3068 
  65   2.0000      -0.556130       -15.1331 
  66   2.0000      -0.546850       -14.8805 
  67   2.0000      -0.536062       -14.5870 
  68   2.0000      -0.534133       -14.5345 
  69   2.0000      -0.530625       -14.4390 
  70   2.0000      -0.524420       -14.2702 
  71   2.0000      -0.523303       -14.2398 
  72   2.0000      -0.506332       -13.7780 
  73   2.0000      -0.499367       -13.5885 
  74   2.0000      -0.489730       -13.3262 
  75   2.0000      -0.477103       -12.9826 
  76   2.0000      -0.469661       -12.7801 
  77   2.0000      -0.445285       -12.1168 
  78   2.0000      -0.438710       -11.9379 
  79   2.0000      -0.407747       -11.0954 
  80   2.0000      -0.406960       -11.0739 
  81   2.0000      -0.386761       -10.5243 
  82   0.0000      -0.178283        -4.8513 
  83   0.0000      -0.153685        -4.1820 
  84   0.0000      -0.136530        -3.7152 
  85   0.0000      -0.106354        -2.8940 
  86   0.0000      -0.076216        -2.0739 
  87   0.0000      -0.059194        -1.6107 
  88   0.0000      -0.049974        -1.3599 
  89   0.0000      -0.045404        -1.2355 
  90   0.0000      -0.033462        -0.9105 
  91   0.0000      -0.026197        -0.7128 
  92   0.0000      -0.006424        -0.1748 
  93   0.0000      -0.001028        -0.0280 
  94   0.0000       0.016643         0.4529 
  95   0.0000       0.023589         0.6419 
  96   0.0000       0.034213         0.9310 
  97   0.0000       0.041833         1.1383 
  98   0.0000       0.051308         1.3962 
  99   0.0000       0.064700         1.7606 
 100   0.0000       0.073117         1.9896 
 101   0.0000       0.077628         2.1124 
 102   0.0000       0.084460         2.2983 
 103   0.0000       0.087690         2.3862 
 104   0.0000       0.091175         2.4810 
 105   0.0000       0.095086         2.5874 
 106   0.0000       0.100156         2.7254 
 107   0.0000       0.105818         2.8795 
 108   0.0000       0.108954         2.9648 
 109   0.0000       0.111291         3.0284 
 110   0.0000       0.114913         3.1270 
 111   0.0000       0.115579         3.1451 
 112   0.0000       0.119049         3.2395 
 113   0.0000       0.125719         3.4210 
 114   0.0000       0.127904         3.4804 
 115   0.0000       0.131950         3.5905 
 116   0.0000       0.135207         3.6792 
 117   0.0000       0.142695         3.8829 
 118   0.0000       0.147333         4.0091 
 119   0.0000       0.158415         4.3107 
 120   0.0000       0.169183         4.6037 
 121   0.0000       0.183729         4.9995 
 122   0.0000       0.191012         5.1977 
 123   0.0000       0.210639         5.7318 
 124   0.0000       0.218009         5.9323 
 125   0.0000       0.227360         6.1868 
 126   0.0000       0.234634         6.3847 
 127   0.0000       0.258401         7.0314 
 128   0.0000       0.265781         7.2323 
 129   0.0000       0.286111         7.7855 
 130   0.0000       0.300209         8.1691 
 131   0.0000       0.319928         8.7057 
 132   0.0000       0.330148         8.9838 
 133   0.0000       0.345574         9.4035 
 134   0.0000       0.357697         9.7334 
 135   0.0000       0.362959         9.8766 
 136   0.0000       0.366821         9.9817 
 137   0.0000       0.385321        10.4851 
 138   0.0000       0.390742        10.6326 
 139   0.0000       0.408392        11.1129 
 140   0.0000       0.419801        11.4234 
 141   0.0000       0.424383        11.5480 
 142   0.0000       0.433771        11.8035 
 143   0.0000       0.440540        11.9877 
 144   0.0000       0.443118        12.0579 
 145   0.0000       0.447563        12.1788 
 146   0.0000       0.451949        12.2982 
 147   0.0000       0.458642        12.4803 
 148   0.0000       0.471693        12.8354 
 149   0.0000       0.474502        12.9118 
 150   0.0000       0.487882        13.2760 
 151   0.0000       0.491485        13.3740 
 152   0.0000       0.502236        13.6665 
 153   0.0000       0.508955        13.8494 
 154   0.0000       0.519076        14.1248 
 155   0.0000       0.525236        14.2924 
 156   0.0000       0.529342        14.4041 
 157   0.0000       0.537284        14.6202 
 158   0.0000       0.544244        14.8096 
 159   0.0000       0.551939        15.0190 
 160   0.0000       0.557963        15.1829 
 161   0.0000       0.567307        15.4372 
 162   0.0000       0.571305        15.5460 
 163   0.0000       0.591858        16.1053 
 164   0.0000       0.604056        16.4372 
 165   0.0000       0.608764        16.5653 
 166   0.0000       0.616673        16.7805 
 167   0.0000       0.620278        16.8786 
 168   0.0000       0.632421        17.2091 
 169   0.0000       0.639270        17.3954 
 170   0.0000       0.650376        17.6976 
 171   0.0000       0.666321        18.1315 
 172   0.0000       0.681296        18.5390 
 173   0.0000       0.695667        18.9300 
 174   0.0000       0.698572        19.0091 
 175   0.0000       0.708938        19.2912 
 176   0.0000       0.722749        19.6670 
 177   0.0000       0.733590        19.9620 
 178   0.0000       0.735236        20.0068 
 179   0.0000       0.742678        20.2093 
 180   0.0000       0.746486        20.3129 
 181   0.0000       0.754166        20.5219 
 182   0.0000       0.757763        20.6198 
 183   0.0000       0.771361        20.9898 
 184   0.0000       0.777304        21.1515 
 185   0.0000       0.792325        21.5603 
 186   0.0000       0.804984        21.9047 
 187   0.0000       0.813796        22.1445 
 188   0.0000       0.816355        22.2141 
 189   0.0000       0.841913        22.9096 
 190   0.0000       0.853007        23.2115 
 191   0.0000       0.857235        23.3265 
 192   0.0000       0.868562        23.6348 
 193   0.0000       0.876495        23.8506 
 194   0.0000       0.884190        24.0600 
 195   0.0000       0.887617        24.1533 
 196   0.0000       0.896246        24.3881 
 197   0.0000       0.900483        24.5034 
 198   0.0000       0.914208        24.8769 
 199   0.0000       0.919991        25.0342 
 200   0.0000       0.927246        25.2317 
 201   0.0000       0.933285        25.3960 
 202   0.0000       0.944684        25.7062 
 203   0.0000       0.947440        25.7812 
 204   0.0000       0.949678        25.8421 
 205   0.0000       0.955272        25.9943 
 206   0.0000       0.958960        26.0946 
 207   0.0000       0.974510        26.5178 
 208   0.0000       0.976727        26.5781 
 209   0.0000       0.986913        26.8553 
 210   0.0000       0.996688        27.1213 
 211   0.0000       1.011076        27.5128 
 212   0.0000       1.019353        27.7380 
 213   0.0000       1.030148        28.0317 
 214   0.0000       1.045219        28.4419 
 215   0.0000       1.050143        28.5759 
 216   0.0000       1.053041        28.6547 
 217   0.0000       1.075294        29.2602 
 218   0.0000       1.082308        29.4511 
 219   0.0000       1.091327        29.6965 
 220   0.0000       1.107924        30.1481 
 221   0.0000       1.126434        30.6518 
 222   0.0000       1.128831        30.7170 
 223   0.0000       1.143756        31.1232 
 224   0.0000       1.167318        31.7643 
 225   0.0000       1.173241        31.9255 
 226   0.0000       1.183688        32.2098 
 227   0.0000       1.193755        32.4837 
 228   0.0000       1.203953        32.7612 
 229   0.0000       1.218915        33.1684 
 230   0.0000       1.234393        33.5895 
 231   0.0000       1.241286        33.7771 
 232   0.0000       1.262004        34.3409 
 233   0.0000       1.274402        34.6783 
 234   0.0000       1.293130        35.1879 
 235   0.0000       1.294411        35.2227 
 236   0.0000       1.301628        35.4191 
 237   0.0000       1.318857        35.8879 
 238   0.0000       1.332121        36.2489 
 239   0.0000       1.340222        36.4693 
 240   0.0000       1.362465        37.0746 
 241   0.0000       1.374094        37.3910 
 242   0.0000       1.382819        37.6284 
 243   0.0000       1.390122        37.8271 
 244   0.0000       1.411078        38.3974 
 245   0.0000       1.424181        38.7539 
 246   0.0000       1.443266        39.2733 
 247   0.0000       1.450828        39.4790 
 248   0.0000       1.481253        40.3069 
 249   0.0000       1.505021        40.9537 
 250   0.0000       1.529342        41.6155 
 251   0.0000       1.558987        42.4222 
 252   0.0000       1.574402        42.8417 
 253   0.0000       1.596688        43.4481 
 254   0.0000       1.619403        44.0662 
 255   0.0000       1.650411        44.9100 
 256   0.0000       1.658579        45.1322 
 257   0.0000       1.678798        45.6824 
 258   0.0000       1.687163        45.9100 
 259   0.0000       1.704862        46.3916 
 260   0.0000       1.717525        46.7362 
 261   0.0000       1.724182        46.9174 
 262   0.0000       1.733744        47.1776 
 263   0.0000       1.760929        47.9173 
 264   0.0000       1.761789        47.9407 
 265   0.0000       1.779464        48.4217 
 266   0.0000       1.798857        48.9494 
 267   0.0000       1.821836        49.5747 
 268   0.0000       1.827574        49.7308 
 269   0.0000       1.850367        50.3510 
 270   0.0000       1.853437        50.4346 
 271   0.0000       1.872352        50.9493 
 272   0.0000       1.884296        51.2743 
 273   0.0000       1.896325        51.6016 
 274   0.0000       1.906095        51.8675 
 275   0.0000       1.919697        52.2376 
 276   0.0000       1.927445        52.4485 
 277   0.0000       1.934030        52.6276 
 278   0.0000       1.943076        52.8738 
 279   0.0000       1.960948        53.3601 
 280   0.0000       1.971062        53.6353 
 281   0.0000       1.991434        54.1897 
 282   0.0000       1.999485        54.4087 
 283   0.0000       2.011216        54.7280 
 284   0.0000       2.020417        54.9783 
 285   0.0000       2.028293        55.1926 
 286   0.0000       2.063737        56.1571 
 287   0.0000       2.067635        56.2632 
 288   0.0000       2.091499        56.9126 
 289   0.0000       2.100641        57.1613 
 290   0.0000       2.113101        57.5004 
 291   0.0000       2.127713        57.8980 
 292   0.0000       2.145000        58.3684 
 293   0.0000       2.153435        58.5979 
 294   0.0000       2.161381        58.8142 
 295   0.0000       2.172660        59.1211 
 296   0.0000       2.200697        59.8840 
 297   0.0000       2.204043        59.9751 
 298   0.0000       2.214145        60.2500 
 299   0.0000       2.222943        60.4894 
 300   0.0000       2.231870        60.7323 
 301   0.0000       2.243060        61.0368 
 302   0.0000       2.247386        61.1545 
 303   0.0000       2.277708        61.9796 
 304   0.0000       2.280543        62.0567 
 305   0.0000       2.288307        62.2680 
 306   0.0000       2.316797        63.0433 
 307   0.0000       2.347896        63.8895 
 308   0.0000       2.360404        64.2299 
 309   0.0000       2.374106        64.6027 
 310   0.0000       2.401772        65.3555 
 311   0.0000       2.407803        65.5197 
 312   0.0000       2.438329        66.3503 
 313   0.0000       2.442552        66.4652 
 314   0.0000       2.463612        67.0383 
 315   0.0000       2.473283        67.3015 
 316   0.0000       2.487241        67.6813 
 317   0.0000       2.518176        68.5230 
 318   0.0000       2.537495        69.0488 
 319   0.0000       2.559559        69.6491 
 320   0.0000       2.563462        69.7554 
 321   0.0000       2.580416        70.2167 
 322   0.0000       2.585537        70.3560 
 323   0.0000       2.599859        70.7457 
 324   0.0000       2.632829        71.6429 
 325   0.0000       2.672149        72.7129 
 326   0.0000       2.725846        74.1741 
 327   0.0000       2.772878        75.4538 
 328   0.0000       2.814525        76.5871 
 329   0.0000       2.816225        76.6334 
 330   0.0000       2.823797        76.8394 
 331   0.0000       2.842362        77.3446 
 332   0.0000       2.895154        78.7812 
 333   0.0000       2.908853        79.1539 
 334   0.0000       2.916446        79.3605 
 335   0.0000       2.919533        79.4445 
 336   0.0000       3.001453        81.6737 
 337   0.0000       3.057235        83.1916 
 338   0.0000      13.345357       363.1456 
 339   0.0000      13.430215       365.4547 
 340   0.0000      13.493824       367.1856 
 341   0.0000      13.522812       367.9744 
 342   0.0000      13.554822       368.8455 
 343   0.0000      13.776775       374.8851 
 344   0.0000      13.821550       376.1035 
 345   0.0000      13.847601       376.8124 
 346   0.0000      13.899416       378.2223 
 347   0.0000      13.930270       379.0619 
 348   0.0000      13.943900       379.4328 
 349   0.0000      13.999647       380.9498 
 350   0.0000      14.133771       384.5995 
 351   0.0000      14.179776       385.8513 
 352   0.0000      14.199914       386.3993 
 353   0.0000      19.312279       525.5138 
 354   0.0000      25.506286       694.0613 
 355   0.0000      25.603572       696.7086 
 356   0.0000      57.281111      1558.6983 
 357   0.0000     359.567422      9784.3270 

                    ********************************
                    * MULLIKEN POPULATION ANALYSIS *
                    ********************************

-----------------------
MULLIKEN ATOMIC CHARGES
-----------------------
   0 Ir:    0.593334
   1 C :   -0.239179
   2 C :   -0.251162
   3 C :   -0.279580
   4 C :   -0.237684
   5 C :   -0.157369
   6 N :   -0.472338
   7 C :   -0.098984
   8 C :   -0.637876
   9 H :    0.244109
  10 H :    0.224710
  11 H :    0.262440
  12 C :   -0.693312
  13 H :    0.251637
  14 H :    0.265216
  15 H :    0.229501
  16 H :    0.249832
  17 C :    0.083602
  18 C :   -0.176526
  19 H :    0.273895
  20 C :   -0.349614
  21 C :   -0.226456
  22 S :    0.319035
  23 C :   -0.397362
  24 H :    0.518291
  25 H :    0.261388
  26 H :    0.296011
  27 H :    0.277965
  28 H :    0.273620
  29 H :    0.281222
  30 O :   -0.565456
  31 O :   -0.455245
  32 C :    0.663667
  33 C :   -0.730960
  34 H :    0.281168
  35 H :    0.283874
  36 H :    0.278869
  37 H :    0.274234
  38 H :    0.281485
Sum of atomic charges:    1.0000000

--------------------------------
MULLIKEN REDUCED ORBITAL CHARGES
--------------------------------
  0 Irs       :     2.538353  s :     2.538353
      pz      :     2.061886  p :     6.247906
      px      :     2.114657
      py      :     2.071362
      dz2     :     1.489265  d :     7.576553
      dxz     :     1.451037
      dyz     :     1.665185
      dx2y2   :     1.376298
      dxy     :     1.594768
      f0      :     0.004720  f :     0.043855
      f+1     :     0.003934
      f-1     :     0.008246
      f+2     :     0.006175
      f-2     :     0.006984
      f+3     :     0.005081
      f-3     :     0.008714
  1 C s       :     3.309912  s :     3.309912
      pz      :     0.913454  p :     2.880129
      px      :     0.991734
      py      :     0.974941
      dz2     :     0.011119  d :     0.049137
      dxz     :     0.009671
      dyz     :     0.009060
      dx2y2   :     0.008903
      dxy     :     0.010385
  2 C s       :     3.297634  s :     3.297634
      pz      :     0.955163  p :     2.909778
      px      :     1.001627
      py      :     0.952988
      dz2     :     0.009525  d :     0.043750
      dxz     :     0.012222
      dyz     :     0.007373
      dx2y2   :     0.008258
      dxy     :     0.006371
  3 C s       :     3.307237  s :     3.307237
      pz      :     0.898379  p :     2.923873
      px      :     1.049193
      py      :     0.976301
      dz2     :     0.010300  d :     0.048469
      dxz     :     0.012448
      dyz     :     0.006582
      dx2y2   :     0.010011
      dxy     :     0.009128
  4 C s       :     3.312741  s :     3.312741
      pz      :     1.026416  p :     2.875329
      px      :     0.900110
      py      :     0.948802
      dz2     :     0.008420  d :     0.049614
      dxz     :     0.012024
      dyz     :     0.008832
      dx2y2   :     0.010051
      dxy     :     0.010287
  5 C s       :     3.297060  s :     3.297060
      pz      :     0.963899  p :     2.811381
      px      :     0.909050
      py      :     0.938431
      dz2     :     0.011096  d :     0.048929
      dxz     :     0.011813
      dyz     :     0.009544
      dx2y2   :     0.007077
      dxy     :     0.009399
  6 N s       :     3.625849  s :     3.625849
      pz      :     1.206987  p :     3.805351
      px      :     1.305812
      py      :     1.292552
      dz2     :     0.011940  d :     0.041138
      dxz     :     0.009050
      dyz     :     0.009042
      dx2y2   :     0.006660
      dxy     :     0.004446
  7 C s       :     3.237612  s :     3.237612
      pz      :     0.963079  p :     2.798999
      px      :     0.755898
      py      :     1.080022
      dz2     :     0.007219  d :     0.062373
      dxz     :     0.015067
      dyz     :     0.014592
      dx2y2   :     0.018451
      dxy     :     0.007043
  8 C s       :     3.384763  s :     3.384763
      pz      :     1.071107  p :     3.216695
      px      :     1.144440
      py      :     1.001148
      dz2     :     0.003904  d :     0.036417
      dxz     :     0.009956
      dyz     :     0.009715
      dx2y2   :     0.011443
      dxy     :     0.001399
  9 H s       :     0.755891  s :     0.755891
 10 H s       :     0.775290  s :     0.775290
 11 H s       :     0.737560  s :     0.737560
 12 C s       :     3.393806  s :     3.393806
      pz      :     1.060615  p :     3.263139
      px      :     1.064833
      py      :     1.137692
      dz2     :     0.001767  d :     0.036366
      dxz     :     0.009462
      dyz     :     0.012912
      dx2y2   :     0.010134
      dxy     :     0.002091
 13 H s       :     0.748363  s :     0.748363
 14 H s       :     0.734784  s :     0.734784
 15 H s       :     0.770499  s :     0.770499
 16 H s       :     0.750168  s :     0.750168
 17 C s       :     3.197182  s :     3.197182
      pz      :     0.840234  p :     2.656274
      px      :     0.987940
      py      :     0.828099
      dz2     :     0.015517  d :     0.062942
      dxz     :     0.021016
      dyz     :     0.012474
      dx2y2   :     0.006478
      dxy     :     0.007457
 18 C s       :     3.215216  s :     3.215216
      pz      :     0.875085  p :     2.915226
      px      :     0.905194
      py      :     1.134947
      dz2     :     0.013795  d :     0.046084
      dxz     :     0.011924
      dyz     :     0.007369
      dx2y2   :     0.007616
      dxy     :     0.005379
 19 H s       :     0.726105  s :     0.726105
 20 C s       :     3.396955  s :     3.396955
      pz      :     1.085573  p :     2.914137
      px      :     0.872725
      py      :     0.955838
      dz2     :     0.004852  d :     0.038523
      dxz     :     0.015277
      dyz     :     0.005540
      dx2y2   :     0.005613
      dxy     :     0.007241
 21 C s       :     3.257543  s :     3.257543
      pz      :     0.881955  p :     2.928866
      px      :     1.027397
      py      :     1.019514
      dz2     :     0.010958  d :     0.040047
      dxz     :     0.011445
      dyz     :     0.006707
      dx2y2   :     0.007379
      dxy     :     0.003558
 22 S s       :     5.799549  s :     5.799549
      pz      :     3.128550  p :     9.759714
      px      :     3.046269
      py      :     3.584895
      dz2     :     0.039375  d :     0.121702
      dxz     :     0.022235
      dyz     :     0.015953
      dx2y2   :     0.021090
      dxy     :     0.023049
 23 C s       :     3.335859  s :     3.335859
      pz      :     1.022859  p :     3.020729
      px      :     0.967907
      py      :     1.029963
      dz2     :     0.009845  d :     0.040774
      dxz     :     0.012943
      dyz     :     0.005693
      dx2y2   :     0.006949
      dxy     :     0.005344
 24 H s       :     0.481709  s :     0.481709
 25 H s       :     0.738612  s :     0.738612
 26 H s       :     0.703989  s :     0.703989
 27 H s       :     0.722035  s :     0.722035
 28 H s       :     0.726380  s :     0.726380
 29 H s       :     0.718778  s :     0.718778
 30 O s       :     3.802694  s :     3.802694
      pz      :     1.452205  p :     4.739464
      px      :     1.570789
      py      :     1.716469
      dz2     :     0.003093  d :     0.023299
      dxz     :     0.005477
      dyz     :     0.006107
      dx2y2   :     0.006202
      dxy     :     0.002420
 31 O s       :     3.805802  s :     3.805802
      pz      :     1.653214  p :     4.621820
      px      :     1.553376
      py      :     1.415230
      dz2     :     0.003503  d :     0.027623
      dxz     :     0.003473
      dyz     :     0.006376
      dx2y2   :     0.006391
      dxy     :     0.007880
 32 C s       :     2.997235  s :     2.997235
      pz      :     0.718176  p :     2.208431
      px      :     0.684916
      py      :     0.805339
      dz2     :     0.022772  d :     0.130668
      dxz     :     0.022937
      dyz     :     0.026158
      dx2y2   :     0.031840
      dxy     :     0.026961
 33 C s       :     3.429602  s :     3.429602
      pz      :     1.119155  p :     3.268747
      px      :     1.191690
      py      :     0.957902
      dz2     :     0.001336  d :     0.032612
      dxz     :     0.009696
      dyz     :     0.010250
      dx2y2   :     0.009602
      dxy     :     0.001728
 34 H s       :     0.718832  s :     0.718832
 35 H s       :     0.716126  s :     0.716126
 36 H s       :     0.721131  s :     0.721131
 37 H s       :     0.725766  s :     0.725766
 38 H s       :     0.718515  s :     0.718515


                     *******************************
                     * LOEWDIN POPULATION ANALYSIS *
                     *******************************

----------------------
LOEWDIN ATOMIC CHARGES
----------------------
   0 Ir:   -0.261522
   1 C :   -0.045031
   2 C :   -0.104004
   3 C :   -0.105998
   4 C :   -0.052218
   5 C :   -0.017097
   6 N :   -0.029101
   7 C :   -0.061611
   8 C :   -0.349639
   9 H :    0.144557
  10 H :    0.135107
  11 H :    0.147001
  12 C :   -0.365150
  13 H :    0.140435
  14 H :    0.155268
  15 H :    0.134237
  16 H :    0.140409
  17 C :    0.033023
  18 C :   -0.239449
  19 H :    0.151818
  20 C :   -0.160477
  21 C :   -0.183518
  22 S :    0.461340
  23 C :   -0.259959
  24 H :    0.398658
  25 H :    0.154855
  26 H :    0.169432
  27 H :    0.179294
  28 H :    0.175046
  29 H :    0.178989
  30 O :   -0.263845
  31 O :   -0.138341
  32 C :    0.236053
  33 C :   -0.366048
  34 H :    0.170639
  35 H :    0.174451
  36 H :    0.163121
  37 H :    0.177959
  38 H :    0.181313

-------------------------------
LOEWDIN REDUCED ORBITAL CHARGES
-------------------------------
  0 Irs       :     2.468572  s :     2.468572
      pz      :     2.261983  p :     6.780648
      px      :     2.263752
      py      :     2.254912
      dz2     :     1.550592  d :     7.938450
      dxz     :     1.534216
      dyz     :     1.722365
      dx2y2   :     1.470469
      dxy     :     1.660808
      f0      :     0.008114  f :     0.073852
      f+1     :     0.006409
      f-1     :     0.013313
      f+2     :     0.010448
      f-2     :     0.012075
      f+3     :     0.008021
      f-3     :     0.015473
  1 C s       :     2.871003  s :     2.871003
      pz      :     1.024714  p :     3.069327
      px      :     1.080088
      py      :     0.964526
      dz2     :     0.025690  d :     0.104701
      dxz     :     0.022116
      dyz     :     0.018445
      dx2y2   :     0.018737
      dxy     :     0.019713
  2 C s       :     2.878341  s :     2.878341
      pz      :     1.046610  p :     3.130771
      px      :     1.077315
      py      :     1.006845
      dz2     :     0.021726  d :     0.094893
      dxz     :     0.025720
      dyz     :     0.016808
      dx2y2   :     0.017083
      dxy     :     0.013556
  3 C s       :     2.859454  s :     2.859454
      pz      :     1.030958  p :     3.142994
      px      :     1.082019
      py      :     1.030017
      dz2     :     0.022954  d :     0.103551
      dxz     :     0.028884
      dyz     :     0.015379
      dx2y2   :     0.019446
      dxy     :     0.016888
  4 C s       :     2.868038  s :     2.868038
      pz      :     1.066079  p :     3.079457
      px      :     1.039290
      py      :     0.974087
      dz2     :     0.015994  d :     0.104723
      dxz     :     0.027937
      dyz     :     0.016723
      dx2y2   :     0.022236
      dxy     :     0.021833
  5 C s       :     2.878457  s :     2.878457
      pz      :     1.031977  p :     3.034308
      px      :     1.046548
      py      :     0.955784
      dz2     :     0.023903  d :     0.104332
      dxz     :     0.027712
      dyz     :     0.016467
      dx2y2   :     0.015613
      dxy     :     0.020637
  6 N s       :     3.123270  s :     3.123270
      pz      :     1.269139  p :     3.810769
      px      :     1.282210
      py      :     1.259419
      dz2     :     0.028447  d :     0.095062
      dxz     :     0.025701
      dyz     :     0.017265
      dx2y2   :     0.013660
      dxy     :     0.009990
  7 C s       :     2.859605  s :     2.859605
      pz      :     1.055801  p :     3.067209
      px      :     0.909584
      py      :     1.101824
      dz2     :     0.015315  d :     0.134797
      dxz     :     0.034468
      dyz     :     0.029795
      dx2y2   :     0.040849
      dxy     :     0.014369
  8 C s       :     2.950466  s :     2.950466
      pz      :     1.107561  p :     3.330485
      px      :     1.138439
      py      :     1.084485
      dz2     :     0.007777  d :     0.068688
      dxz     :     0.017125
      dyz     :     0.019888
      dx2y2   :     0.020816
      dxy     :     0.003082
  9 H s       :     0.855443  s :     0.855443
 10 H s       :     0.864893  s :     0.864893
 11 H s       :     0.852999  s :     0.852999
 12 C s       :     2.952152  s :     2.952152
      pz      :     1.109965  p :     3.344785
      px      :     1.099811
      py      :     1.135009
      dz2     :     0.004034  d :     0.068213
      dxz     :     0.019366
      dyz     :     0.022626
      dx2y2   :     0.017986
      dxy     :     0.004200
 13 H s       :     0.859565  s :     0.859565
 14 H s       :     0.844732  s :     0.844732
 15 H s       :     0.865763  s :     0.865763
 16 H s       :     0.859591  s :     0.859591
 17 C s       :     2.875771  s :     2.875771
      pz      :     1.012899  p :     2.950786
      px      :     1.075999
      py      :     0.861888
      dz2     :     0.036282  d :     0.140420
      dxz     :     0.050392
      dyz     :     0.025920
      dx2y2   :     0.012767
      dxy     :     0.015058
 18 C s       :     2.893450  s :     2.893450
      pz      :     1.033957  p :     3.237561
      px      :     1.087338
      py      :     1.116266
      dz2     :     0.033420  d :     0.108437
      dxz     :     0.031468
      dyz     :     0.015026
      dx2y2   :     0.017237
      dxy     :     0.011286
 19 H s       :     0.848182  s :     0.848182
 20 C s       :     2.947078  s :     2.947078
      pz      :     1.145427  p :     3.128657
      px      :     1.043809
      py      :     0.939422
      dz2     :     0.011246  d :     0.084741
      dxz     :     0.036138
      dyz     :     0.009341
      dx2y2   :     0.012791
      dxy     :     0.015225
 21 C s       :     2.910935  s :     2.910935
      pz      :     1.063994  p :     3.183062
      px      :     1.084082
      py      :     1.034986
      dz2     :     0.027189  d :     0.089520
      dxz     :     0.029339
      dyz     :     0.014109
      dx2y2   :     0.012586
      dxy     :     0.006297
 22 S s       :     5.504488  s :     5.504488
      pz      :     3.234309  p :     9.881028
      px      :     3.099413
      py      :     3.547306
      dz2     :     0.051504  d :     0.153144
      dxz     :     0.028220
      dyz     :     0.018127
      dx2y2   :     0.027952
      dxy     :     0.027341
 23 C s       :     2.967850  s :     2.967850
      pz      :     1.121094  p :     3.206475
      px      :     1.036686
      py      :     1.048695
      dz2     :     0.023846  d :     0.085634
      dxz     :     0.027505
      dyz     :     0.010927
      dx2y2   :     0.012991
      dxy     :     0.010365
 24 H s       :     0.601342  s :     0.601342
 25 H s       :     0.845145  s :     0.845145
 26 H s       :     0.830568  s :     0.830568
 27 H s       :     0.820706  s :     0.820706
 28 H s       :     0.824954  s :     0.824954
 29 H s       :     0.821011  s :     0.821011
 30 O s       :     3.491862  s :     3.491862
      pz      :     1.460540  p :     4.725241
      px      :     1.592758
      py      :     1.671942
      dz2     :     0.005945  d :     0.046743
      dxz     :     0.014007
      dyz     :     0.011579
      dx2y2   :     0.010228
      dxy     :     0.004983
 31 O s       :     3.453595  s :     3.453595
      pz      :     1.624674  p :     4.626252
      px      :     1.560448
      py      :     1.441131
      dz2     :     0.007703  d :     0.058494
      dxz     :     0.006101
      dyz     :     0.012260
      dx2y2   :     0.013103
      dxy     :     0.019326
 32 C s       :     2.834509  s :     2.834509
      pz      :     0.834798  p :     2.642938
      px      :     0.818355
      py      :     0.989785
      dz2     :     0.046825  d :     0.286500
      dxz     :     0.055521
      dyz     :     0.056380
      dx2y2   :     0.068784
      dxy     :     0.058990
 33 C s       :     2.966829  s :     2.966829
      pz      :     1.128641  p :     3.339272
      px      :     1.161595
      py      :     1.049036
      dz2     :     0.002165  d :     0.059947
      dxz     :     0.016090
      dyz     :     0.020099
      dx2y2   :     0.018232
      dxy     :     0.003360
 34 H s       :     0.829361  s :     0.829361
 35 H s       :     0.825549  s :     0.825549
 36 H s       :     0.836879  s :     0.836879
 37 H s       :     0.822041  s :     0.822041
 38 H s       :     0.818687  s :     0.818687


                      *****************************
                      * MAYER POPULATION ANALYSIS *
                      *****************************

  NA   - Mulliken gross atomic population
  ZA   - Total nuclear charge
  QA   - Mulliken gross atomic charge
  VA   - Mayer's total valence
  BVA  - Mayer's bonded valence
  FA   - Mayer's free valence

  ATOM       NA         ZA         QA         VA         BVA        FA
  0 Ir    16.4067    17.0000     0.5933     3.7165     3.7165    -0.0000
  1 C      6.2392     6.0000    -0.2392     3.7257     3.7257    -0.0000
  2 C      6.2512     6.0000    -0.2512     3.7289     3.7289     0.0000
  3 C      6.2796     6.0000    -0.2796     3.7440     3.7440     0.0000
  4 C      6.2377     6.0000    -0.2377     3.7360     3.7360    -0.0000
  5 C      6.1574     6.0000    -0.1574     3.7029     3.7029    -0.0000
  6 N      7.4723     7.0000    -0.4723     3.2061     3.2061    -0.0000
  7 C      6.0990     6.0000    -0.0990     3.7410     3.7410    -0.0000
  8 C      6.6379     6.0000    -0.6379     3.6755     3.6755     0.0000
  9 H      0.7559     1.0000     0.2441     0.9028     0.9028    -0.0000
 10 H      0.7753     1.0000     0.2247     0.9128     0.9128    -0.0000
 11 H      0.7376     1.0000     0.2624     0.8980     0.8980     0.0000
 12 C      6.6933     6.0000    -0.6933     3.6950     3.6950     0.0000
 13 H      0.7484     1.0000     0.2516     0.8755     0.8755    -0.0000
 14 H      0.7348     1.0000     0.2652     0.9000     0.9000     0.0000
 15 H      0.7705     1.0000     0.2295     0.9084     0.9084    -0.0000
 16 H      0.7502     1.0000     0.2498     0.9006     0.9006     0.0000
 17 C      5.9164     6.0000     0.0836     3.6660     3.6660    -0.0000
 18 C      6.1765     6.0000    -0.1765     3.6877     3.6877     0.0000
 19 H      0.7261     1.0000     0.2739     0.8872     0.8872    -0.0000
 20 C      6.3496     6.0000    -0.3496     3.5902     3.5902    -0.0000
 21 C      6.2265     6.0000    -0.2265     3.7955     3.7955    -0.0000
 22 S     15.6810    16.0000     0.3190     2.5603     2.5603     0.0000
 23 C      6.3974     6.0000    -0.3974     3.7618     3.7618    -0.0000
 24 H      0.4817     1.0000     0.5183     0.7347     0.7347     0.0000
 25 H      0.7386     1.0000     0.2614     0.9023     0.9023     0.0000
 26 H      0.7040     1.0000     0.2960     0.8969     0.8969     0.0000
 27 H      0.7220     1.0000     0.2780     0.9119     0.9119    -0.0000
 28 H      0.7264     1.0000     0.2736     0.9131     0.9131    -0.0000
 29 H      0.7188     1.0000     0.2812     0.9059     0.9059     0.0000
 30 O      8.5655     8.0000    -0.5655     2.0286     2.0286    -0.0000
 31 O      8.4552     8.0000    -0.4552     2.1849     2.1849    -0.0000
 32 C      5.3363     6.0000     0.6637     3.8087     3.8087     0.0000
 33 C      6.7310     6.0000    -0.7310     3.6468     3.6468    -0.0000
 34 H      0.7188     1.0000     0.2812     0.8876     0.8876    -0.0000
 35 H      0.7161     1.0000     0.2839     0.8862     0.8862    -0.0000
 36 H      0.7211     1.0000     0.2789     0.8901     0.8901    -0.0000
 37 H      0.7258     1.0000     0.2742     0.9132     0.9132     0.0000
 38 H      0.7185     1.0000     0.2815     0.9121     0.9121    -0.0000

  Mayer bond orders larger than 0.100000
B(  0-Ir,  1-C ) :   0.4104 B(  0-Ir,  2-C ) :   0.3567 B(  0-Ir,  3-C ) :   0.4693 
B(  0-Ir,  4-C ) :   0.4595 B(  0-Ir,  5-C ) :   0.3659 B(  0-Ir,  6-N ) :   0.4862 
B(  0-Ir, 20-C ) :   0.5912 B(  0-Ir, 31-O ) :   0.4436 B(  1-C ,  2-C ) :   1.1822 
B(  1-C ,  4-C ) :   1.2167 B(  1-C , 27-H ) :   0.9191 B(  2-C ,  5-C ) :   1.2214 
B(  2-C , 28-H ) :   0.9183 B(  3-C ,  4-C ) :   1.1254 B(  3-C ,  5-C ) :   1.1925 
B(  3-C , 37-H ) :   0.9191 B(  4-C , 38-H ) :   0.9173 B(  5-C , 29-H ) :   0.9127 
B(  6-N ,  7-C ) :   0.8976 B(  6-N , 17-C ) :   1.6234 B(  7-C ,  8-C ) :   0.9833 
B(  7-C , 12-C ) :   0.9968 B(  7-C , 13-H ) :   0.8883 B(  8-C ,  9-H ) :   0.9087 
B(  8-C , 10-H ) :   0.9181 B(  8-C , 11-H ) :   0.9030 B( 12-C , 14-H ) :   0.9057 
B( 12-C , 15-H ) :   0.9118 B( 12-C , 16-H ) :   0.9132 B( 17-C , 18-C ) :   1.1276 
B( 17-C , 19-H ) :   0.8787 B( 18-C , 20-C ) :   1.3211 B( 18-C , 22-S ) :   1.1643 
B( 20-C , 21-C ) :   1.3090 B( 21-C , 23-C ) :   1.5061 B( 21-C , 25-H ) :   0.9030 
B( 22-S , 23-C ) :   1.2518 B( 23-C , 26-H ) :   0.8904 B( 24-H , 30-O ) :   0.5474 
B( 30-O , 32-C ) :   1.2957 B( 31-O , 32-C ) :   1.5450 B( 32-C , 33-C ) :   0.9469 
B( 33-C , 34-H ) :   0.8910 B( 33-C , 35-H ) :   0.8881 B( 33-C , 36-H ) :   0.9009 



------------------
HIRSHFELD ANALYSIS
------------------

Total integrated alpha density =     81.999324057
Total integrated beta density  =     81.999324057

  ATOM     CHARGE      SPIN    
   0 Ir   0.141084    0.000000
   1 C    0.006940    0.000000
   2 C   -0.017123    0.000000
   3 C   -0.032760    0.000000
   4 C   -0.002528    0.000000
   5 C    0.018872    0.000000
   6 N   -0.085301    0.000000
   7 C    0.052672    0.000000
   8 C   -0.075315    0.000000
   9 H    0.045330    0.000000
  10 H    0.034118    0.000000
  11 H    0.033342    0.000000
  12 C   -0.072149    0.000000
  13 H    0.036685    0.000000
  14 H    0.052785    0.000000
  15 H    0.037704    0.000000
  16 H    0.038765    0.000000
  17 C    0.087009    0.000000
  18 C   -0.047634    0.000000
  19 H    0.064813    0.000000
  20 C   -0.092556    0.000000
  21 C   -0.053271    0.000000
  22 S    0.110965    0.000000
  23 C   -0.026758    0.000000
  24 H    0.177694    0.000000
  25 H    0.057742    0.000000
  26 H    0.079559    0.000000
  27 H    0.083435    0.000000
  28 H    0.077189    0.000000
  29 H    0.084984    0.000000
  30 O   -0.188920    0.000000
  31 O   -0.208427    0.000000
  32 C    0.285514    0.000000
  33 C   -0.050097    0.000000
  34 H    0.063842    0.000000
  35 H    0.067083    0.000000
  36 H    0.060121    0.000000
  37 H    0.074556    0.000000
  38 H    0.081387    0.000000

  TOTAL   1.001352    0.000000

-------
TIMINGS
-------

Total SCF time: 0 days 0 hours 13 min 50 sec 

Total time                  ....     830.524 sec
Sum of individual times     ....     829.844 sec  ( 99.9%)

Fock matrix formation       ....     820.275 sec  ( 98.8%)
  Split-RI-J                ....      86.624 sec  ( 10.6% of F)
  Chain of spheres X        ....     661.168 sec  ( 80.6% of F)
  XC integration            ....      70.820 sec  (  8.6% of F)
    Basis function eval.    ....      25.234 sec  ( 35.6% of XC)
    Density eval.           ....      19.658 sec  ( 27.8% of XC)
    XC-Functional eval.     ....       5.168 sec  (  7.3% of XC)
    XC-Potential eval.      ....      18.731 sec  ( 26.4% of XC)
Diagonalization             ....       0.967 sec  (  0.1%)
Density matrix formation    ....       0.110 sec  (  0.0%)
Population analysis         ....       1.515 sec  (  0.2%)
Initial guess               ....       0.028 sec  (  0.0%)
Orbital Transformation      ....       0.000 sec  (  0.0%)
Orbital Orthonormalization  ....       0.000 sec  (  0.0%)
DIIS solution               ....       0.381 sec  (  0.0%)
Grid generation             ....       6.569 sec  (  0.8%)

Maximum memory used throughout the entire SCF-calculation: 170.8 MB


-------------------------------------------------------------------------------
                          DFT DISPERSION CORRECTION                            
                                                                               
                              DFTD3 V3.1  Rev 1                                
                          USING Becke-Johnson damping                          
-------------------------------------------------------------------------------
The PBEh-3c composite method is recognized
Using three-body term ABC
Active option DFTDOPT                   ...         4   

molecular C6(AA) [au] = 19712.246628 


            DFT-D V3
 parameters
 s6 scaling factor         :     1.0000 
 a1 scaling factor         :     0.4860 
 s8 scaling factor         :     0.0000 
 a2 scaling factor         :     4.5000 
 Damping factor alpha9(ATM):    16.0000 
 ad hoc parameters k1-k3   :    16.0000     1.3333    -4.0000 

 Edisp/kcal,au: -18.595971830944  -0.029634564283 
 E6   /kcal   : -18.900665281 
 E8   /kcal   :  -0.000000000 
 E6(ABC)      :   0.304693450 
 % E8         :   0.000000000 
 % E6(ABC)    :  -1.638491675 

-------------------------   ----------------
Dispersion correction           -0.029634564
-------------------------   ----------------

 ** NOTE ** -> element ir will be treated as co
NOTIFICATION: Different basis set in ORCA and otool_gcp:
ORCA: 358  gCP: 357 
If you are NOT using ECPs, check your basis set inputs!
------------------   -----------------
gCP correction             0.071475499
------------------   -----------------

-------------------------   --------------------
FINAL SINGLE POINT ENERGY     -1288.387336421438
-------------------------   --------------------

------------------------------------------------------------------------------
                         ORCA SCF GRADIENT CALCULATION
------------------------------------------------------------------------------

 ... reading COSX grid (gridx3)
Gradient of the Kohn-Sham DFT energy:
Kohn-Sham wavefunction type      ... RKS
Hartree-Fock exchange scaling    ...    0.420
Number of operators              ...    1
Number of atoms                  ...   39
Basis set dimensions             ...  358
Integral neglect threshold       ... 2.5e-11
Integral primitive cutoff        ... 2.5e-12
SHARK Integral package           ... ON

Nuc. rep. gradient       (SHARK) ... done (  0.0 sec)
HCore & Overlap gradient (SHARK) ... done (  1.7 sec)
ECP gradient             (SHARK) ... done (  3.5 sec)
RI-J gradient            (SHARK) ... done (  8.4 sec)
COSX-gradient                    ... done ( 73.8 sec)
Exchange-correlation gradient    ... done
Dispersion correction            ... done
gCP correction                   ... done

------------------
CARTESIAN GRADIENT
------------------

   1   Ir  :   -0.009483138   -0.000737111    0.019106880
   2   C   :    0.005347001    0.008468910   -0.001047508
   3   C   :   -0.013825756   -0.010442161    0.002145953
   4   C   :   -0.011390354    0.012322324    0.007112281
   5   C   :   -0.009575436   -0.004344255   -0.002323206
   6   C   :    0.014192598    0.002798068   -0.004870266
   7   N   :   -0.000151629    0.002883882    0.008398010
   8   C   :   -0.005225235   -0.004813654    0.006006733
   9   C   :    0.004333448    0.000777969   -0.004301307
  10   H   :   -0.003026081    0.000094033    0.002638446
  11   H   :   -0.000620793   -0.005290575    0.000759322
  12   H   :   -0.003319452   -0.001802852   -0.001762346
  13   C   :    0.006363662    0.002505624   -0.004605607
  14   H   :   -0.002450610    0.011945290   -0.007207850
  15   H   :   -0.006505873   -0.001963659    0.002490302
  16   H   :    0.001185826   -0.003131383    0.003389372
  17   H   :   -0.001517649    0.001959731    0.004491304
  18   C   :   -0.004190552    0.001197927    0.001930906
  19   C   :    0.000973654    0.004902605   -0.015270541
  20   H   :    0.008323688   -0.002572852    0.005016023
  21   C   :    0.005986385    0.005012603    0.001881386
  22   C   :    0.015315163   -0.003189422   -0.018663836
  23   S   :    0.000575894   -0.002094674   -0.003350574
  24   C   :    0.003471716    0.003622499   -0.011577654
  25   H   :    0.022023974   -0.038917321   -0.062552523
  26   H   :    0.001199276    0.002079624   -0.002359766
  27   H   :    0.001989294   -0.000739877   -0.000303011
  28   H   :    0.006942362   -0.006706508    0.005681824
  29   H   :    0.010349709   -0.003180580   -0.003212681
  30   H   :   -0.002344853   -0.010828450   -0.003465647
  31   O   :    0.005737642    0.017732397    0.023898587
  32   O   :   -0.022992453   -0.015621496    0.016132663
  33   C   :    0.002910272    0.020582168    0.007557684
  34   C   :   -0.013920494    0.018495253    0.016095301
  35   H   :    0.000521511   -0.000634557    0.001579749
  36   H   :   -0.000119746    0.001142889    0.000735485
  37   H   :    0.002977501    0.003816084   -0.000359820
  38   H   :   -0.006933438   -0.001983546    0.000122423
  39   H   :   -0.002788769   -0.002839207    0.009839427

Difference to translation invariance:
           :    0.0003382666    0.0005057381   -0.0002240806

Difference to rotation invariance:
           :   -0.0000528976    0.0023389548   -0.0011109523

Norm of the cartesian gradient     ...    0.1146224826
RMS gradient                       ...    0.0105968523
MAX gradient                       ...    0.0625525229

-------
TIMINGS
-------

Total SCF gradient time            ...      100.767 sec

One electron gradient       ....       5.212 sec  (  5.2%)
RI-J Coulomb gradient       ....       8.378 sec  (  8.3%)
COSX gradient               ....      73.825 sec  ( 73.3%)
XC gradient                 ....      11.483 sec  ( 11.4%)

Maximum memory used throughout the entire SCFGRAD-calculation: 137.4 MB

                            ***************************************
                            *     ORCA property calculations      *
                            ***************************************

                                    ---------------------
                                    Active property flags
                                    ---------------------
   (+) Dipole Moment


------------------------------------------------------------------------------
                       ORCA ELECTRIC PROPERTIES CALCULATION
------------------------------------------------------------------------------

Dipole Moment Calculation                       ... on
Quadrupole Moment Calculation                   ... off
Polarizability Calculation                      ... off
GBWName                                         ... 5_4_orca.gbw
Electron density                                ... 5_4_orca.scfp
The origin for moment calculation is the CENTER OF MASS  = ( 0.829457, -0.596924 -0.120612)

-------------
DIPOLE MOMENT
-------------
                                X             Y             Z
Electronic contribution:     33.27482     -77.30983      80.86889
Nuclear contribution   :    -33.52765      77.44002     -80.55465
                        -----------------------------------------
Total Dipole Moment    :     -0.25282       0.13020       0.31425
                        -----------------------------------------
Magnitude (a.u.)       :      0.42382
Magnitude (Debye)      :      1.07726



--------------------
Rotational spectrum 
--------------------
 
Rotational constants in cm-1:     0.010491     0.008148     0.007682 
Rotational constants in MHz :   314.524046   244.270392   230.307465 

 Dipole components along the rotational axes: 
x,y,z [a.u.] :     0.296103     0.266960    -0.143791 
x,y,z [Debye]:     0.752634     0.678558    -0.365487 

 

Timings for individual modules:

Sum of individual times         ...      932.841 sec (=  15.547 min)
GTO integral calculation        ...        1.487 sec (=   0.025 min)   0.2 %
SCF iterations                  ...      830.557 sec (=  13.843 min)  89.0 %
SCF Gradient evaluation         ...      100.797 sec (=   1.680 min)  10.8 %
                             ****ORCA TERMINATED NORMALLY****
TOTAL RUN TIME: 0 days 0 hours 15 minutes 33 seconds 273 msec
