
                                 *****************
                                 * O   R   C   A *
                                 *****************

                                            #,                                       
                                            ###                                      
                                            ####                                     
                                            #####                                    
                                            ######                                   
                                           ########,                                 
                                     ,,################,,,,,                         
                               ,,#################################,,                 
                          ,,##########################################,,             
                       ,#########################################, ''#####,          
                    ,#############################################,,   '####,        
                  ,##################################################,,,,####,       
                ,###########''''           ''''###############################       
              ,#####''   ,,,,##########,,,,          '''####'''          '####       
            ,##' ,,,,###########################,,,                        '##       
           ' ,,###''''                  '''############,,,                           
         ,,##''                                '''############,,,,        ,,,,,,###''
      ,#''                                            '''#######################'''  
     '                                                          ''''####''''         
             ,#######,   #######,   ,#######,      ##                                
            ,#'     '#,  ##    ##  ,#'     '#,    #''#        ######   ,####,        
            ##       ##  ##   ,#'  ##            #'  '#       #        #'  '#        
            ##       ##  #######   ##           ,######,      #####,   #    #        
            '#,     ,#'  ##    ##  '#,     ,#' ,#      #,         ##   #,  ,#        
             '#######'   ##     ##  '#######'  #'      '#     #####' # '####'        



                  #######################################################
                  #                        -***-                        #
                  #          Department of theory and spectroscopy      #
                  #    Directorship and core code : Frank Neese         #
                  #        Max Planck Institute fuer Kohlenforschung    #
                  #                Kaiser Wilhelm Platz 1               #
                  #                 D-45470 Muelheim/Ruhr               #
                  #                      Germany                        #
                  #                                                     #
                  #                  All rights reserved                #
                  #                        -***-                        #
                  #######################################################


                         Program Version 5.0.3 -  RELEASE  -


 With contributions from (in alphabetic order):
   Daniel Aravena         : Magnetic Suceptibility
   Michael Atanasov       : Ab Initio Ligand Field Theory (pilot matlab implementation)
   Alexander A. Auer      : GIAO ZORA, VPT2 properties, NMR spectrum
   Ute Becker             : Parallelization
   Giovanni Bistoni       : ED, misc. LED, open-shell LED, HFLD
   Martin Brehm           : Molecular dynamics
   Dmytro Bykov           : SCF Hessian
   Vijay G. Chilkuri      : MRCI spin determinant printing, contributions to CSF-ICE
   Dipayan Datta          : RHF DLPNO-CCSD density
   Achintya Kumar Dutta   : EOM-CC, STEOM-CC
   Dmitry Ganyushin       : Spin-Orbit,Spin-Spin,Magnetic field MRCI
   Miquel Garcia          : C-PCM and meta-GGA Hessian, CC/C-PCM, Gaussian charge scheme
   Yang Guo               : DLPNO-NEVPT2, F12-NEVPT2, CIM, IAO-localization
   Andreas Hansen         : Spin unrestricted coupled pair/coupled cluster methods
   Benjamin Helmich-Paris : MC-RPA, TRAH-SCF, COSX integrals
   Lee Huntington         : MR-EOM, pCC
   Robert Izsak           : Overlap fitted RIJCOSX, COSX-SCS-MP3, EOM
   Marcus Kettner         : VPT2
   Christian Kollmar      : KDIIS, OOCD, Brueckner-CCSD(T), CCSD density, CASPT2, CASPT2-K
   Simone Kossmann        : Meta GGA functionals, TD-DFT gradient, OOMP2, MP2 Hessian
   Martin Krupicka        : Initial AUTO-CI
   Lucas Lang             : DCDCAS
   Marvin Lechner         : AUTO-CI (C++ implementation), FIC-MRCC
   Dagmar Lenk            : GEPOL surface, SMD
   Dimitrios Liakos       : Extrapolation schemes; Compound Job, initial MDCI parallelization
   Dimitrios Manganas     : Further ROCIS development; embedding schemes
   Dimitrios Pantazis     : SARC Basis sets
   Anastasios Papadopoulos: AUTO-CI, single reference methods and gradients
   Taras Petrenko         : DFT Hessian,TD-DFT gradient, ASA, ECA, R-Raman, ABS, FL, XAS/XES, NRVS
   Peter Pinski           : DLPNO-MP2, DLPNO-MP2 Gradient
   Christoph Reimann      : Effective Core Potentials
   Marius Retegan         : Local ZFS, SOC
   Christoph Riplinger    : Optimizer, TS searches, QM/MM, DLPNO-CCSD(T), (RO)-DLPNO pert. Triples
   Tobias Risthaus        : Range-separated hybrids, TD-DFT gradient, RPA, STAB
   Michael Roemelt        : Original ROCIS implementation
   Masaaki Saitow         : Open-shell DLPNO-CCSD energy and density
   Barbara Sandhoefer     : DKH picture change effects
   Avijit Sen             : IP-ROCIS
   Kantharuban Sivalingam : CASSCF convergence, NEVPT2, FIC-MRCI
   Bernardo de Souza      : ESD, SOC TD-DFT
   Georgi Stoychev        : AutoAux, RI-MP2 NMR, DLPNO-MP2 response
   Willem Van den Heuvel  : Paramagnetic NMR
   Boris Wezisla          : Elementary symmetry handling
   Frank Wennmohs         : Technical directorship


 We gratefully acknowledge several colleagues who have allowed us to
 interface, adapt or use parts of their codes:
   Stefan Grimme, W. Hujo, H. Kruse, P. Pracht,  : VdW corrections, initial TS optimization,
                  C. Bannwarth, S. Ehlert          DFT functionals, gCP, sTDA/sTD-DF
   Ed Valeev, F. Pavosevic, A. Kumar             : LibInt (2-el integral package), F12 methods
   Garnet Chan, S. Sharma, J. Yang, R. Olivares  : DMRG
   Ulf Ekstrom                                   : XCFun DFT Library
   Mihaly Kallay                                 : mrcc  (arbitrary order and MRCC methods)
   Jiri Pittner, Ondrej Demel                    : Mk-CCSD
   Frank Weinhold                                : gennbo (NPA and NBO analysis)
   Christopher J. Cramer and Donald G. Truhlar   : smd solvation model
   Lars Goerigk                                  : TD-DFT with DH, B97 family of functionals
   V. Asgeirsson, H. Jonsson                     : NEB implementation
   FAccTs GmbH                                   : IRC, NEB, NEB-TS, DLPNO-Multilevel, CI-OPT
                                                   MM, QMMM, 2- and 3-layer-ONIOM, Crystal-QMMM,
                                                   LR-CPCM, SF, NACMEs, symmetry and pop. for TD-DFT,
                                                   nearIR, NL-DFT gradient (VV10), updates on ESD,
                                                   ML-optimized integration grids
   S Lehtola, MJT Oliveira, MAL Marques          : LibXC Library
   Liviu Ungur et al                             : ANISO software


 Your calculation uses the libint2 library for the computation of 2-el integrals
 For citations please refer to: http://libint.valeyev.net

 Your ORCA version has been built with support for libXC version: 5.1.0
 For citations please refer to: https://tddft.org/programs/libxc/

 This ORCA versions uses:
   CBLAS   interface :  Fast vector & matrix operations
   LAPACKE interface :  Fast linear algebra routines
   SCALAPACK package :  Parallel linear algebra routines
   Shared memory     :  Shared parallel matrices
   BLAS/LAPACK       :  OpenBLAS 0.3.15  USE64BITINT DYNAMIC_ARCH NO_AFFINITY SkylakeX SINGLE_THREADED
        Core in use  :  SkylakeX
   Copyright (c) 2011-2014, The OpenBLAS Project


Your calculation utilizes the geometrical counterpoise correction gCP
Please cite in your paper:
H.Kruse, S. Grimme J.Chem.Phys., 136, (2012), 154101 
   

Your calculation utilizes the atom-pairwise dispersion correction
with the Becke-Johnson damping scheme (D3BJ)
Cite in your paper:
S.Grimme, S.Ehrlich, L.Goerigk, J Comput Chem, (2011), 32, 1456–1465 
S.Grimme, J.Antony, S.Ehrlich and H.Krieg, J.Chem.Phys., 132, (2010), 154104 
   

Your calculation employs the composite approach PBEh-3c.
Please cite in your paper:
S. Grimme, J. G. Brandenburg, C. Bannwarth, A. Hansen J.Chem.Phys., 143, (2015), 054107 
   

================================================================================

cite the ECPs for Pd [Def2-ECP] as follows:
Ce-Yb(ecp-28): M. Dolg, H. Stoll, H.Preuss, J. Chem. Phys., 1989, 90, 1730-1734.
Y-Cd(ecp-28), Hf-Hg(ecp-46): D. Andrae,U. Haeussermann, M. Dolg, H. Stoll, H. Preuss, Theor. Chim. Acta, 1990, 77, 123-141.
In-Sb(ecp-28), Tl-Bi(ecp-46): B. Metz, H. Stoll, M. Dolg, J. Chem. Phys., 2000, 113, 2563-2569.
Te-Xe(ecp-28), Po-Rn(ecp-46): K. A. Peterson, D. Figgen, E. Goll, H. Stoll, M. Dolg, J. Chem. Phys., 2003, 119, 11113-11123.
Rb(ecp-28), Cs(ecp-46): T. Leininger, A. Nicklass, W. Kuechle, H. Stoll, M. Dolg, A. Bergner, Chem. Phys. Lett., 1996, 255, 274-280.
Sr(ecp-28), Ba(ecp-46): M. Kaupp, P. V. Schleyer, H. Stoll and H. Preuss, J. Chem. Phys., 1991, 94, 1360-1366.
La(ecp-46): M. Dolg, H. Stoll, A. Savin, H. Preuss, Theor. Chim. Acta, 1989, 75, 173-194.
Lu(ecp-28): X. Cao, M. Dolg, J. Chem. Phys., 2001, 115, 7348-7355.

ECP parameters for Pd [Def2-ECP] have been obtained from:
TURBOMOLE (7.0.2)

----- Orbital basis set information -----
Your calculation utilizes the basis: def2-mSVP

----- AuxJ basis set information -----
Your calculation utilizes the auxiliary basis: def2/J
   F. Weigend, Phys. Chem. Chem. Phys. 8, 1057 (2006).

================================================================================
                                        WARNINGS
                       Please study these warnings very carefully!
================================================================================


INFO   : the flag for use of the SHARK integral package has been found!

================================================================================
                                       INPUT FILE
================================================================================
NAME = 8_26_orca.inp
|  1> ! EnGrad PBEh-3c
|  2> %output 
|  3> xyzfile=True 
|  4> end 
|  5> %scf 
|  6> maxiter 250 
|  7> end
|  8> %output
|  9> Print[P_Hirshfeld] = 1
| 10> end
| 11> % maxcore
| 12> 4000
| 13> *xyz 0 1
| 14> Pd   0.28413976   0.23497434  -0.12354943 
| 15> O    1.66972017   1.41221774   0.69845349 
| 16> C    1.44349327   2.64705797   0.47025194 
| 17> O    0.33093389   3.09791746   0.11006923 
| 18> C    2.62749596   3.57796882   0.65399535 
| 19> H    2.28375240   4.52379252   1.05937539 
| 20> H    3.05284496   3.80596793  -0.32237941 
| 21> H    3.41055360   3.16153944   1.28652079 
| 22> N   -1.39057479  -0.74505529  -1.03858200 
| 23> C   -1.16816248  -1.91004475  -1.88949360 
| 24> H   -0.53256028  -1.65608854  -2.72411540 
| 25> H   -2.13558842  -2.28212016  -2.21971472 
| 26> H   -0.67225066  -2.66364153  -1.29591140 
| 27> C   -2.02568754   0.30361955  -1.83618490 
| 28> H   -2.16925116   1.20023436  -1.24361162 
| 29> H   -2.99796012  -0.05189570  -2.17930618 
| 30> H   -1.39962584   0.55939455  -2.68502983 
| 31> C   -1.60804492  -0.94768024   1.40434993 
| 32> C   -1.52927736  -2.06221673   2.25347563 
| 33> C   -1.18814574  -1.93045982   3.58678711 
| 34> C   -1.00816413  -0.65431712   4.07568903 
| 35> C   -0.98658560   0.43604810   3.20421762 
| 36> C   -1.22303274   0.37059756   1.82059119 
| 37> H   -0.90929856  -0.53318352   5.15204532 
| 38> H   -0.79881813   1.38885202   3.67032158 
| 39> H   -1.82963267  -3.04938196   1.90027327 
| 40> H   -1.22211714  -2.77796031   4.27690930 
| 41> H   -0.94810900   1.94479263   1.05683515 
| 42> C   -2.27940261  -1.13818260   0.08589999 
| 43> H   -3.15907972  -0.49335595   0.11440248 
| 44> H   -2.63189872  -2.16396287  -0.07267498 
| 45> O    1.75213631   0.17809287  -1.56059147 
| 46> C    2.18096544  -0.72706786  -2.39319738 
| 47> O    1.66183951  -1.75439403  -2.76332814 
| 48> C    3.54138897  -0.39297677  -3.00738081 
| 49> H    3.96558549  -1.31346638  -3.44147215 
| 50> H    4.21806243   0.02686928  -2.25541591 
| 51> H    3.41302115   0.33098076  -3.83224193 
| 52> *
| 53> 
| 54>                          ****END OF INPUT****
================================================================================

                     *******************************
                     * Energy+Gradient Calculation *
                     *******************************

---------------------------------
CARTESIAN COORDINATES (ANGSTROEM)
---------------------------------
  Pd     0.284140    0.234974   -0.123549
  O      1.669720    1.412218    0.698453
  C      1.443493    2.647058    0.470252
  O      0.330934    3.097917    0.110069
  C      2.627496    3.577969    0.653995
  H      2.283752    4.523793    1.059375
  H      3.052845    3.805968   -0.322379
  H      3.410554    3.161539    1.286521
  N     -1.390575   -0.745055   -1.038582
  C     -1.168162   -1.910045   -1.889494
  H     -0.532560   -1.656089   -2.724115
  H     -2.135588   -2.282120   -2.219715
  H     -0.672251   -2.663642   -1.295911
  C     -2.025688    0.303620   -1.836185
  H     -2.169251    1.200234   -1.243612
  H     -2.997960   -0.051896   -2.179306
  H     -1.399626    0.559395   -2.685030
  C     -1.608045   -0.947680    1.404350
  C     -1.529277   -2.062217    2.253476
  C     -1.188146   -1.930460    3.586787
  C     -1.008164   -0.654317    4.075689
  C     -0.986586    0.436048    3.204218
  C     -1.223033    0.370598    1.820591
  H     -0.909299   -0.533184    5.152045
  H     -0.798818    1.388852    3.670322
  H     -1.829633   -3.049382    1.900273
  H     -1.222117   -2.777960    4.276909
  H     -0.948109    1.944793    1.056835
  C     -2.279403   -1.138183    0.085900
  H     -3.159080   -0.493356    0.114402
  H     -2.631899   -2.163963   -0.072675
  O      1.752136    0.178093   -1.560591
  C      2.180965   -0.727068   -2.393197
  O      1.661840   -1.754394   -2.763328
  C      3.541389   -0.392977   -3.007381
  H      3.965585   -1.313466   -3.441472
  H      4.218062    0.026869   -2.255416
  H      3.413021    0.330981   -3.832242

----------------------------
CARTESIAN COORDINATES (A.U.)
----------------------------
  NO LB      ZA    FRAG     MASS         X           Y           Z
   0 Pd   18.0000*   0   106.400    0.536946    0.444037   -0.233475
   1 O     8.0000    0    15.999    3.155314    2.668705    1.319886
   2 C     6.0000    0    12.011    2.727807    5.002215    0.888647
   3 O     8.0000    0    15.999    0.625374    5.854216    0.208001
   4 C     6.0000    0    12.011    4.965248    6.761381    1.235872
   5 H     1.0000    0     1.008    4.315667    8.548729    2.001929
   6 H     1.0000    0     1.008    5.769041    7.192237   -0.609209
   7 H     1.0000    0     1.008    6.445012    5.974444    2.431172
   8 N     7.0000    0    14.007   -2.627806   -1.407950   -1.962636
   9 C     6.0000    0    12.011   -2.207507   -3.609461   -3.570625
  10 H     1.0000    0     1.008   -1.006393   -3.129554   -5.147832
  11 H     1.0000    0     1.008   -4.035677   -4.312582   -4.194653
  12 H     1.0000    0     1.008   -1.270370   -5.033553   -2.448918
  13 C     6.0000    0    12.011   -3.827995    0.573758   -3.469887
  14 H     1.0000    0     1.008   -4.099291    2.268114   -2.350085
  15 H     1.0000    0     1.008   -5.665324   -0.098069   -4.118292
  16 H     1.0000    0     1.008   -2.644910    1.057103   -5.073971
  17 C     6.0000    0    12.011   -3.038765   -1.790856    2.653837
  18 C     6.0000    0    12.011   -2.889915   -3.897025    4.258452
  19 C     6.0000    0    12.011   -2.245270   -3.648040    6.778045
  20 C     6.0000    0    12.011   -1.905154   -1.236480    7.701936
  21 C     6.0000    0    12.011   -1.864377    0.824011    6.055094
  22 C     6.0000    0    12.011   -2.311197    0.700328    3.440419
  23 H     1.0000    0     1.008   -1.718325   -1.007571    9.735955
  24 H     1.0000    0     1.008   -1.509547    2.624550    6.935903
  25 H     1.0000    0     1.008   -3.457505   -5.762497    3.590996
  26 H     1.0000    0     1.008   -2.309467   -5.249584    8.082187
  27 H     1.0000    0     1.008   -1.791666    3.675125    1.997129
  28 C     6.0000    0    12.011   -4.307447   -2.150853    0.162327
  29 H     1.0000    0     1.008   -5.969796   -0.932308    0.216189
  30 H     1.0000    0     1.008   -4.973568   -4.089297   -0.137336
  31 O     8.0000    0    15.999    3.311058    0.336547   -2.949090
  32 C     6.0000    0    12.011    4.121427   -1.373959   -4.522488
  33 O     8.0000    0    15.999    3.140422   -3.315324   -5.221933
  34 C     6.0000    0    12.011    6.692255   -0.742618   -5.683126
  35 H     1.0000    0     1.008    7.493871   -2.482092   -6.503440
  36 H     1.0000    0     1.008    7.970983    0.050776   -4.262118
  37 H     1.0000    0     1.008    6.449675    0.625463   -7.241888
* core charge reduced due to ECP

--------------------------------
INTERNAL COORDINATES (ANGSTROEM)
--------------------------------
 Pd     0   0   0     0.000000000000     0.00000000     0.00000000
 O      1   0   0     1.995350569676     0.00000000     0.00000000
 C      2   1   0     1.275964322124   111.97385384     0.00000000
 O      3   2   1     1.253313304139   123.84338603    18.37368009
 C      3   2   1     1.517306502093   115.70544660   198.70824465
 H      5   3   2     1.084930911788   109.44338460   215.85408652
 H      5   3   2     1.089134077112   108.94284495   100.33379618
 H      5   3   2     1.089348947003   113.37242240   339.22346865
 N      1   2   3     2.145323170019   170.86200272   344.65338736
 C      9   1   2     1.459697992245   119.62247842   148.10030366
 H     10   9   1     1.079387540357   110.65223019   300.40490761
 H     10   9   1     1.087841462809   108.32624680   177.67139408
 H     10   9   1     1.079896508096   107.84844144    59.04323739
 C      9   1   2     1.462620084420   104.12484111    26.54875419
 H     14   9   1     1.084283967727   110.63142910   310.83807182
 H     14   9   1     1.090613256655   108.96301758   191.17968810
 H     14   9   1     1.085316459849   110.18145994    70.18421822
 C      9   1   2     2.460948301452    71.53016129   264.75016337
 C     18   9   1     1.403356822212   131.38143504   247.67449053
 C     19  18   9     1.382552049001   121.44502763   155.56707177
 C     20  19  18     1.378389878837   117.54896287     3.93983955
 C     21  20  19     1.396002995838   120.24659051   351.12862066
 C     22  21  20     1.405209280141   125.14819037     4.34249425
 H     21  20  19     1.087653719252   117.77401496   169.72396361
 H     22  21  20     1.077193034830   115.05219593   182.50088808
 H     19  18   9     1.090623863060   120.49371217   329.67412968
 H     20  19  18     1.093471432502   121.81129284   173.75381417
 H     23  22  21     1.771156816847   110.92095371   185.51217953
 C      9   1   2     1.486278480403   105.36521075   270.73364590
 H     29   9   1     1.091075441179   110.21818535   106.48013810
 H     29   9   1     1.096186430767   109.29139963   224.18212061
 O      1   2   3     2.055076445578    78.95188213    96.31293462
 C     32   1   2     1.302475708502   134.54147312   145.88486244
 O     33  32   1     1.209085427198   130.15154657    16.84392447
 C     33  32   1     1.529571941127   113.43591064   195.19056582
 H     35  33  32     1.102578387763   108.53746038   163.04330689
 H     35  33  32     1.095266583075   110.94927252    41.26519547
 H     35  33  32     1.104983560847   109.84795094   280.10445906

---------------------------
INTERNAL COORDINATES (A.U.)
---------------------------
 Pd     0   0   0     0.000000000000     0.00000000     0.00000000
 O      1   0   0     3.770666117852     0.00000000     0.00000000
 C      2   1   0     2.411223125468   111.97385384     0.00000000
 O      3   2   1     2.368418904823   123.84338603    18.37368009
 C      3   2   1     2.867293750174   115.70544660   198.70824465
 H      5   3   2     2.050222297505   109.44338460   215.85408652
 H      5   3   2     2.058165128863   108.94284495   100.33379618
 H      5   3   2     2.058571174111   113.37242240   339.22346865
 N      1   2   3     4.054073260092   170.86200272   344.65338736
 C      9   1   2     2.758429443578   119.62247842   148.10030366
 H     10   9   1     2.039746843641   110.65223019   300.40490761
 H     10   9   1     2.055722441833   108.32624680   177.67139408
 H     10   9   1     2.040708653280   107.84844144    59.04323739
 C      9   1   2     2.763951397527   104.12484111    26.54875419
 H     14   9   1     2.048999750405   110.63142910   310.83807182
 H     14   9   1     2.060960373102   108.96301758   191.17968810
 H     14   9   1     2.050950877751   110.18145994    70.18421822
 C      9   1   2     4.650518319482    71.53016129   264.75016337
 C     18   9   1     2.651960062152   131.38143504   247.67449053
 C     19  18   9     2.612644738503   121.44502763   155.56707177
 C     20  19  18     2.604779376771   117.54896287     3.93983955
 C     21  20  19     2.638063344268   120.24659051   351.12862066
 C     22  21  20     2.655460700312   125.14819037     4.34249425
 H     21  20  19     2.055367657927   117.77401496   169.72396361
 H     22  21  20     2.035599829195   115.05219593   182.50088808
 H     19  18   9     2.060980416302   120.49371217   329.67412968
 H     20  19  18     2.066361542696   121.81129284   173.75381417
 H     23  22  21     3.347001324069   110.92095371   185.51217953
 C      9   1   2     2.808659286702   105.36521075   270.73364590
 H     29   9   1     2.061833775276   110.21818535   106.48013810
 H     29   9   1     2.071492145870   109.29139963   224.18212061
 O      1   2   3     3.883531666414    78.95188213    96.31293462
 C     32   1   2     2.461322385154   134.54147312   145.88486244
 O     33  32   1     2.284840329920   130.15154657    16.84392447
 C     33  32   1     2.890472070859   113.43591064   195.19056582
 H     35  33  32     2.083571194052   108.53746038   163.04330689
 H     35  33  32     2.069753885648   110.94927252    41.26519547
 H     35  33  32     2.088116312487   109.84795094   280.10445906

---------------------
BASIS SET INFORMATION
---------------------
There are 5 groups of distinct atoms

 Group   1 Type Pd  : 7s6p5d1f contracted to 5s3p2d1f pattern {31111/411/41/1}
 Group   2 Type O   : 8s4p1d contracted to 4s2p1d pattern {5111/31/1}
 Group   3 Type C   : 8s4p1d contracted to 4s2p1d pattern {5111/31/1}
 Group   4 Type H   : 4s contracted to 2s pattern {31}
 Group   5 Type N   : 8s4p1d contracted to 4s2p1d pattern {5111/31/1}

Atom   0Pd   basis set group =>   1
Atom   1O    basis set group =>   2
Atom   2C    basis set group =>   3
Atom   3O    basis set group =>   2
Atom   4C    basis set group =>   3
Atom   5H    basis set group =>   4
Atom   6H    basis set group =>   4
Atom   7H    basis set group =>   4
Atom   8N    basis set group =>   5
Atom   9C    basis set group =>   3
Atom  10H    basis set group =>   4
Atom  11H    basis set group =>   4
Atom  12H    basis set group =>   4
Atom  13C    basis set group =>   3
Atom  14H    basis set group =>   4
Atom  15H    basis set group =>   4
Atom  16H    basis set group =>   4
Atom  17C    basis set group =>   3
Atom  18C    basis set group =>   3
Atom  19C    basis set group =>   3
Atom  20C    basis set group =>   3
Atom  21C    basis set group =>   3
Atom  22C    basis set group =>   3
Atom  23H    basis set group =>   4
Atom  24H    basis set group =>   4
Atom  25H    basis set group =>   4
Atom  26H    basis set group =>   4
Atom  27H    basis set group =>   4
Atom  28C    basis set group =>   3
Atom  29H    basis set group =>   4
Atom  30H    basis set group =>   4
Atom  31O    basis set group =>   2
Atom  32C    basis set group =>   3
Atom  33O    basis set group =>   2
Atom  34C    basis set group =>   3
Atom  35H    basis set group =>   4
Atom  36H    basis set group =>   4
Atom  37H    basis set group =>   4
---------------------------------
AUXILIARY/J BASIS SET INFORMATION
---------------------------------
There are 5 groups of distinct atoms

 Group   1 Type Pd  : 11s5p5d3f3g contracted to 8s5p5d2f3g pattern {41111111/11111/11111/21/111}
 Group   2 Type O   : 12s5p4d2f1g contracted to 6s4p3d1f1g pattern {711111/2111/211/2/1}
 Group   3 Type C   : 12s5p4d2f1g contracted to 6s4p3d1f1g pattern {711111/2111/211/2/1}
 Group   4 Type H   : 5s2p1d contracted to 3s1p1d pattern {311/2/1}
 Group   5 Type N   : 12s5p4d2f1g contracted to 6s4p3d1f1g pattern {711111/2111/211/2/1}

Atom   0Pd   basis set group =>   1
Atom   1O    basis set group =>   2
Atom   2C    basis set group =>   3
Atom   3O    basis set group =>   2
Atom   4C    basis set group =>   3
Atom   5H    basis set group =>   4
Atom   6H    basis set group =>   4
Atom   7H    basis set group =>   4
Atom   8N    basis set group =>   5
Atom   9C    basis set group =>   3
Atom  10H    basis set group =>   4
Atom  11H    basis set group =>   4
Atom  12H    basis set group =>   4
Atom  13C    basis set group =>   3
Atom  14H    basis set group =>   4
Atom  15H    basis set group =>   4
Atom  16H    basis set group =>   4
Atom  17C    basis set group =>   3
Atom  18C    basis set group =>   3
Atom  19C    basis set group =>   3
Atom  20C    basis set group =>   3
Atom  21C    basis set group =>   3
Atom  22C    basis set group =>   3
Atom  23H    basis set group =>   4
Atom  24H    basis set group =>   4
Atom  25H    basis set group =>   4
Atom  26H    basis set group =>   4
Atom  27H    basis set group =>   4
Atom  28C    basis set group =>   3
Atom  29H    basis set group =>   4
Atom  30H    basis set group =>   4
Atom  31O    basis set group =>   2
Atom  32C    basis set group =>   3
Atom  33O    basis set group =>   2
Atom  34C    basis set group =>   3
Atom  35H    basis set group =>   4
Atom  36H    basis set group =>   4
Atom  37H    basis set group =>   4
-------------------------
ECP PARAMETER INFORMATION
-------------------------

 Group 1, Type Pd ECP Def2-ECP (replacing 28 core electrons, lmax=3)

Atom   0Pd   ECP group =>   1

------------------------------------------------------------------------------
                           ORCA GTO INTEGRAL CALCULATION
                           -- RI-GTO INTEGRALS CHOSEN --
------------------------------------------------------------------------------
------------------------------------------------------------------------------
                   ___                                                        
                  /   \      - P O W E R E D   B Y -                         
                 /     \                                                     
                 |  |  |   _    _      __       _____    __    __             
                 |  |  |  | |  | |    /  \     |  _  \  |  |  /  |          
                  \  \/   | |  | |   /    \    | | | |  |  | /  /          
                 / \  \   | |__| |  /  /\  \   | |_| |  |  |/  /          
                |  |  |   |  __  | /  /__\  \  |    /   |      \           
                |  |  |   | |  | | |   __   |  |    \   |  |\   \          
                \     /   | |  | | |  |  |  |  | |\  \  |  | \   \       
                 \___/    |_|  |_| |__|  |__|  |_| \__\ |__|  \__/        
                                                                              
                      - O R C A' S   B I G   F R I E N D -                    
                                      &                                       
                       - I N T E G R A L  F E E D E R -                       
                                                                              
 v1 FN, 2020, v2 2021                                                         
------------------------------------------------------------------------------


Reading SHARK input file 8_26_orca.SHARKINP.tmp ... ok
----------------------
SHARK INTEGRAL PACKAGE
----------------------

Number of atoms                             ...     38
Number of basis functions                   ...    339
Number of shells                            ...    175
Maximum angular momentum                    ...      3
Integral batch strategy                     ... SHARK/LIBINT Hybrid
RI-J (if used) integral strategy            ... SPLIT-RIJ (Revised 2003 algorithm where possible)
Printlevel                                  ...      1
Contraction scheme used                     ... SEGMENTED contraction
Coulomb Range Separation                    ... NOT USED
Exchange Range Separation                   ... NOT USED
Finite Nucleus Model                        ... NOT USED
Auxiliary Coulomb fitting basis             ... AVAILABLE
   # of basis functions in Aux-J            ...   1180
   # of shells in Aux-J                     ...    388
   Maximum angular momentum in Aux-J        ...      4
Auxiliary J/K fitting basis                 ... NOT available
Auxiliary Correlation fitting basis         ... NOT available
Auxiliary 'external' fitting basis          ... NOT available
Integral threshold                          ...     2.500000e-11
Primitive cut-off                           ...     2.500000e-12
Primitive pair pre-selection threshold      ...     2.500000e-12

Calculating pre-screening integrals         ... done (  0.1 sec) Dimension = 175
Organizing shell pair data                  ... done (  0.1 sec)
Shell pair information
Total number of shell pairs                 ...     15400
Shell pairs after pre-screening             ...     10911
Total number of primitive shell pairs       ...     54591
Primitive shell pairs kept                  ...     24391
          la=0 lb=0:   4189 shell pairs
          la=1 lb=0:   3599 shell pairs
          la=1 lb=1:    719 shell pairs
          la=2 lb=0:   1469 shell pairs
          la=2 lb=1:    646 shell pairs
          la=2 lb=2:    144 shell pairs
          la=3 lb=0:     87 shell pairs
          la=3 lb=1:     39 shell pairs
          la=3 lb=2:     18 shell pairs
          la=3 lb=3:      1 shell pairs

Calculating one electron integrals          ... done (  0.1 sec)
Calculating ECP integrals                   ... done (  0.4 sec)
Calculating RI/J V-Matrix + Cholesky decomp.... done (  0.1 sec)
Calculating Nuclear repulsion               ... done (  0.0 sec) ENN=   1732.679925836501 Eh

SHARK setup successfully completed in   0.9 seconds

Maximum memory used throughout the entire GTOINT-calculation: 76.0 MB
-------------------------------------------------------------------------------
                                 ORCA SCF
-------------------------------------------------------------------------------

------------
SCF SETTINGS
------------
Hamiltonian:
 Density Functional     Method          .... DFT(GTOs)
 Exchange Functional    Exchange        .... PBE
   PBE kappa parameter   XKappa         ....  1.024500
   PBE mue parameter    XMuePBE         ....  0.123457
 Correlation Functional Correlation     .... PBE
   PBE beta parameter  CBetaPBE         ....  0.030000
 LDA part of GGA corr.  LDAOpt          .... PW91-LDA
 Gradients option       PostSCFGGA      .... off
 Hybrid DFT is turned on
   Fraction HF Exchange ScalHFX         ....  0.420000
   Scaling of DF-GGA-X  ScalDFX         ....  0.580000
   Scaling of DF-GGA-C  ScalDFC         ....  1.000000
   Scaling of DF-LDA-C  ScalLDAC        ....  1.000000
   Perturbative correction              ....  0.000000
   Density functional embedding theory  .... OFF
 RI-approximation to the Coulomb term is turned on
   Number of AuxJ basis functions       .... 1180
   RIJ-ON(X) (HFX calculated with O(N)) .... on
   Number of AuxJ basis functions       .... 1180
   RIJ-COSX (HFX calculated with COS-X)).... on


General Settings:
 Integral files         IntName         .... 8_26_orca
 Hartree-Fock type      HFTyp           .... RHF
 Total Charge           Charge          ....    0
 Multiplicity           Mult            ....    1
 Number of Electrons    NEL             ....  154
 Basis Dimension        Dim             ....  339
 Nuclear Repulsion      ENuc            ....   1732.6799258365 Eh

Convergence Acceleration:
 DIIS                   CNVDIIS         .... on
   Start iteration      DIISMaxIt       ....    12
   Startup error        DIISStart       ....  0.200000
   # of expansion vecs  DIISMaxEq       ....     5
   Bias factor          DIISBfac        ....   1.050
   Max. coefficient     DIISMaxC        ....  10.000
 Trust-Rad. Augm. Hess. CNVTRAH         .... auto
   Auto Start mean grad. ratio tolernc. ....  1.125000
   Auto Start start iteration           ....    20
   Auto Start num. interpolation iter.  ....    10
   Max. Number of Micro iterations      ....    16
   Max. Number of Macro iterations      .... Maxiter - #DIIS iter
   Number of Davidson start vectors     ....     2
   Converg. threshold I  (grad. norm)   ....   1.000e-05
   Converg. threshold II (energy diff.) ....   1.000e-08
   Grad. Scal. Fac. for Micro threshold ....   0.100
   Minimum threshold for Micro iter.    ....   0.010
   NR start threshold (gradient norm)   ....   0.001
   Initial trust radius                 ....   0.400
   Minimum AH scaling param. (alpha)    ....   1.000
   Maximum AH scaling param. (alpha)    .... 1000.000
   Orbital update algorithm             .... Taylor
   White noise on init. David. guess    .... on
   Maximum white noise                  ....   0.010
   Quad. conv. algorithm                .... NR
   COSX micro iterations for RIJONX calc.... off
 SOSCF                  CNVSOSCF        .... off
 Level Shifting         CNVShift        .... on
   Level shift para.    LevelShift      ....    0.2500
   Turn off err/grad.   ShiftErr        ....    0.0010
 Zerner damping         CNVZerner       .... off
 Static damping         CNVDamp         .... on
   Fraction old density DampFac         ....    0.7000
   Max. Damping (<1)    DampMax         ....    0.9800
   Min. Damping (>=0)   DampMin         ....    0.0000
   Turn off err/grad.   DampErr         ....    0.1000
 Fernandez-Rico         CNVRico         .... off

SCF Procedure:
 Maximum # iterations   MaxIter         ....   250
 SCF integral mode      SCFMode         .... Direct
   Integral package                     .... SHARK and LIBINT hybrid scheme
 Reset frequency        DirectResetFreq ....    20
 Integral Threshold     Thresh          ....  2.500e-11 Eh
 Primitive CutOff       TCut            ....  2.500e-12 Eh

Convergence Tolerance:
 Convergence Check Mode ConvCheckMode   .... Total+1el-Energy
 Convergence forced     ConvForced      .... 0
 Energy Change          TolE            ....  1.000e-08 Eh
 1-El. energy change                    ....  1.000e-05 Eh
 DIIS Error             TolErr          ....  5.000e-07


Diagonalization of the overlap matrix:
Smallest eigenvalue                        ... 6.640e-04
Time for diagonalization                   ...    0.012 sec
Threshold for overlap eigenvalues          ... 1.000e-08
Number of eigenvalues below threshold      ... 0
Time for construction of square roots      ...    0.005 sec
Total time needed                          ...    0.018 sec

--------------------------------
INITIAL GUESS: MINIMAL BASIS EHT
--------------------------------
The minimal basis has 122 functions
EHT matrix was diagonalized
Basis set overlap was calculated now projecting the orbitals
Using GuessMode=FMatrix for the initial guess
C*T matrix was formed
Effective Fockian was calculated
Effective Fockian was diagonalized
Initial density was built
                      ------------------
                      INITIAL GUESS DONE
                      ------------------
-------------------
DFT GRID GENERATION
-------------------

General Integration Accuracy     IntAcc      ... 4.159
Radial Grid Type                 RadialGrid  ... OptM3 with GC (2021)
Angular Grid (max. ang.)         AngularGrid ... 3 (Lebedev-194)
Angular grid pruning method      GridPruning ... 4 (adaptive)
Weight generation scheme         WeightScheme... Becke
Basis function cutoff            BFCut       ... 1.0000e-11
Integration weight cutoff        WCut        ... 1.0000e-14
Angular grids for H and He will be reduced by one unit
Partially contracted basis set               ... off
Rotationally invariant grid construction     ... off

Total number of grid points                  ...    89979
Total number of batches                      ...     1423
Average number of points per batch           ...       63
Average number of grid points per atom       ...     2368
Time for grid setup =    1.422 sec

--------------------
COSX GRID GENERATION
--------------------

GRIDX 1
-------
General Integration Accuracy     IntAcc      ... 3.816
Radial Grid Type                 RadialGrid  ... OptM3 with GC (2021)
Angular Grid (max. ang.)         AngularGrid ... 1 (Lebedev-50)
Angular grid pruning method      GridPruning ... 4 (adaptive)
Weight generation scheme         WeightScheme... Becke
Basis function cutoff            BFCut       ... 1.0000e-11
Integration weight cutoff        WCut        ... 1.0000e-14
Angular grids for H and He will be reduced by one unit
Partially contracted basis set               ... on
Rotationally invariant grid construction     ... off

Total number of grid points                  ...    22435
Total number of batches                      ...      367
Average number of points per batch           ...       61
Average number of grid points per atom       ...      590
UseSFitting                                  ... on

GRIDX 2
-------
General Integration Accuracy     IntAcc      ... 4.020
Radial Grid Type                 RadialGrid  ... OptM3 with GC (2021)
Angular Grid (max. ang.)         AngularGrid ... 2 (Lebedev-110)
Angular grid pruning method      GridPruning ... 4 (adaptive)
Weight generation scheme         WeightScheme... Becke
Basis function cutoff            BFCut       ... 1.0000e-11
Integration weight cutoff        WCut        ... 1.0000e-14
Angular grids for H and He will be reduced by one unit
Partially contracted basis set               ... on
Rotationally invariant grid construction     ... off

Total number of grid points                  ...    48231
Total number of batches                      ...      773
Average number of points per batch           ...       62
Average number of grid points per atom       ...     1269
UseSFitting                                  ... on

GRIDX 3
-------
General Integration Accuracy     IntAcc      ... 4.338
Radial Grid Type                 RadialGrid  ... OptM3 with GC (2021)
Angular Grid (max. ang.)         AngularGrid ... 3 (Lebedev-194)
Angular grid pruning method      GridPruning ... 4 (adaptive)
Weight generation scheme         WeightScheme... Becke
Basis function cutoff            BFCut       ... 1.0000e-11
Integration weight cutoff        WCut        ... 1.0000e-14
Angular grids for H and He will be reduced by one unit
Partially contracted basis set               ... on
Rotationally invariant grid construction     ... off

Total number of grid points                  ...   104420
Total number of batches                      ...     1653
Average number of points per batch           ...       63
Average number of grid points per atom       ...     2748
UseSFitting                                  ... on

Time for X-Grid setup             =    3.479 sec

--------------
SCF ITERATIONS
--------------
ITER       Energy         Delta-E        Max-DP      RMS-DP      [F,P]     Damp
               ***  Starting incremental Fock matrix formation  ***
  0   -976.0497136143   0.000000000000 2.97370758  0.02441886  5.2346458 0.7000
  1   -977.2033931570  -1.153679542654 3.90455372  0.02750858  3.8758623 0.7000
  2   -979.0239081560  -1.820514999045 1.25769184  0.01005046  2.7527253 0.7000
  3   -981.6762172889  -2.652309132836 0.84055903  0.00713885  1.9642033 0.7000
  4   -983.6369116708  -1.960694381939 0.57211413  0.00501771  1.3667050 0.7000
  5   -985.0417230319  -1.404811361056 0.40270135  0.00354380  0.9493190 0.7000
  6   -986.0421275993  -1.000404567418 0.28678552  0.00251883  0.6638252 0.7000
  7   -986.7542774043  -0.712149805066 0.20393404  0.00179386  0.4668267 0.7000
  8   -987.2590754890  -0.504798084640 0.14432957  0.00127631  0.3287983 0.7000
  9   -987.6157411760  -0.356665686978 0.10174621  0.00090721  0.2312514 0.7000
                               ***Turning on DIIS***
 10   -987.8671974745  -0.251456298569 0.07157309  0.00064501  0.1622817 0.7000
 11   -988.0441901613  -0.176992686747 0.05058097  0.00046666  0.1136948 0.7000
 12   -988.1686443411  -0.124454179821 0.11867148  0.00112228  0.0795339 0.0000
 13   -988.4611403279  -0.292495986846 0.00516240  0.00006247  0.0026435 0.0000
 14   -988.4612978922  -0.000157564247 0.00571669  0.00005348  0.0021684 0.0000
 15   -988.4613887269  -0.000090834754 0.00435270  0.00003677  0.0016398 0.0000
 16   -988.4614319207  -0.000043193763 0.00350781  0.00002702  0.0012109 0.0000
 17   -988.4614535203  -0.000021599625 0.00615647  0.00004614  0.0008841 0.0000
               *** Restarting incremental Fock matrix formation ***
                                   *** Resetting DIIS ***
 18   -988.4617221019  -0.000268581621 0.00172027  0.00002655  0.0002759 0.0000
 19   -988.4617251218  -0.000003019894 0.00051182  0.00000505  0.0001960 0.0000
 20   -988.4617255607  -0.000000438901 0.00042973  0.00000336  0.0002188 0.0000
 21   -988.4617259044  -0.000000343690 0.00027684  0.00000201  0.0000864 0.0000
 22   -988.4617260066  -0.000000102207 0.00034993  0.00000228  0.0000600 0.0000
 23   -988.4617260824  -0.000000075733 0.00019915  0.00000132  0.0000264 0.0000
 24   -988.4617261009  -0.000000018522 0.00005865  0.00000041  0.0000133 0.0000
 25   -988.4617261008   0.000000000094 0.00001966  0.00000016  0.0000054 0.0000
 26   -988.4617260938   0.000000007011 0.00000708  0.00000006  0.0000030 0.0000
                 **** Energy Check signals convergence ****

               *****************************************************
               *                     SUCCESS                       *
               *           SCF CONVERGED AFTER  27 CYCLES          *
               *****************************************************

Old exchange energy                            =    -52.621549083 Eh
New exchange energy                            =    -52.621491510 Eh
Exchange energy change after final integration =      0.000057573 Eh
Total energy after final integration           =   -988.461668529 Eh
Final COS-X integration done in                =    42.705 sec

----------------
TOTAL SCF ENERGY
----------------

Total Energy       :         -988.46166853 Eh          -26897.40944 eV

Components:
Nuclear Repulsion  :         1732.67992584 Eh           47148.61777 eV
Electronic Energy  :        -2721.14159437 Eh          -74046.02721 eV
One Electron Energy:        -4846.30326998 Eh         -131874.61635 eV
Two Electron Energy:         2125.16167561 Eh           57828.58914 eV
Max COSX asymmetry :            0.00006857 Eh               0.00187 eV

Virial components:
Potential Energy   :        -1890.05023806 Eh          -51430.88167 eV
Kinetic Energy     :          901.58856953 Eh           24533.47223 eV
Virial Ratio       :            2.09635559


DFT components:
N(Alpha)           :       76.999915809029 electrons
N(Beta)            :       76.999915809029 electrons
N(Total)           :      153.999831618057 electrons
E(X)               :      -70.187755291511 Eh       
E(C)               :       -6.914792822730 Eh       
E(XC)              :      -77.102548114241 Eh       
DFET-embed. en.    :        0.000000000000 Eh       

---------------
SCF CONVERGENCE
---------------

  Last Energy change         ...   -8.2040e-09  Tolerance :   1.0000e-08
  Last MAX-Density change    ...    0.0000e+00  Tolerance :   1.0000e-07
  Last RMS-Density change    ...    0.0000e+00  Tolerance :   5.0000e-09
  Last DIIS Error            ...    1.4342e-06  Tolerance :   5.0000e-07

             **** THE GBW FILE WAS UPDATED (8_26_orca.gbw) ****
             **** DENSITY 8_26_orca.scfp WAS UPDATED ****
             **** ENERGY FILE WAS UPDATED (8_26_orca.en.tmp) ****
             **** THE GBW FILE WAS UPDATED (8_26_orca.gbw) ****
             **** DENSITY 8_26_orca.scfp WAS UPDATED ****
----------------
ORBITAL ENERGIES
----------------

  NO   OCC          E(Eh)            E(eV) 
   0   2.0000     -19.494785      -530.4801 
   1   2.0000     -19.470674      -529.8240 
   2   2.0000     -19.465704      -529.6887 
   3   2.0000     -19.427509      -528.6494 
   4   2.0000     -14.723957      -400.6592 
   5   2.0000     -10.557446      -287.2827 
   6   2.0000     -10.528142      -286.4853 
   7   2.0000     -10.513441      -286.0853 
   8   2.0000     -10.506620      -285.8997 
   9   2.0000     -10.500436      -285.7314 
  10   2.0000     -10.486278      -285.3461 
  11   2.0000     -10.476667      -285.0846 
  12   2.0000     -10.475954      -285.0652 
  13   2.0000     -10.475057      -285.0408 
  14   2.0000     -10.470090      -284.9056 
  15   2.0000     -10.467862      -284.8450 
  16   2.0000     -10.428334      -283.7694 
  17   2.0000     -10.408623      -283.2330 
  18   2.0000      -3.673737       -99.9675 
  19   2.0000      -2.323934       -63.2375 
  20   2.0000      -2.313679       -62.9584 
  21   2.0000      -2.284573       -62.1664 
  22   2.0000      -1.172261       -31.8988 
  23   2.0000      -1.139489       -31.0071 
  24   2.0000      -1.088138       -29.6097 
  25   2.0000      -1.070968       -29.1425 
  26   2.0000      -1.051850       -28.6223 
  27   2.0000      -0.984300       -26.7842 
  28   2.0000      -0.895705       -24.3734 
  29   2.0000      -0.859717       -23.3941 
  30   2.0000      -0.826322       -22.4854 
  31   2.0000      -0.812052       -22.0971 
  32   2.0000      -0.806592       -21.9485 
  33   2.0000      -0.780793       -21.2465 
  34   2.0000      -0.721913       -19.6443 
  35   2.0000      -0.704202       -19.1623 
  36   2.0000      -0.678616       -18.4661 
  37   2.0000      -0.614704       -16.7269 
  38   2.0000      -0.602755       -16.4018 
  39   2.0000      -0.585729       -15.9385 
  40   2.0000      -0.579111       -15.7584 
  41   2.0000      -0.576439       -15.6857 
  42   2.0000      -0.565222       -15.3805 
  43   2.0000      -0.537933       -14.6379 
  44   2.0000      -0.532305       -14.4848 
  45   2.0000      -0.526311       -14.3217 
  46   2.0000      -0.518497       -14.1090 
  47   2.0000      -0.512868       -13.9558 
  48   2.0000      -0.502813       -13.6822 
  49   2.0000      -0.495216       -13.4755 
  50   2.0000      -0.490506       -13.3473 
  51   2.0000      -0.482930       -13.1412 
  52   2.0000      -0.481546       -13.1035 
  53   2.0000      -0.480062       -13.0631 
  54   2.0000      -0.460823       -12.5396 
  55   2.0000      -0.455965       -12.4074 
  56   2.0000      -0.447051       -12.1649 
  57   2.0000      -0.443519       -12.0688 
  58   2.0000      -0.437866       -11.9149 
  59   2.0000      -0.433794       -11.8041 
  60   2.0000      -0.422591       -11.4993 
  61   2.0000      -0.415974       -11.3192 
  62   2.0000      -0.410355       -11.1663 
  63   2.0000      -0.404925       -11.0186 
  64   2.0000      -0.393650       -10.7118 
  65   2.0000      -0.383164       -10.4264 
  66   2.0000      -0.366030        -9.9602 
  67   2.0000      -0.355175        -9.6648 
  68   2.0000      -0.352637        -9.5957 
  69   2.0000      -0.332788        -9.0556 
  70   2.0000      -0.325423        -8.8552 
  71   2.0000      -0.315686        -8.5902 
  72   2.0000      -0.312699        -8.5090 
  73   2.0000      -0.308286        -8.3889 
  74   2.0000      -0.296033        -8.0555 
  75   2.0000      -0.289846        -7.8871 
  76   2.0000      -0.276926        -7.5355 
  77   0.0000      -0.083874        -2.2823 
  78   0.0000      -0.025783        -0.7016 
  79   0.0000      -0.013477        -0.3667 
  80   0.0000      -0.000678        -0.0185 
  81   0.0000       0.057152         1.5552 
  82   0.0000       0.065018         1.7692 
  83   0.0000       0.082207         2.2370 
  84   0.0000       0.099316         2.7025 
  85   0.0000       0.108232         2.9451 
  86   0.0000       0.115440         3.1413 
  87   0.0000       0.125264         3.4086 
  88   0.0000       0.133096         3.6217 
  89   0.0000       0.143786         3.9126 
  90   0.0000       0.153591         4.1794 
  91   0.0000       0.159491         4.3400 
  92   0.0000       0.171267         4.6604 
  93   0.0000       0.181412         4.9365 
  94   0.0000       0.189104         5.1458 
  95   0.0000       0.201580         5.4853 
  96   0.0000       0.206758         5.6262 
  97   0.0000       0.209887         5.7113 
  98   0.0000       0.212944         5.7945 
  99   0.0000       0.220748         6.0069 
 100   0.0000       0.226168         6.1543 
 101   0.0000       0.234531         6.3819 
 102   0.0000       0.237724         6.4688 
 103   0.0000       0.242211         6.5909 
 104   0.0000       0.244507         6.6534 
 105   0.0000       0.251176         6.8348 
 106   0.0000       0.256050         6.9675 
 107   0.0000       0.260650         7.0926 
 108   0.0000       0.261231         7.1084 
 109   0.0000       0.269321         7.3286 
 110   0.0000       0.276381         7.5207 
 111   0.0000       0.282455         7.6860 
 112   0.0000       0.289195         7.8694 
 113   0.0000       0.296049         8.0559 
 114   0.0000       0.314861         8.5678 
 115   0.0000       0.330501         8.9934 
 116   0.0000       0.355391         9.6707 
 117   0.0000       0.370739        10.0883 
 118   0.0000       0.391881        10.6636 
 119   0.0000       0.410022        11.1573 
 120   0.0000       0.424751        11.5581 
 121   0.0000       0.435519        11.8511 
 122   0.0000       0.453246        12.3334 
 123   0.0000       0.459811        12.5121 
 124   0.0000       0.464902        12.6506 
 125   0.0000       0.501274        13.6404 
 126   0.0000       0.507207        13.8018 
 127   0.0000       0.512632        13.9494 
 128   0.0000       0.530425        14.4336 
 129   0.0000       0.534583        14.5467 
 130   0.0000       0.546016        14.8579 
 131   0.0000       0.551453        15.0058 
 132   0.0000       0.557543        15.1715 
 133   0.0000       0.564126        15.3507 
 134   0.0000       0.569639        15.5007 
 135   0.0000       0.576965        15.7000 
 136   0.0000       0.584458        15.9039 
 137   0.0000       0.589550        16.0425 
 138   0.0000       0.592935        16.1346 
 139   0.0000       0.597980        16.2719 
 140   0.0000       0.604036        16.4367 
 141   0.0000       0.609137        16.5755 
 142   0.0000       0.609855        16.5950 
 143   0.0000       0.621737        16.9183 
 144   0.0000       0.622622        16.9424 
 145   0.0000       0.626152        17.0385 
 146   0.0000       0.637027        17.3344 
 147   0.0000       0.647653        17.6235 
 148   0.0000       0.657203        17.8834 
 149   0.0000       0.662422        18.0254 
 150   0.0000       0.669280        18.2120 
 151   0.0000       0.675525        18.3820 
 152   0.0000       0.687675        18.7126 
 153   0.0000       0.701172        19.0799 
 154   0.0000       0.711859        19.3707 
 155   0.0000       0.724157        19.7053 
 156   0.0000       0.740226        20.1426 
 157   0.0000       0.746845        20.3227 
 158   0.0000       0.769564        20.9409 
 159   0.0000       0.789187        21.4749 
 160   0.0000       0.797917        21.7124 
 161   0.0000       0.818713        22.2783 
 162   0.0000       0.846034        23.0217 
 163   0.0000       0.864193        23.5159 
 164   0.0000       0.874950        23.8086 
 165   0.0000       0.885144        24.0860 
 166   0.0000       0.888800        24.1855 
 167   0.0000       0.904891        24.6233 
 168   0.0000       0.907665        24.6988 
 169   0.0000       0.940072        25.5807 
 170   0.0000       0.951039        25.8791 
 171   0.0000       0.955799        26.0086 
 172   0.0000       0.962978        26.2040 
 173   0.0000       0.970965        26.4213 
 174   0.0000       0.983452        26.7611 
 175   0.0000       0.994349        27.0576 
 176   0.0000       1.001136        27.2423 
 177   0.0000       1.001622        27.2555 
 178   0.0000       1.012934        27.5633 
 179   0.0000       1.020469        27.7684 
 180   0.0000       1.022150        27.8141 
 181   0.0000       1.027606        27.9626 
 182   0.0000       1.032181        28.0871 
 183   0.0000       1.040060        28.3015 
 184   0.0000       1.049445        28.5568 
 185   0.0000       1.060027        28.8448 
 186   0.0000       1.066218        29.0133 
 187   0.0000       1.070623        29.1331 
 188   0.0000       1.077652        29.3244 
 189   0.0000       1.078935        29.3593 
 190   0.0000       1.088190        29.6112 
 191   0.0000       1.098779        29.8993 
 192   0.0000       1.106162        30.1002 
 193   0.0000       1.113890        30.3105 
 194   0.0000       1.129623        30.7386 
 195   0.0000       1.138412        30.9778 
 196   0.0000       1.151516        31.3344 
 197   0.0000       1.169491        31.8235 
 198   0.0000       1.184663        32.2363 
 199   0.0000       1.191734        32.4287 
 200   0.0000       1.202544        32.7229 
 201   0.0000       1.229167        33.4473 
 202   0.0000       1.240078        33.7442 
 203   0.0000       1.248012        33.9601 
 204   0.0000       1.251904        34.0661 
 205   0.0000       1.276517        34.7358 
 206   0.0000       1.284942        34.9651 
 207   0.0000       1.320515        35.9330 
 208   0.0000       1.326385        36.0928 
 209   0.0000       1.337118        36.3848 
 210   0.0000       1.367635        37.2152 
 211   0.0000       1.409220        38.3468 
 212   0.0000       1.415511        38.5180 
 213   0.0000       1.430039        38.9133 
 214   0.0000       1.451656        39.5016 
 215   0.0000       1.461764        39.7766 
 216   0.0000       1.481293        40.3080 
 217   0.0000       1.494066        40.6556 
 218   0.0000       1.506492        40.9937 
 219   0.0000       1.511660        41.1344 
 220   0.0000       1.540658        41.9234 
 221   0.0000       1.549656        42.1683 
 222   0.0000       1.556837        42.3637 
 223   0.0000       1.563312        42.5399 
 224   0.0000       1.573957        42.8296 
 225   0.0000       1.616321        43.9823 
 226   0.0000       1.624398        44.2021 
 227   0.0000       1.647822        44.8395 
 228   0.0000       1.711015        46.5591 
 229   0.0000       1.754476        47.7417 
 230   0.0000       1.762114        47.9496 
 231   0.0000       1.778459        48.3943 
 232   0.0000       1.819816        49.5197 
 233   0.0000       1.830357        49.8065 
 234   0.0000       1.842023        50.1240 
 235   0.0000       1.851025        50.3689 
 236   0.0000       1.853868        50.4463 
 237   0.0000       1.893788        51.5326 
 238   0.0000       1.896465        51.6054 
 239   0.0000       1.920253        52.2527 
 240   0.0000       1.921666        52.2912 
 241   0.0000       1.931022        52.5458 
 242   0.0000       1.933385        52.6101 
 243   0.0000       1.944224        52.9050 
 244   0.0000       1.950138        53.0660 
 245   0.0000       1.961788        53.3830 
 246   0.0000       1.975676        53.7609 
 247   0.0000       1.989993        54.1505 
 248   0.0000       1.999399        54.4064 
 249   0.0000       2.006120        54.5893 
 250   0.0000       2.011519        54.7362 
 251   0.0000       2.019086        54.9421 
 252   0.0000       2.034713        55.3674 
 253   0.0000       2.057591        55.9899 
 254   0.0000       2.062679        56.1284 
 255   0.0000       2.074879        56.4603 
 256   0.0000       2.093071        56.9553 
 257   0.0000       2.105704        57.2991 
 258   0.0000       2.108763        57.3824 
 259   0.0000       2.132884        58.0387 
 260   0.0000       2.138482        58.1911 
 261   0.0000       2.146133        58.3992 
 262   0.0000       2.155860        58.6639 
 263   0.0000       2.167732        58.9870 
 264   0.0000       2.177590        59.2552 
 265   0.0000       2.193878        59.6985 
 266   0.0000       2.202665        59.9376 
 267   0.0000       2.206528        60.0427 
 268   0.0000       2.214343        60.2553 
 269   0.0000       2.222608        60.4802 
 270   0.0000       2.252465        61.2927 
 271   0.0000       2.274036        61.8797 
 272   0.0000       2.276304        61.9414 
 273   0.0000       2.295327        62.4590 
 274   0.0000       2.309229        62.8373 
 275   0.0000       2.323993        63.2391 
 276   0.0000       2.327833        63.3436 
 277   0.0000       2.332821        63.4793 
 278   0.0000       2.342489        63.7424 
 279   0.0000       2.346443        63.8500 
 280   0.0000       2.378894        64.7330 
 281   0.0000       2.404077        65.4183 
 282   0.0000       2.435090        66.2622 
 283   0.0000       2.449495        66.6541 
 284   0.0000       2.458903        66.9101 
 285   0.0000       2.467495        67.1440 
 286   0.0000       2.473729        67.3136 
 287   0.0000       2.481153        67.5156 
 288   0.0000       2.495101        67.8952 
 289   0.0000       2.510792        68.3221 
 290   0.0000       2.516154        68.4680 
 291   0.0000       2.552162        69.4479 
 292   0.0000       2.564747        69.7903 
 293   0.0000       2.578218        70.1569 
 294   0.0000       2.580126        70.2088 
 295   0.0000       2.632212        71.6261 
 296   0.0000       2.635672        71.7203 
 297   0.0000       2.646714        72.0207 
 298   0.0000       2.689270        73.1788 
 299   0.0000       2.724342        74.1331 
 300   0.0000       2.737812        74.4997 
 301   0.0000       2.747211        74.7554 
 302   0.0000       2.777669        75.5842 
 303   0.0000       2.792720        75.9938 
 304   0.0000       2.802549        76.2612 
 305   0.0000       2.816832        76.6499 
 306   0.0000       2.826032        76.9002 
 307   0.0000       2.852881        77.6309 
 308   0.0000       2.864369        77.9434 
 309   0.0000       2.879312        78.3500 
 310   0.0000       2.890649        78.6586 
 311   0.0000       2.950165        80.2781 
 312   0.0000       3.018514        82.1379 
 313   0.0000       3.038688        82.6869 
 314   0.0000       3.059625        83.2566 
 315   0.0000       3.070976        83.5655 
 316   0.0000       3.099409        84.3392 
 317   0.0000       3.202719        87.1504 
 318   0.0000       3.254818        88.5681 
 319   0.0000       3.382696        92.0478 
 320   0.0000      13.295855       361.7986 
 321   0.0000      13.629553       370.8790 
 322   0.0000      13.660167       371.7120 
 323   0.0000      13.688971       372.4958 
 324   0.0000      13.715001       373.2042 
 325   0.0000      13.729517       373.5991 
 326   0.0000      13.889081       377.9411 
 327   0.0000      13.974730       380.2717 
 328   0.0000      14.095473       383.5573 
 329   0.0000      14.102462       383.7475 
 330   0.0000      14.140511       384.7829 
 331   0.0000      14.159567       385.3014 
 332   0.0000      14.462000       393.5310 
 333   0.0000      19.384280       527.4731 
 334   0.0000      25.693085       699.1444 
 335   0.0000      25.738483       700.3797 
 336   0.0000      25.781282       701.5443 
 337   0.0000      25.798620       702.0161 
 338   0.0000      51.615807      1404.5375 

                    ********************************
                    * MULLIKEN POPULATION ANALYSIS *
                    ********************************

-----------------------
MULLIKEN ATOMIC CHARGES
-----------------------
   0 Pd:    0.507794
   1 O :   -0.484992
   2 C :    0.595170
   3 O :   -0.491056
   4 C :   -0.743782
   5 H :    0.242042
   6 H :    0.257287
   7 H :    0.247872
   8 N :   -0.475410
   9 C :   -0.528308
  10 H :    0.308685
  11 H :    0.208226
  12 H :    0.265358
  13 C :   -0.543628
  14 H :    0.279840
  15 H :    0.234409
  16 H :    0.285052
  17 C :    0.024941
  18 C :   -0.253371
  19 C :   -0.206319
  20 C :   -0.219386
  21 C :   -0.201414
  22 C :   -0.273402
  23 H :    0.236722
  24 H :    0.241368
  25 H :    0.227062
  26 H :    0.235970
  27 H :    0.299770
  28 C :   -0.322122
  29 H :    0.267289
  30 H :    0.255080
  31 O :   -0.521446
  32 C :    0.549141
  33 O :   -0.462508
  34 C :   -0.734179
  35 H :    0.232674
  36 H :    0.232554
  37 H :    0.227018
Sum of atomic charges:    0.0000000

--------------------------------
MULLIKEN REDUCED ORBITAL CHARGES
--------------------------------
  0 Pds       :     2.449188  s :     2.449188
      pz      :     2.109360  p :     6.348783
      px      :     2.136305
      py      :     2.103117
      dz2     :     1.877574  d :     8.690244
      dxz     :     1.310715
      dyz     :     1.909624
      dx2y2   :     1.969455
      dxy     :     1.622877
      f0      :     0.000538  f :     0.003991
      f+1     :     0.000648
      f-1     :     0.000176
      f+2     :     0.000564
      f-2     :     0.001032
      f+3     :     0.000377
      f-3     :     0.000657
  1 O s       :     3.813133  s :     3.813133
      pz      :     1.633607  p :     4.644021
      px      :     1.703948
      py      :     1.306466
      dz2     :     0.003318  d :     0.027838
      dxz     :     0.002592
      dyz     :     0.007622
      dx2y2   :     0.007416
      dxy     :     0.006890
  2 C s       :     2.962080  s :     2.962080
      pz      :     0.710055  p :     2.302888
      px      :     0.822153
      py      :     0.770680
      dz2     :     0.010890  d :     0.139862
      dxz     :     0.017124
      dyz     :     0.022109
      dx2y2   :     0.043826
      dxy     :     0.045913
  3 O s       :     3.799675  s :     3.799675
      pz      :     1.524927  p :     4.665479
      px      :     1.389409
      py      :     1.751143
      dz2     :     0.003730  d :     0.025902
      dxz     :     0.007242
      dyz     :     0.002254
      dx2y2   :     0.005912
      dxy     :     0.006765
  4 C s       :     3.412037  s :     3.412037
      pz      :     1.165400  p :     3.298062
      px      :     1.044751
      py      :     1.087911
      dz2     :     0.006390  d :     0.033683
      dxz     :     0.007804
      dyz     :     0.004904
      dx2y2   :     0.005448
      dxy     :     0.009137
  5 H s       :     0.757958  s :     0.757958
  6 H s       :     0.742713  s :     0.742713
  7 H s       :     0.752128  s :     0.752128
  8 N s       :     3.590382  s :     3.590382
      pz      :     1.204671  p :     3.836349
      px      :     1.422387
      py      :     1.209291
      dz2     :     0.007509  d :     0.048679
      dxz     :     0.010995
      dyz     :     0.012995
      dx2y2   :     0.008212
      dxy     :     0.008968
  9 C s       :     3.364510  s :     3.364510
      pz      :     1.084394  p :     3.113769
      px      :     1.124349
      py      :     0.905026
      dz2     :     0.005293  d :     0.050030
      dxz     :     0.010820
      dyz     :     0.015098
      dx2y2   :     0.009172
      dxy     :     0.009646
 10 H s       :     0.691315  s :     0.691315
 11 H s       :     0.791774  s :     0.791774
 12 H s       :     0.734642  s :     0.734642
 13 C s       :     3.365312  s :     3.365312
      pz      :     1.073593  p :     3.128212
      px      :     1.086329
      py      :     0.968291
      dz2     :     0.005039  d :     0.050104
      dxz     :     0.011806
      dyz     :     0.013663
      dx2y2   :     0.011575
      dxy     :     0.008022
 14 H s       :     0.720160  s :     0.720160
 15 H s       :     0.765591  s :     0.765591
 16 H s       :     0.714948  s :     0.714948
 17 C s       :     3.195355  s :     3.195355
      pz      :     0.924295  p :     2.732699
      px      :     0.947361
      py      :     0.861042
      dz2     :     0.010014  d :     0.047006
      dxz     :     0.007131
      dyz     :     0.013164
      dx2y2   :     0.008150
      dxy     :     0.008547
 18 C s       :     3.258026  s :     3.258026
      pz      :     0.945175  p :     2.955908
      px      :     1.006831
      py      :     1.003902
      dz2     :     0.010484  d :     0.039437
      dxz     :     0.006256
      dyz     :     0.012201
      dx2y2   :     0.005968
      dxy     :     0.004529
 19 C s       :     3.257160  s :     3.257160
      pz      :     0.963306  p :     2.908169
      px      :     0.944878
      py      :     0.999984
      dz2     :     0.009373  d :     0.040991
      dxz     :     0.005565
      dyz     :     0.015075
      dx2y2   :     0.006386
      dxy     :     0.004591
 20 C s       :     3.242497  s :     3.242497
      pz      :     1.047504  p :     2.936962
      px      :     0.990814
      py      :     0.898643
      dz2     :     0.013046  d :     0.039927
      dxz     :     0.002622
      dyz     :     0.011517
      dx2y2   :     0.006367
      dxy     :     0.006374
 21 C s       :     3.263942  s :     3.263942
      pz      :     0.916903  p :     2.897189
      px      :     0.952622
      py      :     1.027664
      dz2     :     0.009774  d :     0.040282
      dxz     :     0.006449
      dyz     :     0.014700
      dx2y2   :     0.005876
      dxy     :     0.003483
 22 C s       :     3.265724  s :     3.265724
      pz      :     0.942931  p :     2.972999
      px      :     0.969740
      py      :     1.060327
      dz2     :     0.011006  d :     0.034680
      dxz     :     0.005754
      dyz     :     0.007878
      dx2y2   :     0.004998
      dxy     :     0.005044
 23 H s       :     0.763278  s :     0.763278
 24 H s       :     0.758632  s :     0.758632
 25 H s       :     0.772938  s :     0.772938
 26 H s       :     0.764030  s :     0.764030
 27 H s       :     0.700230  s :     0.700230
 28 C s       :     3.318513  s :     3.318513
      pz      :     0.826629  p :     2.948631
      px      :     0.968383
      py      :     1.153619
      dz2     :     0.015988  d :     0.054978
      dxz     :     0.013787
      dyz     :     0.006360
      dx2y2   :     0.007302
      dxy     :     0.011541
 29 H s       :     0.732711  s :     0.732711
 30 H s       :     0.744920  s :     0.744920
 31 O s       :     3.809614  s :     3.809614
      pz      :     1.502583  p :     4.688789
      px      :     1.610148
      py      :     1.576058
      dz2     :     0.004827  d :     0.023043
      dxz     :     0.002952
      dyz     :     0.006954
      dx2y2   :     0.004384
      dxy     :     0.003926
 32 C s       :     2.949218  s :     2.949218
      pz      :     0.744877  p :     2.355758
      px      :     0.823722
      py      :     0.787158
      dz2     :     0.023096  d :     0.145883
      dxz     :     0.017467
      dyz     :     0.034483
      dx2y2   :     0.036551
      dxy     :     0.034287
 33 O s       :     3.758903  s :     3.758903
      pz      :     1.587584  p :     4.674954
      px      :     1.660859
      py      :     1.426510
      dz2     :     0.003759  d :     0.028652
      dxz     :     0.002837
      dyz     :     0.006993
      dx2y2   :     0.008304
      dxy     :     0.006759
 34 C s       :     3.412826  s :     3.412826
      pz      :     1.124212  p :     3.287636
      px      :     1.013627
      py      :     1.149796
      dz2     :     0.002673  d :     0.033718
      dxz     :     0.008447
      dyz     :     0.009926
      dx2y2   :     0.006662
      dxy     :     0.006010
 35 H s       :     0.767326  s :     0.767326
 36 H s       :     0.767446  s :     0.767446
 37 H s       :     0.772982  s :     0.772982


                     *******************************
                     * LOEWDIN POPULATION ANALYSIS *
                     *******************************

----------------------
LOEWDIN ATOMIC CHARGES
----------------------
   0 Pd:   -0.333986
   1 O :   -0.137217
   2 C :    0.161397
   3 O :   -0.291979
   4 C :   -0.376698
   5 H :    0.146329
   6 H :    0.160222
   7 H :    0.147462
   8 N :   -0.053253
   9 C :   -0.239881
  10 H :    0.169095
  11 H :    0.113215
  12 H :    0.150209
  13 C :   -0.232028
  14 H :    0.155605
  15 H :    0.125828
  16 H :    0.159278
  17 C :   -0.026519
  18 C :   -0.127445
  19 C :   -0.107730
  20 C :   -0.131246
  21 C :   -0.099562
  22 C :   -0.112841
  23 H :    0.144487
  24 H :    0.147225
  25 H :    0.145059
  26 H :    0.144717
  27 H :    0.310621
  28 C :   -0.102157
  29 H :    0.154999
  30 H :    0.144567
  31 O :   -0.186733
  32 C :    0.118443
  33 O :   -0.277342
  34 C :   -0.385672
  35 H :    0.139981
  36 H :    0.139975
  37 H :    0.143577

-------------------------------
LOEWDIN REDUCED ORBITAL CHARGES
-------------------------------
  0 Pds       :     2.480471  s :     2.480471
      pz      :     2.242531  p :     6.740268
      px      :     2.292469
      py      :     2.205268
      dz2     :     1.930756  d :     9.107770
      dxz     :     1.461121
      dyz     :     1.964399
      dx2y2   :     2.029582
      dxy     :     1.721913
      f0      :     0.000753  f :     0.005477
      f+1     :     0.000858
      f-1     :     0.000213
      f+2     :     0.000760
      f-2     :     0.001468
      f+3     :     0.000485
      f-3     :     0.000940
  1 O s       :     3.448099  s :     3.448099
      pz      :     1.597226  p :     4.630703
      px      :     1.662387
      py      :     1.371090
      dz2     :     0.007132  d :     0.058415
      dxz     :     0.003680
      dyz     :     0.012895
      dx2y2   :     0.019215
      dxy     :     0.015493
  2 C s       :     2.811011  s :     2.811011
      pz      :     0.744032  p :     2.712920
      px      :     1.002836
      py      :     0.966051
      dz2     :     0.024665  d :     0.314673
      dxz     :     0.036107
      dyz     :     0.047251
      dx2y2   :     0.097246
      dxy     :     0.109405
  3 O s       :     3.527676  s :     3.527676
      pz      :     1.521700  p :     4.714433
      px      :     1.462750
      py      :     1.729984
      dz2     :     0.006420  d :     0.049870
      dxz     :     0.011901
      dyz     :     0.003426
      dx2y2   :     0.013727
      dxy     :     0.014396
  4 C s       :     2.960834  s :     2.960834
      pz      :     1.146490  p :     3.353388
      px      :     1.096501
      py      :     1.110398
      dz2     :     0.011025  d :     0.062476
      dxz     :     0.014032
      dyz     :     0.008496
      dx2y2   :     0.010544
      dxy     :     0.018379
  5 H s       :     0.853671  s :     0.853671
  6 H s       :     0.839778  s :     0.839778
  7 H s       :     0.852538  s :     0.852538
  8 N s       :     3.094243  s :     3.094243
      pz      :     1.224012  p :     3.849989
      px      :     1.388162
      py      :     1.237815
      dz2     :     0.016699  d :     0.109021
      dxz     :     0.024259
      dyz     :     0.030881
      dx2y2   :     0.017956
      dxy     :     0.019227
  9 C s       :     2.942561  s :     2.942561
      pz      :     1.088173  p :     3.199843
      px      :     1.132283
      py      :     0.979386
      dz2     :     0.010163  d :     0.097477
      dxz     :     0.019243
      dyz     :     0.030836
      dx2y2   :     0.017885
      dxy     :     0.019350
 10 H s       :     0.830905  s :     0.830905
 11 H s       :     0.886785  s :     0.886785
 12 H s       :     0.849791  s :     0.849791
 13 C s       :     2.938635  s :     2.938635
      pz      :     1.082917  p :     3.196129
      px      :     1.092851
      py      :     1.020361
      dz2     :     0.009820  d :     0.097264
      dxz     :     0.022217
      dyz     :     0.026535
      dx2y2   :     0.022702
      dxy     :     0.015990
 14 H s       :     0.844395  s :     0.844395
 15 H s       :     0.874172  s :     0.874172
 16 H s       :     0.840722  s :     0.840722
 17 C s       :     2.845012  s :     2.845012
      pz      :     1.034043  p :     3.071174
      px      :     0.958166
      py      :     1.078966
      dz2     :     0.024520  d :     0.110333
      dxz     :     0.015568
      dyz     :     0.032669
      dx2y2   :     0.019682
      dxy     :     0.017894
 18 C s       :     2.885702  s :     2.885702
      pz      :     1.077451  p :     3.151605
      px      :     1.009210
      py      :     1.064943
      dz2     :     0.026777  d :     0.090138
      dxz     :     0.012994
      dyz     :     0.031011
      dx2y2   :     0.010938
      dxy     :     0.008416
 19 C s       :     2.892919  s :     2.892919
      pz      :     1.084334  p :     3.121722
      px      :     0.947490
      py      :     1.089898
      dz2     :     0.023715  d :     0.093089
      dxz     :     0.012042
      dyz     :     0.035550
      dx2y2   :     0.013169
      dxy     :     0.008612
 20 C s       :     2.892025  s :     2.892025
      pz      :     1.078654  p :     3.148411
      px      :     0.981703
      py      :     1.088054
      dz2     :     0.027184  d :     0.090810
      dxz     :     0.004022
      dyz     :     0.029872
      dx2y2   :     0.016342
      dxy     :     0.013390
 21 C s       :     2.892853  s :     2.892853
      pz      :     1.085018  p :     3.115848
      px      :     0.945565
      py      :     1.085265
      dz2     :     0.026169  d :     0.090861
      dxz     :     0.013348
      dyz     :     0.034843
      dx2y2   :     0.010450
      dxy     :     0.006050
 22 C s       :     2.928129  s :     2.928129
      pz      :     1.055521  p :     3.108042
      px      :     0.977648
      py      :     1.074873
      dz2     :     0.025944  d :     0.076670
      dxz     :     0.011088
      dyz     :     0.020239
      dx2y2   :     0.010328
      dxy     :     0.009071
 23 H s       :     0.855513  s :     0.855513
 24 H s       :     0.852775  s :     0.852775
 25 H s       :     0.854941  s :     0.854941
 26 H s       :     0.855283  s :     0.855283
 27 H s       :     0.689379  s :     0.689379
 28 C s       :     2.890325  s :     2.890325
      pz      :     0.960455  p :     3.097819
      px      :     1.032423
      py      :     1.104942
      dz2     :     0.034694  d :     0.114013
      dxz     :     0.031210
      dyz     :     0.013129
      dx2y2   :     0.013817
      dxy     :     0.021163
 29 H s       :     0.845001  s :     0.845001
 30 H s       :     0.855433  s :     0.855433
 31 O s       :     3.463698  s :     3.463698
      pz      :     1.502208  p :     4.671930
      px      :     1.584573
      py      :     1.585149
      dz2     :     0.008763  d :     0.051105
      dxz     :     0.009415
      dyz     :     0.015591
      dx2y2   :     0.008819
      dxy     :     0.008518
 32 C s       :     2.813255  s :     2.813255
      pz      :     0.836873  p :     2.736899
      px      :     0.949377
      py      :     0.950648
      dz2     :     0.049424  d :     0.331404
      dxz     :     0.036741
      dyz     :     0.083870
      dx2y2   :     0.086324
      dxy     :     0.075044
 33 O s       :     3.507607  s :     3.507607
      pz      :     1.569736  p :     4.714715
      px      :     1.657878
      py      :     1.487100
      dz2     :     0.007328  d :     0.055020
      dxz     :     0.004331
      dyz     :     0.012701
      dx2y2   :     0.014481
      dxy     :     0.016179
 34 C s       :     2.976870  s :     2.976870
      pz      :     1.124707  p :     3.347072
      px      :     1.085433
      py      :     1.136932
      dz2     :     0.004692  d :     0.061730
      dxz     :     0.016167
      dyz     :     0.016605
      dx2y2   :     0.012886
      dxy     :     0.011380
 35 H s       :     0.860019  s :     0.860019
 36 H s       :     0.860025  s :     0.860025
 37 H s       :     0.856423  s :     0.856423


                      *****************************
                      * MAYER POPULATION ANALYSIS *
                      *****************************

  NA   - Mulliken gross atomic population
  ZA   - Total nuclear charge
  QA   - Mulliken gross atomic charge
  VA   - Mayer's total valence
  BVA  - Mayer's bonded valence
  FA   - Mayer's free valence

  ATOM       NA         ZA         QA         VA         BVA        FA
  0 Pd    17.4922    18.0000     0.5078     2.4478     2.4478     0.0000
  1 O      8.4850     8.0000    -0.4850     2.1562     2.1562     0.0000
  2 C      5.4048     6.0000     0.5952     3.9885     3.9885     0.0000
  3 O      8.4911     8.0000    -0.4911     2.1111     2.1111     0.0000
  4 C      6.7438     6.0000    -0.7438     3.6891     3.6891     0.0000
  5 H      0.7580     1.0000     0.2420     0.9030     0.9030     0.0000
  6 H      0.7427     1.0000     0.2573     0.8973     0.8973     0.0000
  7 H      0.7521     1.0000     0.2479     0.9026     0.9026    -0.0000
  8 N      7.4754     7.0000    -0.4754     3.1615     3.1615     0.0000
  9 C      6.5283     6.0000    -0.5283     3.5964     3.5964    -0.0000
 10 H      0.6913     1.0000     0.3087     0.8998     0.8998    -0.0000
 11 H      0.7918     1.0000     0.2082     0.9071     0.9071    -0.0000
 12 H      0.7346     1.0000     0.2654     0.8971     0.8971    -0.0000
 13 C      6.5436     6.0000    -0.5436     3.6083     3.6083     0.0000
 14 H      0.7202     1.0000     0.2798     0.8851     0.8851     0.0000
 15 H      0.7656     1.0000     0.2344     0.9033     0.9033     0.0000
 16 H      0.7149     1.0000     0.2851     0.8882     0.8882     0.0000
 17 C      5.9751     6.0000     0.0249     3.7600     3.7600     0.0000
 18 C      6.2534     6.0000    -0.2534     3.8596     3.8596     0.0000
 19 C      6.2063     6.0000    -0.2063     3.8287     3.8287    -0.0000
 20 C      6.2194     6.0000    -0.2194     3.8151     3.8151    -0.0000
 21 C      6.2014     6.0000    -0.2014     3.8085     3.8085     0.0000
 22 C      6.2734     6.0000    -0.2734     3.6854     3.6854     0.0000
 23 H      0.7633     1.0000     0.2367     0.9052     0.9052     0.0000
 24 H      0.7586     1.0000     0.2414     0.9089     0.9089     0.0000
 25 H      0.7729     1.0000     0.2271     0.9114     0.9114     0.0000
 26 H      0.7640     1.0000     0.2360     0.9057     0.9057    -0.0000
 27 H      0.7002     1.0000     0.2998     0.9096     0.9096    -0.0000
 28 C      6.3221     6.0000    -0.3221     3.6048     3.6048    -0.0000
 29 H      0.7327     1.0000     0.2673     0.8863     0.8863     0.0000
 30 H      0.7449     1.0000     0.2551     0.9017     0.9017     0.0000
 31 O      8.5214     8.0000    -0.5214     2.1016     2.1016    -0.0000
 32 C      5.4509     6.0000     0.5491     4.1115     4.1115    -0.0000
 33 O      8.4625     8.0000    -0.4625     2.1309     2.1309    -0.0000
 34 C      6.7342     6.0000    -0.7342     3.6995     3.6995     0.0000
 35 H      0.7673     1.0000     0.2327     0.9116     0.9116    -0.0000
 36 H      0.7674     1.0000     0.2326     0.9091     0.9091     0.0000
 37 H      0.7730     1.0000     0.2270     0.9118     0.9118     0.0000

  Mayer bond orders larger than 0.100000
B(  0-Pd,  1-O ) :   0.6103 B(  0-Pd,  8-N ) :   0.4395 B(  0-Pd, 22-C ) :   0.2612 
B(  0-Pd, 31-O ) :   0.6374 B(  1-O ,  2-C ) :   1.3566 B(  2-C ,  3-O ) :   1.6949 
B(  2-C ,  4-C ) :   0.9366 B(  3-O , 27-H ) :   0.1531 B(  4-C ,  5-H ) :   0.9136 
B(  4-C ,  6-H ) :   0.9061 B(  4-C ,  7-H ) :   0.9120 B(  8-N ,  9-C ) :   0.9125 
B(  8-N , 13-C ) :   0.9164 B(  8-N , 28-C ) :   0.8740 B(  9-C , 10-H ) :   0.8678 
B(  9-C , 11-H ) :   0.9011 B(  9-C , 12-H ) :   0.9077 B( 13-C , 14-H ) :   0.8913 
B( 13-C , 15-H ) :   0.9011 B( 13-C , 16-H ) :   0.8949 B( 17-C , 18-C ) :   1.4247 
B( 17-C , 22-C ) :   1.3171 B( 17-C , 28-C ) :   0.9410 B( 18-C , 19-C ) :   1.4316 
B( 18-C , 25-H ) :   0.9126 B( 19-C , 20-C ) :   1.4228 B( 19-C , 26-H ) :   0.9109 
B( 20-C , 21-C ) :   1.4359 B( 20-C , 23-H ) :   0.9105 B( 21-C , 22-C ) :   1.3828 
B( 21-C , 24-H ) :   0.9134 B( 22-C , 27-H ) :   0.6070 B( 28-C , 29-H ) :   0.8976 
B( 28-C , 30-H ) :   0.9111 B( 31-O , 32-C ) :   1.2891 B( 31-O , 33-O ) :   0.1048 
B( 32-C , 33-O ) :   1.9039 B( 32-C , 34-C ) :   0.9151 B( 34-C , 35-H ) :   0.9217 
B( 34-C , 36-H ) :   0.9161 B( 34-C , 37-H ) :   0.9190 


------------------
HIRSHFELD ANALYSIS
------------------

Total integrated alpha density =     76.999915811
Total integrated beta density  =     76.999915811

  ATOM     CHARGE      SPIN    
   0 Pd   0.606355    0.000000
   1 O   -0.307515    0.000000
   2 C    0.208988    0.000000
   3 O   -0.358299    0.000000
   4 C   -0.073557    0.000000
   5 H    0.040201    0.000000
   6 H    0.051510    0.000000
   7 H    0.042404    0.000000
   8 N   -0.077032    0.000000
   9 C   -0.026253    0.000000
  10 H    0.043520    0.000000
  11 H    0.028324    0.000000
  12 H    0.042878    0.000000
  13 C   -0.026200    0.000000
  14 H    0.037110    0.000000
  15 H    0.035810    0.000000
  16 H    0.051629    0.000000
  17 C   -0.018916    0.000000
  18 C   -0.045735    0.000000
  19 C   -0.026206    0.000000
  20 C   -0.035854    0.000000
  21 C   -0.036205    0.000000
  22 C   -0.100151    0.000000
  23 H    0.051942    0.000000
  24 H    0.045282    0.000000
  25 H    0.047397    0.000000
  26 H    0.055650    0.000000
  27 H    0.122756    0.000000
  28 C    0.003135    0.000000
  29 H    0.042623    0.000000
  30 H    0.045765    0.000000
  31 O   -0.341567    0.000000
  32 C    0.197156    0.000000
  33 O   -0.347243    0.000000
  34 C   -0.085007    0.000000
  35 H    0.034726    0.000000
  36 H    0.032953    0.000000
  37 H    0.037795    0.000000

  TOTAL   0.000168    0.000000

-------
TIMINGS
-------

Total SCF time: 0 days 0 hours 7 min 0 sec 

Total time                  ....     420.001 sec
Sum of individual times     ....     419.447 sec  ( 99.9%)

Fock matrix formation       ....     412.945 sec  ( 98.3%)
  Split-RI-J                ....      42.543 sec  ( 10.3% of F)
  Chain of spheres X        ....     341.863 sec  ( 82.8% of F)
  XC integration            ....      28.407 sec  (  6.9% of F)
    Basis function eval.    ....      11.982 sec  ( 42.2% of XC)
    Density eval.           ....       6.898 sec  ( 24.3% of XC)
    XC-Functional eval.     ....       2.171 sec  (  7.6% of XC)
    XC-Potential eval.      ....       6.353 sec  ( 22.4% of XC)
Diagonalization             ....       0.420 sec  (  0.1%)
Density matrix formation    ....       0.059 sec  (  0.0%)
Population analysis         ....       0.890 sec  (  0.2%)
Initial guess               ....       0.062 sec  (  0.0%)
Orbital Transformation      ....       0.000 sec  (  0.0%)
Orbital Orthonormalization  ....       0.000 sec  (  0.0%)
DIIS solution               ....       0.171 sec  (  0.0%)
Grid generation             ....       4.900 sec  (  1.2%)

Maximum memory used throughout the entire SCF-calculation: 155.2 MB


-------------------------------------------------------------------------------
                          DFT DISPERSION CORRECTION                            
                                                                               
                              DFTD3 V3.1  Rev 1                                
                          USING Becke-Johnson damping                          
-------------------------------------------------------------------------------
The PBEh-3c composite method is recognized
Using three-body term ABC
Active option DFTDOPT                   ...         4   

molecular C6(AA) [au] = 16785.133835 


            DFT-D V3
 parameters
 s6 scaling factor         :     1.0000 
 a1 scaling factor         :     0.4860 
 s8 scaling factor         :     0.0000 
 a2 scaling factor         :     4.5000 
 Damping factor alpha9(ATM):    16.0000 
 ad hoc parameters k1-k3   :    16.0000     1.3333    -4.0000 

 Edisp/kcal,au: -17.111396576381  -0.027268743275 
 E6   /kcal   : -17.299896333 
 E8   /kcal   :  -0.000000000 
 E6(ABC)      :   0.188499756 
 % E8         :   0.000000000 
 % E6(ABC)    :  -1.101603575 

-------------------------   ----------------
Dispersion correction           -0.027268743
-------------------------   ----------------

 ** NOTE ** -> element pd will be treated as ni
------------------   -----------------
gCP correction             0.084046458
------------------   -----------------

-------------------------   --------------------
FINAL SINGLE POINT ENERGY      -988.404890814361
-------------------------   --------------------

------------------------------------------------------------------------------
                         ORCA SCF GRADIENT CALCULATION
------------------------------------------------------------------------------

 ... reading COSX grid (gridx3)
Gradient of the Kohn-Sham DFT energy:
Kohn-Sham wavefunction type      ... RKS
Hartree-Fock exchange scaling    ...    0.420
Number of operators              ...    1
Number of atoms                  ...   38
Basis set dimensions             ...  339
Integral neglect threshold       ... 2.5e-11
Integral primitive cutoff        ... 2.5e-12
SHARK Integral package           ... ON

Nuc. rep. gradient       (SHARK) ... done (  0.0 sec)
HCore & Overlap gradient (SHARK) ... done (  1.1 sec)
ECP gradient             (SHARK) ... done (  2.0 sec)
RI-J gradient            (SHARK) ... done (  5.8 sec)
COSX-gradient                    ... done ( 52.3 sec)
Exchange-correlation gradient    ... done
Dispersion correction            ... done
gCP correction                   ... done

------------------
CARTESIAN GRADIENT
------------------

   1   Pd  :   -0.008596197   -0.002331350    0.008892228
   2   O   :    0.001126452    0.004605616   -0.001263075
   3   C   :    0.016522964   -0.004444225    0.002239247
   4   O   :   -0.009930231    0.011234164   -0.014724872
   5   C   :    0.005606110    0.000464460    0.000788961
   6   H   :    0.000379039   -0.001835907   -0.002564649
   7   H   :   -0.001145330    0.002311431    0.001672726
   8   H   :    0.002227286    0.000982362    0.001575682
   9   N   :   -0.005836878   -0.008687387   -0.005849770
  10   C   :   -0.003666813    0.000364616   -0.003952656
  11   H   :   -0.000711490    0.001929062    0.001590566
  12   H   :    0.002886017    0.002966974    0.004232814
  13   H   :   -0.003132767    0.006272839    0.001311232
  14   C   :    0.000643069   -0.002711872    0.000445742
  15   H   :    0.002258531   -0.002813285   -0.001036470
  16   H   :    0.002459897   -0.001691641    0.004462756
  17   H   :   -0.000207803    0.000471424    0.002300848
  18   C   :    0.000832615   -0.006185576    0.004896132
  19   C   :    0.002310164   -0.002638562    0.001295784
  20   C   :    0.010728665    0.001307811   -0.003662002
  21   C   :   -0.000173460   -0.002964397    0.001394545
  22   C   :   -0.009096751   -0.013478768   -0.002129101
  23   C   :   -0.011575097   -0.012084290   -0.001195777
  24   H   :   -0.003355787   -0.006350178    0.005353115
  25   H   :   -0.003399572   -0.005739978    0.002232309
  26   H   :   -0.002440397   -0.006556807    0.003995316
  27   H   :   -0.003578095   -0.004084727    0.008028932
  28   H   :    0.007168167    0.062327900   -0.015427350
  29   C   :   -0.001563601   -0.005801892    0.001975711
  30   H   :    0.002194048    0.000818907    0.006149911
  31   H   :   -0.001869594   -0.003531088   -0.003696153
  32   O   :    0.007551287    0.010429727    0.004091453
  33   C   :   -0.010282566   -0.009724760    0.001057192
  34   O   :    0.015785138    0.006849731   -0.007248842
  35   C   :   -0.001660354   -0.002682994    0.001571042
  36   H   :    0.002182326   -0.009195014   -0.005185887
  37   H   :    0.000790557   -0.000064693    0.006096314
  38   H   :   -0.002114506    0.003430705   -0.008677710

Difference to translation invariance:
           :   -0.0006849580    0.0011683358    0.0010362447

Difference to rotation invariance:
           :    0.0018786425    0.0012167496    0.0047855146

Norm of the cartesian gradient     ...    0.0873999163
RMS gradient                       ...    0.0081857522
MAX gradient                       ...    0.0623278995

-------
TIMINGS
-------

Total SCF gradient time            ...       69.932 sec

One electron gradient       ....       3.157 sec  (  4.5%)
RI-J Coulomb gradient       ....       5.834 sec  (  8.3%)
COSX gradient               ....      52.308 sec  ( 74.8%)
XC gradient                 ....       7.378 sec  ( 10.6%)

Maximum memory used throughout the entire SCFGRAD-calculation: 123.1 MB

                            ***************************************
                            *     ORCA property calculations      *
                            ***************************************

                                    ---------------------
                                    Active property flags
                                    ---------------------
   (+) Dipole Moment


------------------------------------------------------------------------------
                       ORCA ELECTRIC PROPERTIES CALCULATION
------------------------------------------------------------------------------

Dipole Moment Calculation                       ... on
Quadrupole Moment Calculation                   ... off
Polarizability Calculation                      ... off
GBWName                                         ... 8_26_orca.gbw
Electron density                                ... 8_26_orca.scfp
The origin for moment calculation is the CENTER OF MASS  = ( 0.302605,  0.169704  0.071027)

-------------
DIPOLE MOMENT
-------------
                                X             Y             Z
Electronic contribution:      9.93897      10.73105      -5.21694
Nuclear contribution   :    -12.02642     -11.25045       6.45047
                        -----------------------------------------
Total Dipole Moment    :     -2.08744      -0.51940       1.23353
                        -----------------------------------------
Magnitude (a.u.)       :      2.47968
Magnitude (Debye)      :      6.30284



--------------------
Rotational spectrum 
--------------------
 
Rotational constants in cm-1:     0.013217     0.009194     0.006835 
Rotational constants in MHz :   396.237788   275.622994   204.909494 

 Dipole components along the rotational axes: 
x,y,z [a.u.] :     2.320386     0.557760    -0.673440 
x,y,z [Debye]:     5.897953     1.417713    -1.711749 

 

Timings for individual modules:

Sum of individual times         ...      490.952 sec (=   8.183 min)
GTO integral calculation        ...        0.942 sec (=   0.016 min)   0.2 %
SCF iterations                  ...      420.038 sec (=   7.001 min)  85.6 %
SCF Gradient evaluation         ...       69.971 sec (=   1.166 min)  14.3 %
                             ****ORCA TERMINATED NORMALLY****
TOTAL RUN TIME: 0 days 0 hours 8 minutes 11 seconds 454 msec
