
                                 *****************
                                 * O   R   C   A *
                                 *****************

                                            #,                                       
                                            ###                                      
                                            ####                                     
                                            #####                                    
                                            ######                                   
                                           ########,                                 
                                     ,,################,,,,,                         
                               ,,#################################,,                 
                          ,,##########################################,,             
                       ,#########################################, ''#####,          
                    ,#############################################,,   '####,        
                  ,##################################################,,,,####,       
                ,###########''''           ''''###############################       
              ,#####''   ,,,,##########,,,,          '''####'''          '####       
            ,##' ,,,,###########################,,,                        '##       
           ' ,,###''''                  '''############,,,                           
         ,,##''                                '''############,,,,        ,,,,,,###''
      ,#''                                            '''#######################'''  
     '                                                          ''''####''''         
             ,#######,   #######,   ,#######,      ##                                
            ,#'     '#,  ##    ##  ,#'     '#,    #''#        ######   ,####,        
            ##       ##  ##   ,#'  ##            #'  '#       #        #'  '#        
            ##       ##  #######   ##           ,######,      #####,   #    #        
            '#,     ,#'  ##    ##  '#,     ,#' ,#      #,         ##   #,  ,#        
             '#######'   ##     ##  '#######'  #'      '#     #####' # '####'        



                  #######################################################
                  #                        -***-                        #
                  #          Department of theory and spectroscopy      #
                  #    Directorship and core code : Frank Neese         #
                  #        Max Planck Institute fuer Kohlenforschung    #
                  #                Kaiser Wilhelm Platz 1               #
                  #                 D-45470 Muelheim/Ruhr               #
                  #                      Germany                        #
                  #                                                     #
                  #                  All rights reserved                #
                  #                        -***-                        #
                  #######################################################


                         Program Version 5.0.3 -  RELEASE  -


 With contributions from (in alphabetic order):
   Daniel Aravena         : Magnetic Suceptibility
   Michael Atanasov       : Ab Initio Ligand Field Theory (pilot matlab implementation)
   Alexander A. Auer      : GIAO ZORA, VPT2 properties, NMR spectrum
   Ute Becker             : Parallelization
   Giovanni Bistoni       : ED, misc. LED, open-shell LED, HFLD
   Martin Brehm           : Molecular dynamics
   Dmytro Bykov           : SCF Hessian
   Vijay G. Chilkuri      : MRCI spin determinant printing, contributions to CSF-ICE
   Dipayan Datta          : RHF DLPNO-CCSD density
   Achintya Kumar Dutta   : EOM-CC, STEOM-CC
   Dmitry Ganyushin       : Spin-Orbit,Spin-Spin,Magnetic field MRCI
   Miquel Garcia          : C-PCM and meta-GGA Hessian, CC/C-PCM, Gaussian charge scheme
   Yang Guo               : DLPNO-NEVPT2, F12-NEVPT2, CIM, IAO-localization
   Andreas Hansen         : Spin unrestricted coupled pair/coupled cluster methods
   Benjamin Helmich-Paris : MC-RPA, TRAH-SCF, COSX integrals
   Lee Huntington         : MR-EOM, pCC
   Robert Izsak           : Overlap fitted RIJCOSX, COSX-SCS-MP3, EOM
   Marcus Kettner         : VPT2
   Christian Kollmar      : KDIIS, OOCD, Brueckner-CCSD(T), CCSD density, CASPT2, CASPT2-K
   Simone Kossmann        : Meta GGA functionals, TD-DFT gradient, OOMP2, MP2 Hessian
   Martin Krupicka        : Initial AUTO-CI
   Lucas Lang             : DCDCAS
   Marvin Lechner         : AUTO-CI (C++ implementation), FIC-MRCC
   Dagmar Lenk            : GEPOL surface, SMD
   Dimitrios Liakos       : Extrapolation schemes; Compound Job, initial MDCI parallelization
   Dimitrios Manganas     : Further ROCIS development; embedding schemes
   Dimitrios Pantazis     : SARC Basis sets
   Anastasios Papadopoulos: AUTO-CI, single reference methods and gradients
   Taras Petrenko         : DFT Hessian,TD-DFT gradient, ASA, ECA, R-Raman, ABS, FL, XAS/XES, NRVS
   Peter Pinski           : DLPNO-MP2, DLPNO-MP2 Gradient
   Christoph Reimann      : Effective Core Potentials
   Marius Retegan         : Local ZFS, SOC
   Christoph Riplinger    : Optimizer, TS searches, QM/MM, DLPNO-CCSD(T), (RO)-DLPNO pert. Triples
   Tobias Risthaus        : Range-separated hybrids, TD-DFT gradient, RPA, STAB
   Michael Roemelt        : Original ROCIS implementation
   Masaaki Saitow         : Open-shell DLPNO-CCSD energy and density
   Barbara Sandhoefer     : DKH picture change effects
   Avijit Sen             : IP-ROCIS
   Kantharuban Sivalingam : CASSCF convergence, NEVPT2, FIC-MRCI
   Bernardo de Souza      : ESD, SOC TD-DFT
   Georgi Stoychev        : AutoAux, RI-MP2 NMR, DLPNO-MP2 response
   Willem Van den Heuvel  : Paramagnetic NMR
   Boris Wezisla          : Elementary symmetry handling
   Frank Wennmohs         : Technical directorship


 We gratefully acknowledge several colleagues who have allowed us to
 interface, adapt or use parts of their codes:
   Stefan Grimme, W. Hujo, H. Kruse, P. Pracht,  : VdW corrections, initial TS optimization,
                  C. Bannwarth, S. Ehlert          DFT functionals, gCP, sTDA/sTD-DF
   Ed Valeev, F. Pavosevic, A. Kumar             : LibInt (2-el integral package), F12 methods
   Garnet Chan, S. Sharma, J. Yang, R. Olivares  : DMRG
   Ulf Ekstrom                                   : XCFun DFT Library
   Mihaly Kallay                                 : mrcc  (arbitrary order and MRCC methods)
   Jiri Pittner, Ondrej Demel                    : Mk-CCSD
   Frank Weinhold                                : gennbo (NPA and NBO analysis)
   Christopher J. Cramer and Donald G. Truhlar   : smd solvation model
   Lars Goerigk                                  : TD-DFT with DH, B97 family of functionals
   V. Asgeirsson, H. Jonsson                     : NEB implementation
   FAccTs GmbH                                   : IRC, NEB, NEB-TS, DLPNO-Multilevel, CI-OPT
                                                   MM, QMMM, 2- and 3-layer-ONIOM, Crystal-QMMM,
                                                   LR-CPCM, SF, NACMEs, symmetry and pop. for TD-DFT,
                                                   nearIR, NL-DFT gradient (VV10), updates on ESD,
                                                   ML-optimized integration grids
   S Lehtola, MJT Oliveira, MAL Marques          : LibXC Library
   Liviu Ungur et al                             : ANISO software


 Your calculation uses the libint2 library for the computation of 2-el integrals
 For citations please refer to: http://libint.valeyev.net

 Your ORCA version has been built with support for libXC version: 5.1.0
 For citations please refer to: https://tddft.org/programs/libxc/

 This ORCA versions uses:
   CBLAS   interface :  Fast vector & matrix operations
   LAPACKE interface :  Fast linear algebra routines
   SCALAPACK package :  Parallel linear algebra routines
   Shared memory     :  Shared parallel matrices
   BLAS/LAPACK       :  OpenBLAS 0.3.15  USE64BITINT DYNAMIC_ARCH NO_AFFINITY SkylakeX SINGLE_THREADED
        Core in use  :  SkylakeX
   Copyright (c) 2011-2014, The OpenBLAS Project


Your calculation utilizes the geometrical counterpoise correction gCP
Please cite in your paper:
H.Kruse, S. Grimme J.Chem.Phys., 136, (2012), 154101 
   

Your calculation utilizes the atom-pairwise dispersion correction
with the Becke-Johnson damping scheme (D3BJ)
Cite in your paper:
S.Grimme, S.Ehrlich, L.Goerigk, J Comput Chem, (2011), 32, 1456–1465 
S.Grimme, J.Antony, S.Ehrlich and H.Krieg, J.Chem.Phys., 132, (2010), 154104 
   

Your calculation employs the composite approach PBEh-3c.
Please cite in your paper:
S. Grimme, J. G. Brandenburg, C. Bannwarth, A. Hansen J.Chem.Phys., 143, (2015), 054107 
   

================================================================================

cite the ECPs for Pd [Def2-ECP] as follows:
Ce-Yb(ecp-28): M. Dolg, H. Stoll, H.Preuss, J. Chem. Phys., 1989, 90, 1730-1734.
Y-Cd(ecp-28), Hf-Hg(ecp-46): D. Andrae,U. Haeussermann, M. Dolg, H. Stoll, H. Preuss, Theor. Chim. Acta, 1990, 77, 123-141.
In-Sb(ecp-28), Tl-Bi(ecp-46): B. Metz, H. Stoll, M. Dolg, J. Chem. Phys., 2000, 113, 2563-2569.
Te-Xe(ecp-28), Po-Rn(ecp-46): K. A. Peterson, D. Figgen, E. Goll, H. Stoll, M. Dolg, J. Chem. Phys., 2003, 119, 11113-11123.
Rb(ecp-28), Cs(ecp-46): T. Leininger, A. Nicklass, W. Kuechle, H. Stoll, M. Dolg, A. Bergner, Chem. Phys. Lett., 1996, 255, 274-280.
Sr(ecp-28), Ba(ecp-46): M. Kaupp, P. V. Schleyer, H. Stoll and H. Preuss, J. Chem. Phys., 1991, 94, 1360-1366.
La(ecp-46): M. Dolg, H. Stoll, A. Savin, H. Preuss, Theor. Chim. Acta, 1989, 75, 173-194.
Lu(ecp-28): X. Cao, M. Dolg, J. Chem. Phys., 2001, 115, 7348-7355.

ECP parameters for Pd [Def2-ECP] have been obtained from:
TURBOMOLE (7.0.2)

----- Orbital basis set information -----
Your calculation utilizes the basis: def2-mSVP

----- AuxJ basis set information -----
Your calculation utilizes the auxiliary basis: def2/J
   F. Weigend, Phys. Chem. Chem. Phys. 8, 1057 (2006).

================================================================================
                                        WARNINGS
                       Please study these warnings very carefully!
================================================================================


INFO   : the flag for use of the SHARK integral package has been found!

================================================================================
                                       INPUT FILE
================================================================================
NAME = 8_7_orca.inp
|  1> ! EnGrad PBEh-3c
|  2> %output 
|  3> xyzfile=True 
|  4> end 
|  5> %scf 
|  6> maxiter 250 
|  7> end
|  8> %output
|  9> Print[P_Hirshfeld] = 1
| 10> end
| 11> % maxcore
| 12> 4000
| 13> *xyz 0 1
| 14> Pd   0.41986834   0.23904948  -0.14444592 
| 15> O    1.94519158   1.29420244   0.61994105 
| 16> C    1.71653312   2.61768710   0.35330367 
| 17> O    0.69160775   2.97392825  -0.14839443 
| 18> C    2.88158622   3.58004958   0.64895070 
| 19> H    2.46932115   4.49775365   1.08320633 
| 20> H    3.33652586   3.87071555  -0.29903429 
| 21> H    3.64460498   3.18074301   1.29807564 
| 22> N   -1.34513053  -0.87986061  -0.99496127 
| 23> C   -1.03322728  -2.17971449  -1.58972681 
| 24> H   -0.32090967  -2.06951989  -2.37389790 
| 25> H   -1.94476531  -2.58381826  -2.01277288 
| 26> H   -0.63710466  -2.84194131  -0.82588502 
| 27> C   -1.92096757   0.00264055  -2.01605963 
| 28> H   -2.02653781   1.01437426  -1.65715030 
| 29> H   -2.88661055  -0.40213162  -2.30451711 
| 30> H   -1.27506913  -0.00141937  -2.88941624 
| 31> C   -1.75561230  -1.10669734   1.49482875 
| 32> C   -2.02277846  -2.14036125   2.41666676 
| 33> C   -1.65920831  -2.00686695   3.74034619 
| 34> C   -1.03433077  -0.85525565   4.17196883 
| 35> C   -0.84437156   0.21059265   3.28286102 
| 36> C   -1.09107394   0.01210166   1.94145396 
| 37> H   -0.76038492  -0.73591484   5.21679635 
| 38> H   -0.56569552   1.13982243   3.71770483 
| 39> H   -2.66810457  -2.95604367   2.15177715 
| 40> H   -1.99784032  -2.72662589   4.47414954 
| 41> H   -1.26578671   3.73805731   0.99063468 
| 42> C   -2.33764968  -1.08584301   0.13938235 
| 43> H   -3.05477798  -0.26290552   0.13164017 
| 44> H   -2.93606215  -1.97447635  -0.05757588 
| 45> O    1.49889035   0.51373391  -1.92511985 
| 46> C    2.25563760  -0.47163664  -2.35043631 
| 47> O    2.16497025  -1.63700736  -2.06356028 
| 48> C    3.35864257  -0.05982462  -3.38945910 
| 49> H    3.73575887  -0.93293275  -3.91324012 
| 50> H    4.19218742   0.33918512  -2.80614078 
| 51> H    3.07393865   0.68692436  -4.11674936 
| 52> *
| 53> 
| 54>                          ****END OF INPUT****
================================================================================

                     *******************************
                     * Energy+Gradient Calculation *
                     *******************************

---------------------------------
CARTESIAN COORDINATES (ANGSTROEM)
---------------------------------
  Pd     0.419868    0.239049   -0.144446
  O      1.945192    1.294202    0.619941
  C      1.716533    2.617687    0.353304
  O      0.691608    2.973928   -0.148394
  C      2.881586    3.580050    0.648951
  H      2.469321    4.497754    1.083206
  H      3.336526    3.870716   -0.299034
  H      3.644605    3.180743    1.298076
  N     -1.345131   -0.879861   -0.994961
  C     -1.033227   -2.179714   -1.589727
  H     -0.320910   -2.069520   -2.373898
  H     -1.944765   -2.583818   -2.012773
  H     -0.637105   -2.841941   -0.825885
  C     -1.920968    0.002641   -2.016060
  H     -2.026538    1.014374   -1.657150
  H     -2.886611   -0.402132   -2.304517
  H     -1.275069   -0.001419   -2.889416
  C     -1.755612   -1.106697    1.494829
  C     -2.022778   -2.140361    2.416667
  C     -1.659208   -2.006867    3.740346
  C     -1.034331   -0.855256    4.171969
  C     -0.844372    0.210593    3.282861
  C     -1.091074    0.012102    1.941454
  H     -0.760385   -0.735915    5.216796
  H     -0.565696    1.139822    3.717705
  H     -2.668105   -2.956044    2.151777
  H     -1.997840   -2.726626    4.474150
  H     -1.265787    3.738057    0.990635
  C     -2.337650   -1.085843    0.139382
  H     -3.054778   -0.262906    0.131640
  H     -2.936062   -1.974476   -0.057576
  O      1.498890    0.513734   -1.925120
  C      2.255638   -0.471637   -2.350436
  O      2.164970   -1.637007   -2.063560
  C      3.358643   -0.059825   -3.389459
  H      3.735759   -0.932933   -3.913240
  H      4.192187    0.339185   -2.806141
  H      3.073939    0.686924   -4.116749

----------------------------
CARTESIAN COORDINATES (A.U.)
----------------------------
  NO LB      ZA    FRAG     MASS         X           Y           Z
   0 Pd   18.0000*   0   106.400    0.793436    0.451738   -0.272963
   1 O     8.0000    0    15.999    3.675879    2.445688    1.171519
   2 C     6.0000    0    12.011    3.243777    4.946712    0.667647
   3 O     8.0000    0    15.999    1.306949    5.619910   -0.280425
   4 C     6.0000    0    12.011    5.445409    6.765313    1.226339
   5 H     1.0000    0     1.008    4.666341    8.499523    2.046963
   6 H     1.0000    0     1.008    6.305120    7.314592   -0.565093
   7 H     1.0000    0     1.008    6.887305    6.010733    2.453007
   8 N     7.0000    0    14.007   -2.541928   -1.662696   -1.880204
   9 C     6.0000    0    12.011   -1.952517   -4.119063   -3.004148
  10 H     1.0000    0     1.008   -0.606431   -3.910826   -4.486017
  11 H     1.0000    0     1.008   -3.675074   -4.882709   -3.803590
  12 H     1.0000    0     1.008   -1.203953   -5.370491   -1.560697
  13 C     6.0000    0    12.011   -3.630103    0.004990   -3.809801
  14 H     1.0000    0     1.008   -3.829601    1.916890   -3.131560
  15 H     1.0000    0     1.008   -5.454903   -0.759919   -4.354906
  16 H     1.0000    0     1.008   -2.409531   -0.002682   -5.460205
  17 C     6.0000    0    12.011   -3.317626   -2.091355    2.824817
  18 C     6.0000    0    12.011   -3.822497   -4.044697    4.566838
  19 C     6.0000    0    12.011   -3.135449   -3.792429    7.068230
  20 C     6.0000    0    12.011   -1.954602   -1.616199    7.883879
  21 C     6.0000    0    12.011   -1.595631    0.397962    6.203708
  22 C     6.0000    0    12.011   -2.061831    0.022869    3.668816
  23 H     1.0000    0     1.008   -1.436919   -1.390678    9.858316
  24 H     1.0000    0     1.008   -1.069010    2.153952    7.025444
  25 H     1.0000    0     1.008   -5.041987   -5.586113    4.066270
  26 H     1.0000    0     1.008   -3.775371   -5.152576    8.454917
  27 H     1.0000    0     1.008   -2.391990    7.063905    1.872028
  28 C     6.0000    0    12.011   -4.417518   -2.051946    0.263394
  29 H     1.0000    0     1.008   -5.772694   -0.496819    0.248764
  30 H     1.0000    0     1.008   -5.548353   -3.731220   -0.108803
  31 O     8.0000    0    15.999    2.832492    0.970816   -3.637949
  32 C     6.0000    0    12.011    4.262537   -0.891264   -4.441681
  33 O     8.0000    0    15.999    4.091201   -3.093496   -3.899564
  34 C     6.0000    0    12.011    6.346915   -0.113052   -6.405149
  35 H     1.0000    0     1.008    7.059561   -1.762987   -7.394952
  36 H     1.0000    0     1.008    7.922086    0.640967   -5.302838
  37 H     1.0000    0     1.008    5.808902    1.298099   -7.779529
* core charge reduced due to ECP

--------------------------------
INTERNAL COORDINATES (ANGSTROEM)
--------------------------------
 Pd     0   0   0     0.000000000000     0.00000000     0.00000000
 O      1   0   0     2.006052390987     0.00000000     0.00000000
 C      2   1   0     1.369303410132   107.89146015     0.00000000
 O      3   2   1     1.195441656697   120.85847768     5.86253760
 C      3   2   1     1.539771877610   116.12626576   189.79916065
 H      5   3   2     1.095774246925   108.35216633   219.61288704
 H      5   3   2     1.090931860120   108.37350999   104.84435498
 H      5   3   2     1.078427815242   114.80295040   342.65884592
 N      1   2   3     2.256226309835   177.85539733   332.92357581
 C      9   1   2     1.463095962090   115.28132823   170.14718928
 H     10   9   1     1.065111978046   110.48373873   301.80241214
 H     10   9   1     1.083129454131   108.10918732   183.46400340
 H     10   9   1     1.085777035746   109.49077996    62.72571491
 C      9   1   2     1.467323568553   105.72729989    48.94807332
 H     14   9   1     1.078687203357   111.77547674   313.43413213
 H     14   9   1     1.086054599087   108.03542859   191.59863169
 H     14   9   1     1.086256436563   108.89921141    74.19635834
 C      9   1   2     2.533575443769    78.50364094   277.84503439
 C     18   9   1     1.410540376085   137.60706882   231.37390728
 C     19  18   9     1.379177731661   120.42271690   152.95769520
 C     20  19  18     1.379484914613   120.03383872     0.23332522
 C     21  20  19     1.400938898696   119.86651227     3.94386172
 C     18   9   1     1.375789414307    99.66897839    25.75616901
 H     21  20  19     1.086716662343   120.44379711   178.94256032
 H     22  21  20     1.063116860182   116.16442335   166.49648688
 H     19  18   9     1.073289385036   120.63159688   321.39854536
 H     20  19  18     1.082216210550   120.25902250   170.49918814
 H      4   3   2     2.390119998201   126.68461651    93.87650791
 C     18   9   1     1.475275349916    32.83428276   154.73326571
 H     29  18   9     1.091585568089   106.04323373   239.53733253
 H     29  18   9     1.089293000793   111.79777835   126.06318379
 O      1   2   3     2.100128491100    82.16153344    79.99255075
 C     32   1   2     1.313208137477   118.19953836    99.51779506
 O     33  32   1     1.203581048363   127.29545149    21.17356411
 C     33  32   1     1.570279421568   114.97974777   198.70425164
 H     35  33  32     1.085762896451   110.62701184   197.06094990
 H     35  33  32     1.092824803902   106.16106647    81.75547998
 H     35  33  32     1.080574608014   116.20047396   321.76366899

---------------------------
INTERNAL COORDINATES (A.U.)
---------------------------
 Pd     0   0   0     0.000000000000     0.00000000     0.00000000
 O      1   0   0     3.790889629264     0.00000000     0.00000000
 C      2   1   0     2.587608439393   107.89146015     0.00000000
 O      3   2   1     2.259057340239   120.85847768     5.86253760
 C      3   2   1     2.909747157397   116.12626576   189.79916065
 H      5   3   2     2.070713231291   108.35216633   219.61288704
 H      5   3   2     2.061562446396   108.37350999   104.84435498
 H      5   3   2     2.037933226010   114.80295040   342.65884592
 N      1   2   3     4.263649821736   177.85539733   332.92357581
 C      9   1   2     2.764850675996   115.28132823   170.14718928
 H     10   9   1     2.012769940466   110.48373873   301.80241214
 H     10   9   1     2.046818035892   108.10918732   183.46400340
 H     10   9   1     2.051821240061   109.49077996    62.72571491
 C      9   1   2     2.772839694414   105.72729989    48.94807332
 H     14   9   1     2.038423398509   111.77547674   313.43413213
 H     14   9   1     2.052345758760   108.03542859   191.59863169
 H     14   9   1     2.052727176314   108.89921141    74.19635834
 C      9   1   2     4.787763728352    78.50364094   277.84503439
 C     18   9   1     2.665535011639   137.60706882   231.37390728
 C     19  18   9     2.606268202841   120.42271690   152.95769520
 C     20  19  18     2.606848694494   120.03383872     0.23332522
 C     21  20  19     2.647390848893   119.86651227     3.94386172
 C     18   9   1     2.599865210989    99.66897839    25.75616901
 H     21  20  19     2.053596876996   120.44379711   178.94256032
 H     22  21  20     2.008999714099   116.16442335   166.49648688
 H     19  18   9     2.028223000163   120.63159688   321.39854536
 H     20  19  18     2.045092255630   120.25902250   170.49918814
 H      4   3   2     4.516672223809   126.68461651    93.87650791
 C     18   9   1     2.787866383466    32.83428276   154.73326571
 H     29  18   9     2.062797775429   106.04323373   239.53733253
 H     29  18   9     2.058465451095   111.79777835   126.06318379
 O      1   2   3     3.968667694225    82.16153344    79.99255075
 C     32   1   2     2.481603736669   118.19953836    99.51779506
 O     33  32   1     2.274438561383   127.29545149    21.17356411
 C     33  32   1     2.967398060496   114.97974777   198.70425164
 H     35  33  32     2.051794520666   110.62701184   197.06094990
 H     35  33  32     2.065139591731   106.16106647    81.75547998
 H     35  33  32     2.041990076416   116.20047396   321.76366899

---------------------
BASIS SET INFORMATION
---------------------
There are 5 groups of distinct atoms

 Group   1 Type Pd  : 7s6p5d1f contracted to 5s3p2d1f pattern {31111/411/41/1}
 Group   2 Type O   : 8s4p1d contracted to 4s2p1d pattern {5111/31/1}
 Group   3 Type C   : 8s4p1d contracted to 4s2p1d pattern {5111/31/1}
 Group   4 Type H   : 4s contracted to 2s pattern {31}
 Group   5 Type N   : 8s4p1d contracted to 4s2p1d pattern {5111/31/1}

Atom   0Pd   basis set group =>   1
Atom   1O    basis set group =>   2
Atom   2C    basis set group =>   3
Atom   3O    basis set group =>   2
Atom   4C    basis set group =>   3
Atom   5H    basis set group =>   4
Atom   6H    basis set group =>   4
Atom   7H    basis set group =>   4
Atom   8N    basis set group =>   5
Atom   9C    basis set group =>   3
Atom  10H    basis set group =>   4
Atom  11H    basis set group =>   4
Atom  12H    basis set group =>   4
Atom  13C    basis set group =>   3
Atom  14H    basis set group =>   4
Atom  15H    basis set group =>   4
Atom  16H    basis set group =>   4
Atom  17C    basis set group =>   3
Atom  18C    basis set group =>   3
Atom  19C    basis set group =>   3
Atom  20C    basis set group =>   3
Atom  21C    basis set group =>   3
Atom  22C    basis set group =>   3
Atom  23H    basis set group =>   4
Atom  24H    basis set group =>   4
Atom  25H    basis set group =>   4
Atom  26H    basis set group =>   4
Atom  27H    basis set group =>   4
Atom  28C    basis set group =>   3
Atom  29H    basis set group =>   4
Atom  30H    basis set group =>   4
Atom  31O    basis set group =>   2
Atom  32C    basis set group =>   3
Atom  33O    basis set group =>   2
Atom  34C    basis set group =>   3
Atom  35H    basis set group =>   4
Atom  36H    basis set group =>   4
Atom  37H    basis set group =>   4
---------------------------------
AUXILIARY/J BASIS SET INFORMATION
---------------------------------
There are 5 groups of distinct atoms

 Group   1 Type Pd  : 11s5p5d3f3g contracted to 8s5p5d2f3g pattern {41111111/11111/11111/21/111}
 Group   2 Type O   : 12s5p4d2f1g contracted to 6s4p3d1f1g pattern {711111/2111/211/2/1}
 Group   3 Type C   : 12s5p4d2f1g contracted to 6s4p3d1f1g pattern {711111/2111/211/2/1}
 Group   4 Type H   : 5s2p1d contracted to 3s1p1d pattern {311/2/1}
 Group   5 Type N   : 12s5p4d2f1g contracted to 6s4p3d1f1g pattern {711111/2111/211/2/1}

Atom   0Pd   basis set group =>   1
Atom   1O    basis set group =>   2
Atom   2C    basis set group =>   3
Atom   3O    basis set group =>   2
Atom   4C    basis set group =>   3
Atom   5H    basis set group =>   4
Atom   6H    basis set group =>   4
Atom   7H    basis set group =>   4
Atom   8N    basis set group =>   5
Atom   9C    basis set group =>   3
Atom  10H    basis set group =>   4
Atom  11H    basis set group =>   4
Atom  12H    basis set group =>   4
Atom  13C    basis set group =>   3
Atom  14H    basis set group =>   4
Atom  15H    basis set group =>   4
Atom  16H    basis set group =>   4
Atom  17C    basis set group =>   3
Atom  18C    basis set group =>   3
Atom  19C    basis set group =>   3
Atom  20C    basis set group =>   3
Atom  21C    basis set group =>   3
Atom  22C    basis set group =>   3
Atom  23H    basis set group =>   4
Atom  24H    basis set group =>   4
Atom  25H    basis set group =>   4
Atom  26H    basis set group =>   4
Atom  27H    basis set group =>   4
Atom  28C    basis set group =>   3
Atom  29H    basis set group =>   4
Atom  30H    basis set group =>   4
Atom  31O    basis set group =>   2
Atom  32C    basis set group =>   3
Atom  33O    basis set group =>   2
Atom  34C    basis set group =>   3
Atom  35H    basis set group =>   4
Atom  36H    basis set group =>   4
Atom  37H    basis set group =>   4
-------------------------
ECP PARAMETER INFORMATION
-------------------------

 Group 1, Type Pd ECP Def2-ECP (replacing 28 core electrons, lmax=3)

Atom   0Pd   ECP group =>   1

------------------------------------------------------------------------------
                           ORCA GTO INTEGRAL CALCULATION
                           -- RI-GTO INTEGRALS CHOSEN --
------------------------------------------------------------------------------
------------------------------------------------------------------------------
                   ___                                                        
                  /   \      - P O W E R E D   B Y -                         
                 /     \                                                     
                 |  |  |   _    _      __       _____    __    __             
                 |  |  |  | |  | |    /  \     |  _  \  |  |  /  |          
                  \  \/   | |  | |   /    \    | | | |  |  | /  /          
                 / \  \   | |__| |  /  /\  \   | |_| |  |  |/  /          
                |  |  |   |  __  | /  /__\  \  |    /   |      \           
                |  |  |   | |  | | |   __   |  |    \   |  |\   \          
                \     /   | |  | | |  |  |  |  | |\  \  |  | \   \       
                 \___/    |_|  |_| |__|  |__|  |_| \__\ |__|  \__/        
                                                                              
                      - O R C A' S   B I G   F R I E N D -                    
                                      &                                       
                       - I N T E G R A L  F E E D E R -                       
                                                                              
 v1 FN, 2020, v2 2021                                                         
------------------------------------------------------------------------------


Reading SHARK input file 8_7_orca.SHARKINP.tmp ... ok
----------------------
SHARK INTEGRAL PACKAGE
----------------------

Number of atoms                             ...     38
Number of basis functions                   ...    339
Number of shells                            ...    175
Maximum angular momentum                    ...      3
Integral batch strategy                     ... SHARK/LIBINT Hybrid
RI-J (if used) integral strategy            ... SPLIT-RIJ (Revised 2003 algorithm where possible)
Printlevel                                  ...      1
Contraction scheme used                     ... SEGMENTED contraction
Coulomb Range Separation                    ... NOT USED
Exchange Range Separation                   ... NOT USED
Finite Nucleus Model                        ... NOT USED
Auxiliary Coulomb fitting basis             ... AVAILABLE
   # of basis functions in Aux-J            ...   1180
   # of shells in Aux-J                     ...    388
   Maximum angular momentum in Aux-J        ...      4
Auxiliary J/K fitting basis                 ... NOT available
Auxiliary Correlation fitting basis         ... NOT available
Auxiliary 'external' fitting basis          ... NOT available
Integral threshold                          ...     2.500000e-11
Primitive cut-off                           ...     2.500000e-12
Primitive pair pre-selection threshold      ...     2.500000e-12

Calculating pre-screening integrals         ... done (  0.1 sec) Dimension = 175
Organizing shell pair data                  ... done (  0.1 sec)
Shell pair information
Total number of shell pairs                 ...     15400
Shell pairs after pre-screening             ...     10628
Total number of primitive shell pairs       ...     54591
Primitive shell pairs kept                  ...     23684
          la=0 lb=0:   4053 shell pairs
          la=1 lb=0:   3526 shell pairs
          la=1 lb=1:    713 shell pairs
          la=2 lb=0:   1427 shell pairs
          la=2 lb=1:    633 shell pairs
          la=2 lb=2:    136 shell pairs
          la=3 lb=0:     83 shell pairs
          la=3 lb=1:     38 shell pairs
          la=3 lb=2:     18 shell pairs
          la=3 lb=3:      1 shell pairs

Calculating one electron integrals          ... done (  0.1 sec)
Calculating ECP integrals                   ... done (  0.4 sec)
Calculating RI/J V-Matrix + Cholesky decomp.... done (  0.1 sec)
Calculating Nuclear repulsion               ... done (  0.0 sec) ENN=   1703.364926628880 Eh

SHARK setup successfully completed in   0.9 seconds

Maximum memory used throughout the entire GTOINT-calculation: 74.3 MB
-------------------------------------------------------------------------------
                                 ORCA SCF
-------------------------------------------------------------------------------

------------
SCF SETTINGS
------------
Hamiltonian:
 Density Functional     Method          .... DFT(GTOs)
 Exchange Functional    Exchange        .... PBE
   PBE kappa parameter   XKappa         ....  1.024500
   PBE mue parameter    XMuePBE         ....  0.123457
 Correlation Functional Correlation     .... PBE
   PBE beta parameter  CBetaPBE         ....  0.030000
 LDA part of GGA corr.  LDAOpt          .... PW91-LDA
 Gradients option       PostSCFGGA      .... off
 Hybrid DFT is turned on
   Fraction HF Exchange ScalHFX         ....  0.420000
   Scaling of DF-GGA-X  ScalDFX         ....  0.580000
   Scaling of DF-GGA-C  ScalDFC         ....  1.000000
   Scaling of DF-LDA-C  ScalLDAC        ....  1.000000
   Perturbative correction              ....  0.000000
   Density functional embedding theory  .... OFF
 RI-approximation to the Coulomb term is turned on
   Number of AuxJ basis functions       .... 1180
   RIJ-ON(X) (HFX calculated with O(N)) .... on
   Number of AuxJ basis functions       .... 1180
   RIJ-COSX (HFX calculated with COS-X)).... on


General Settings:
 Integral files         IntName         .... 8_7_orca
 Hartree-Fock type      HFTyp           .... RHF
 Total Charge           Charge          ....    0
 Multiplicity           Mult            ....    1
 Number of Electrons    NEL             ....  154
 Basis Dimension        Dim             ....  339
 Nuclear Repulsion      ENuc            ....   1703.3649266289 Eh

Convergence Acceleration:
 DIIS                   CNVDIIS         .... on
   Start iteration      DIISMaxIt       ....    12
   Startup error        DIISStart       ....  0.200000
   # of expansion vecs  DIISMaxEq       ....     5
   Bias factor          DIISBfac        ....   1.050
   Max. coefficient     DIISMaxC        ....  10.000
 Trust-Rad. Augm. Hess. CNVTRAH         .... auto
   Auto Start mean grad. ratio tolernc. ....  1.125000
   Auto Start start iteration           ....    20
   Auto Start num. interpolation iter.  ....    10
   Max. Number of Micro iterations      ....    16
   Max. Number of Macro iterations      .... Maxiter - #DIIS iter
   Number of Davidson start vectors     ....     2
   Converg. threshold I  (grad. norm)   ....   1.000e-05
   Converg. threshold II (energy diff.) ....   1.000e-08
   Grad. Scal. Fac. for Micro threshold ....   0.100
   Minimum threshold for Micro iter.    ....   0.010
   NR start threshold (gradient norm)   ....   0.001
   Initial trust radius                 ....   0.400
   Minimum AH scaling param. (alpha)    ....   1.000
   Maximum AH scaling param. (alpha)    .... 1000.000
   Orbital update algorithm             .... Taylor
   White noise on init. David. guess    .... on
   Maximum white noise                  ....   0.010
   Quad. conv. algorithm                .... NR
   COSX micro iterations for RIJONX calc.... off
 SOSCF                  CNVSOSCF        .... off
 Level Shifting         CNVShift        .... on
   Level shift para.    LevelShift      ....    0.2500
   Turn off err/grad.   ShiftErr        ....    0.0010
 Zerner damping         CNVZerner       .... off
 Static damping         CNVDamp         .... on
   Fraction old density DampFac         ....    0.7000
   Max. Damping (<1)    DampMax         ....    0.9800
   Min. Damping (>=0)   DampMin         ....    0.0000
   Turn off err/grad.   DampErr         ....    0.1000
 Fernandez-Rico         CNVRico         .... off

SCF Procedure:
 Maximum # iterations   MaxIter         ....   250
 SCF integral mode      SCFMode         .... Direct
   Integral package                     .... SHARK and LIBINT hybrid scheme
 Reset frequency        DirectResetFreq ....    20
 Integral Threshold     Thresh          ....  2.500e-11 Eh
 Primitive CutOff       TCut            ....  2.500e-12 Eh

Convergence Tolerance:
 Convergence Check Mode ConvCheckMode   .... Total+1el-Energy
 Convergence forced     ConvForced      .... 0
 Energy Change          TolE            ....  1.000e-08 Eh
 1-El. energy change                    ....  1.000e-05 Eh
 DIIS Error             TolErr          ....  5.000e-07


Diagonalization of the overlap matrix:
Smallest eigenvalue                        ... 6.751e-04
Time for diagonalization                   ...    0.017 sec
Threshold for overlap eigenvalues          ... 1.000e-08
Number of eigenvalues below threshold      ... 0
Time for construction of square roots      ...    0.006 sec
Total time needed                          ...    0.024 sec

--------------------------------
INITIAL GUESS: MINIMAL BASIS EHT
--------------------------------
The minimal basis has 122 functions
EHT matrix was diagonalized
Basis set overlap was calculated now projecting the orbitals
Using GuessMode=FMatrix for the initial guess
C*T matrix was formed
Effective Fockian was calculated
Effective Fockian was diagonalized
Initial density was built
                      ------------------
                      INITIAL GUESS DONE
                      ------------------
-------------------
DFT GRID GENERATION
-------------------

General Integration Accuracy     IntAcc      ... 4.159
Radial Grid Type                 RadialGrid  ... OptM3 with GC (2021)
Angular Grid (max. ang.)         AngularGrid ... 3 (Lebedev-194)
Angular grid pruning method      GridPruning ... 4 (adaptive)
Weight generation scheme         WeightScheme... Becke
Basis function cutoff            BFCut       ... 1.0000e-11
Integration weight cutoff        WCut        ... 1.0000e-14
Angular grids for H and He will be reduced by one unit
Partially contracted basis set               ... off
Rotationally invariant grid construction     ... off

Total number of grid points                  ...    90275
Total number of batches                      ...     1428
Average number of points per batch           ...       63
Average number of grid points per atom       ...     2376
Time for grid setup =    1.569 sec

--------------------
COSX GRID GENERATION
--------------------

GRIDX 1
-------
General Integration Accuracy     IntAcc      ... 3.816
Radial Grid Type                 RadialGrid  ... OptM3 with GC (2021)
Angular Grid (max. ang.)         AngularGrid ... 1 (Lebedev-50)
Angular grid pruning method      GridPruning ... 4 (adaptive)
Weight generation scheme         WeightScheme... Becke
Basis function cutoff            BFCut       ... 1.0000e-11
Integration weight cutoff        WCut        ... 1.0000e-14
Angular grids for H and He will be reduced by one unit
Partially contracted basis set               ... on
Rotationally invariant grid construction     ... off

Total number of grid points                  ...    22530
Total number of batches                      ...      371
Average number of points per batch           ...       60
Average number of grid points per atom       ...      593
UseSFitting                                  ... on

GRIDX 2
-------
General Integration Accuracy     IntAcc      ... 4.020
Radial Grid Type                 RadialGrid  ... OptM3 with GC (2021)
Angular Grid (max. ang.)         AngularGrid ... 2 (Lebedev-110)
Angular grid pruning method      GridPruning ... 4 (adaptive)
Weight generation scheme         WeightScheme... Becke
Basis function cutoff            BFCut       ... 1.0000e-11
Integration weight cutoff        WCut        ... 1.0000e-14
Angular grids for H and He will be reduced by one unit
Partially contracted basis set               ... on
Rotationally invariant grid construction     ... off

Total number of grid points                  ...    48388
Total number of batches                      ...      774
Average number of points per batch           ...       62
Average number of grid points per atom       ...     1273
UseSFitting                                  ... on

GRIDX 3
-------
General Integration Accuracy     IntAcc      ... 4.338
Radial Grid Type                 RadialGrid  ... OptM3 with GC (2021)
Angular Grid (max. ang.)         AngularGrid ... 3 (Lebedev-194)
Angular grid pruning method      GridPruning ... 4 (adaptive)
Weight generation scheme         WeightScheme... Becke
Basis function cutoff            BFCut       ... 1.0000e-11
Integration weight cutoff        WCut        ... 1.0000e-14
Angular grids for H and He will be reduced by one unit
Partially contracted basis set               ... on
Rotationally invariant grid construction     ... off

Total number of grid points                  ...   104846
Total number of batches                      ...     1659
Average number of points per batch           ...       63
Average number of grid points per atom       ...     2759
UseSFitting                                  ... on

Time for X-Grid setup             =    4.224 sec

--------------
SCF ITERATIONS
--------------
ITER       Energy         Delta-E        Max-DP      RMS-DP      [F,P]     Damp
               ***  Starting incremental Fock matrix formation  ***
  0   -968.3144542857   0.000000000000 5.23264599  0.03198846  5.0436574 0.7000
  1   -961.5745513455   6.739902940243 4.01899892  0.04421855  3.9040766 0.7000
  2   -960.5462056322   1.028345713234 2.19075303  0.02330297  2.5984928 0.7000
  3   -963.3403622672  -2.794156634936 3.97983799  0.03536817  1.9174004 0.7000
  4   -960.4111819388   2.929180328381 2.13023542  0.02809320  1.2360837 0.7000
  5   -961.8514625613  -1.440280622549 2.24626014  0.02529262  0.9646130 0.7000
  6   -960.9414827072   0.909979854110 2.17114500  0.02574182  0.6795287 0.7000
  7   -959.9106490451   1.030833662170 2.46415305  0.03300956  0.5193070 0.7000
  8   -953.9124980401   5.998151004913 2.12495531  0.02758902  0.2774424 0.7000
  9   -958.2077750440  -4.295277003841 3.11560274  0.03048174  0.2877936 0.7000
 10   -958.8990789371  -0.691303893106 2.42988871  0.02636889  0.2224119 0.7000
 11   -958.8275188027   0.071560134355 2.28390264  0.02930703  0.2703281 0.7000
                               ***Turning on DIIS***
 12   -953.5625910638   5.264927738916 2.26082424  0.02761764  0.2986854 0.7000
 13   -957.8764106622  -4.313819598414 1.50925059  0.01957889  0.2889233 0.7000
 14   -965.0725108798  -7.196100217559 1.06558542  0.01403042  0.2691674 0.7000
 15   -970.6818856643  -5.609374784538 0.74514694  0.01002313  0.2800820 0.7000
 16   -975.0060092538  -4.324123589457 0.55878477  0.00711973  0.3090000 0.7000
 17   -978.2557600003  -3.249750746551 4.32678160  0.03900601  0.3230694 0.7000
 18   -972.4717472999   5.784012700484 1.55807195  0.01470148  0.2250678 0.7000
 19   -975.1720475632  -2.700300263346 1.17103508  0.01083406  0.3151920 0.7000
               *** Restarting incremental Fock matrix formation ***
                                   *** Resetting DIIS ***

 WARNING: the maximum gradient error descreased on average only by a factor   1.0
          during the last 20 iterations

                      *** Initiating the TRAH-SCF procedure ***


TRAH GRIDX
----------

General Integration Accuracy     IntAcc      ... 3.067
Radial Grid Type                 RadialGrid  ... OptM3 with GC (2021)
Angular Grid (max. ang.)         AngularGrid ... 1 (Lebedev-50)
Angular grid pruning method      GridPruning ... 4 (adaptive)
Weight generation scheme         WeightScheme... Becke
Basis function cutoff            BFCut       ... 1.0000e-11
Integration weight cutoff        WCut        ... 1.0000e-14
Angular grids for H and He will be reduced by one unit
Partially contracted basis set               ... on
Rotationally invariant grid construction     ... off

Total number of grid points                  ...    12016
Total number of batches                      ...      211
Average number of points per batch           ...       56
Average number of grid points per atom       ...      316


TRAH GRID
---------

General Integration Accuracy     IntAcc      ... 3.467
Radial Grid Type                 RadialGrid  ... OptM3 with GC (2021)
Angular Grid (max. ang.)         AngularGrid ... 1 (Lebedev-50)
Angular grid pruning method      GridPruning ... 4 (adaptive)
Weight generation scheme         WeightScheme... Becke
Basis function cutoff            BFCut       ... 1.0000e-11
Integration weight cutoff        WCut        ... 1.0000e-14
Angular grids for H and He will be reduced by one unit
Partially contracted basis set               ... off
Rotationally invariant grid construction     ... off

Total number of grid points                  ...    28358
Total number of batches                      ...      462
Average number of points per batch           ...       61
Average number of grid points per atom       ...      746

 --------------------------------------------------------------------------------------------
   Iter.        energy            ||Error||_2        Shift      TRadius  Mac/Mic        Rej.
 --------------------------------------------------------------------------------------------
WARNING: 291 diagonal Hessian elements are negative!
    0       -985.704981683007     5.095099e+00                     0.400 (TRAH MAcro)   No
WARNING : negative HOMO - LUMO gap : -1.288573
    0     dE    -1.309962e+00     4.689843e+00    -3.6620e+00      0.400 (TRAH MIcro)
    0     dE    -1.517264e+00     2.018998e+00    -7.8458e+00      0.400 (TRAH MIcro)
    0     dE    -1.538411e+00     1.267095e+00    -8.2434e+00      0.400 (TRAH MIcro)
    0     dE    -1.549555e+00     4.349554e-01    -8.2190e+00      0.400 (TRAH MIcro)
    0     dE    -1.551862e+00     1.497356e-01    -8.1274e+00      0.400 (TRAH MIcro)
    0     dE    -1.552204e+00     6.955070e-02    -8.1044e+00      0.400 (TRAH MIcro)
    0     dE    -1.552281e+00     3.314215e-02    -8.0992e+00      0.400 (TRAH MIcro)
    0     dE    -1.552306e+00     1.298655e-02    -8.1000e+00      0.400 (TRAH MIcro)
    0     dE    -1.552310e+00     6.062758e-03    -8.1007e+00      0.400 (TRAH MIcro)
WARNING: 78 diagonal Hessian elements are negative!
    1       -987.180721217345     2.721657e+00                     0.480 (TRAH MAcro)   No
WARNING : negative HOMO - LUMO gap : -0.553453
    1     dE    -5.817978e-01     1.641011e+00    -1.0201e+00      0.375 (TRAH MIcro)
    1     dE    -8.754795e-01     5.576623e-01    -2.9593e+00      0.480 (TRAH MIcro)
    1     dE    -8.949662e-01     1.896612e-01    -3.2780e+00      0.480 (TRAH MIcro)
    1     dE    -8.129626e-01     1.281720e-01    -3.7077e+00      0.427 (TRAH MIcro)
    1     dE    -8.052007e-01     3.568831e-02    -3.7115e+00      0.422 (TRAH MIcro)
    1     dE    -8.037732e-01     1.182481e-02    -3.7119e+00      0.421 (TRAH MIcro)
    1     dE    -8.037706e-01     3.763784e-03    -3.7119e+00      0.421 (TRAH MIcro)
WARNING: 5 diagonal Hessian elements are negative!
    2       -987.915891717230     1.159237e+00                     0.576 (TRAH MAcro)   No
WARNING : negative HOMO - LUMO gap : -0.080753
    2     dE    -1.874629e-01     8.049108e-01    -3.4450e-01      0.297 (TRAH MIcro)
    2     dE    -3.387144e-01     4.494092e-01    -5.1165e-01      0.569 (TRAH MIcro)
    2     dE    -3.546917e-01     1.719338e-01    -6.3521e-01      0.576 (TRAH MIcro)
    2     dE    -3.565882e-01     9.082310e-02    -6.6922e-01      0.576 (TRAH MIcro)
    2     dE    -3.572815e-01     5.305694e-02    -6.8339e-01      0.576 (TRAH MIcro)
    2     dE    -3.576391e-01     3.953777e-02    -6.8493e-01      0.576 (TRAH MIcro)
    2     dE    -3.577765e-01     2.465011e-02    -6.8547e-01      0.576 (TRAH MIcro)
    2     dE    -3.578380e-01     1.680773e-02    -6.8797e-01      0.576 (TRAH MIcro)
    2     dE    -3.578619e-01     9.603474e-03    -6.8916e-01      0.576 (TRAH MIcro)
    3       -988.235514659080     3.516539e-01                     0.691 (TRAH MAcro)   No
    3     dE    -1.501469e-02     5.639098e-01    -2.9815e-02      0.085 (TRAH MIcro)
    3     dE    -3.568209e-02     2.973020e-01    -6.7629e-02      0.235 (TRAH MIcro)
    3     dE    -4.287491e-02     1.145942e-01    -7.8844e-02      0.296 (TRAH MIcro)
    3     dE    -4.532532e-02     1.160425e-01    -8.1797e-02      0.329 (TRAH MIcro)
    3     dE    -4.712650e-02     7.689174e-02    -8.3258e-02      0.363 (TRAH MIcro)
    3     dE    -4.814233e-02     3.467054e-02    -8.3952e-02      0.383 (TRAH MIcro)
    3     dE    -4.847597e-02     1.741537e-02    -8.4122e-02      0.391 (TRAH MIcro)
    3     dE    -4.859086e-02     7.380891e-03    -8.4164e-02      0.393 (TRAH MIcro)
    4       -988.281015568608     1.466912e-01                     0.829 (TRAH MAcro)   No
    4     dE    -1.842382e-03     1.687260e-01    -3.6824e-03      0.025 (TRAH MIcro)
    4     dE    -3.687438e-03     6.836386e-02    -7.3427e-03      0.066 (TRAH MIcro)
    4     dE    -4.517481e-03     4.813628e-02    -8.9703e-03      0.085 (TRAH MIcro)
    4     dE    -4.774159e-03     1.656127e-02    -9.4667e-03      0.093 (TRAH MIcro)
    4     dE    -4.804024e-03     7.437963e-03    -9.5218e-03      0.095 (TRAH MIcro)
    5       -988.285818811166     1.169692e-02                     0.995 (TRAH MAcro)   No
    5     dE    -9.757340e-06     2.401312e-02    -1.9515e-05      0.002 (TRAH MIcro)
    5     dE    -6.691052e-05     1.176864e-02    -1.3378e-04      0.017 (TRAH MIcro)
    5     dE    -7.275640e-05     8.001554e-03    -1.4546e-04      0.019 (TRAH MIcro)
    5     dE    -7.527394e-05     4.411986e-03    -1.5048e-04      0.020 (TRAH MIcro)
    5     dE    -7.687054e-05     2.416318e-03    -1.5367e-04      0.022 (TRAH MIcro)
    5     dE    -7.726381e-05     1.040475e-03    -1.5445e-04      0.022 (TRAH MIcro)
    6       -988.285895998450     1.276767e-03                     1.194 (TRAH MAcro)   No
    6     dE    -1.928412e-08     1.893310e-03    -3.8605e-08      0.000 (TRAH MIcro)
    6     dE    -1.247707e-07     8.004747e-04    -2.4954e-07      0.000 (TRAH MIcro)
    6     dE    -1.658943e-07     4.724394e-04    -3.3179e-07      0.000 (TRAH MIcro)
    6     dE    -2.054799e-07     3.837930e-04    -4.1096e-07      0.001 (TRAH MIcro)
    6     dE    -2.186553e-07     2.248460e-04    -4.3731e-07      0.001 (TRAH MIcro)
    6     dE    -2.231554e-07     1.064933e-04    -4.4631e-07      0.001 (TRAH MIcro)
    7       -988.285896211136     1.065166e-04                           (NR   MAcro)
    7     dE    -8.180961e-10     4.587603e-05                           (NR   MIcro)
    7     dE    -1.229230e-09     3.745924e-05                           (NR   MIcro)
    7     dE    -1.379763e-09     1.722932e-05                           (NR   MIcro)
    7     dE    -1.411481e-09     8.929763e-06                           (NR   MIcro)
    7     dE    -1.423178e-09     8.612795e-06                           (NR   MIcro)
    7     dE    -1.433528e-09     6.007981e-06                           (NR   MIcro)
    7     dE    -1.436433e-09     2.797898e-06                           (NR   MIcro)
    7     dE    -1.437108e-09     1.329505e-06                           (NR   MIcro)
    7     dE    -1.437294e-09     5.594182e-07                           (NR   MIcro)
    8       -988.285896212658     5.793430e-07                           (NR   MAcro)

               *****************************************************
               *                     SUCCESS                       *
               *           SCF CONVERGED AFTER  88 CYCLES          *
               *****************************************************

Old exchange energy                            =    -52.536525787 Eh
New exchange energy                            =    -52.536480085 Eh
Exchange energy change after final integration =      0.000045701 Eh
Total energy after final integration           =   -988.285850511 Eh
Final COS-X integration done in                =    46.767 sec

----------------
TOTAL SCF ENERGY
----------------

Total Energy       :         -988.28585051 Eh          -26892.62519 eV

Components:
Nuclear Repulsion  :         1703.36492663 Eh           46350.91609 eV
Electronic Energy  :        -2691.65077714 Eh          -73243.54128 eV
One Electron Energy:        -4788.30441290 Eh         -130296.38722 eV
Two Electron Energy:         2096.65363576 Eh           57052.84594 eV
Max COSX asymmetry :            0.00003030 Eh               0.00082 eV

Virial components:
Potential Energy   :        -1889.85670258 Eh          -51425.61530 eV
Kinetic Energy     :          901.57085207 Eh           24532.99012 eV
Virial Ratio       :            2.09618212


DFT components:
N(Alpha)           :       76.999635432474 electrons
N(Beta)            :       76.999635432474 electrons
N(Total)           :      153.999270864948 electrons
E(X)               :      -70.133983666145 Eh       
E(C)               :       -6.888827609815 Eh       
E(XC)              :      -77.022811275959 Eh       
DFET-embed. en.    :        0.000000000000 Eh       

---------------
SCF CONVERGENCE
---------------

  Last Energy change         ...   -1.5223e-09  Tolerance :   1.0000e-08
  Last Orbital Gradient      ...    5.7934e-07  Tolerance :   1.0000e-05
  Last Orbital Rotation      ...    7.8555e-05

             **** THE GBW FILE WAS UPDATED (8_7_orca.gbw) ****
             **** DENSITY 8_7_orca.scfp WAS UPDATED ****
             **** ENERGY FILE WAS UPDATED (8_7_orca.en.tmp) ****
             **** THE GBW FILE WAS UPDATED (8_7_orca.gbw) ****
             **** DENSITY 8_7_orca.scfp WAS UPDATED ****
----------------
ORBITAL ENERGIES
----------------

  NO   OCC          E(Eh)            E(eV) 
   0   2.0000     -19.495277      -530.4935 
   1   2.0000     -19.476684      -529.9875 
   2   2.0000     -19.463795      -529.6368 
   3   2.0000     -19.426412      -528.6195 
   4   2.0000     -14.715192      -400.4207 
   5   2.0000     -10.558110      -287.3008 
   6   2.0000     -10.525775      -286.4209 
   7   2.0000     -10.503834      -285.8239 
   8   2.0000     -10.499508      -285.7061 
   9   2.0000     -10.489067      -285.4220 
  10   2.0000     -10.477623      -285.1106 
  11   2.0000     -10.474794      -285.0336 
  12   2.0000     -10.474727      -285.0318 
  13   2.0000     -10.472759      -284.9782 
  14   2.0000     -10.470214      -284.9090 
  15   2.0000     -10.468394      -284.8595 
  16   2.0000     -10.433249      -283.9031 
  17   2.0000     -10.406975      -283.1882 
  18   2.0000      -3.660821       -99.6160 
  19   2.0000      -2.309709       -62.8504 
  20   2.0000      -2.298741       -62.5519 
  21   2.0000      -2.273311       -61.8599 
  22   2.0000      -1.174781       -31.9674 
  23   2.0000      -1.135678       -30.9034 
  24   2.0000      -1.069225       -29.0951 
  25   2.0000      -1.057821       -28.7848 
  26   2.0000      -1.041317       -28.3357 
  27   2.0000      -0.987346       -26.8670 
  28   2.0000      -0.895454       -24.3665 
  29   2.0000      -0.858880       -23.3713 
  30   2.0000      -0.818304       -22.2672 
  31   2.0000      -0.810460       -22.0537 
  32   2.0000      -0.804441       -21.8900 
  33   2.0000      -0.776762       -21.1368 
  34   2.0000      -0.717285       -19.5183 
  35   2.0000      -0.706866       -19.2348 
  36   2.0000      -0.671628       -18.2759 
  37   2.0000      -0.606095       -16.4927 
  38   2.0000      -0.597528       -16.2596 
  39   2.0000      -0.572901       -15.5894 
  40   2.0000      -0.571203       -15.5432 
  41   2.0000      -0.567039       -15.4299 
  42   2.0000      -0.558159       -15.1883 
  43   2.0000      -0.538947       -14.6655 
  44   2.0000      -0.526073       -14.3152 
  45   2.0000      -0.524047       -14.2600 
  46   2.0000      -0.513385       -13.9699 
  47   2.0000      -0.505875       -13.7655 
  48   2.0000      -0.494622       -13.4593 
  49   2.0000      -0.492938       -13.4135 
  50   2.0000      -0.485103       -13.2003 
  51   2.0000      -0.478059       -13.0086 
  52   2.0000      -0.475312       -12.9339 
  53   2.0000      -0.471344       -12.8259 
  54   2.0000      -0.462278       -12.5792 
  55   2.0000      -0.449793       -12.2395 
  56   2.0000      -0.445704       -12.1282 
  57   2.0000      -0.442336       -12.0366 
  58   2.0000      -0.433561       -11.7978 
  59   2.0000      -0.431091       -11.7306 
  60   2.0000      -0.425687       -11.5835 
  61   2.0000      -0.421270       -11.4633 
  62   2.0000      -0.405484       -11.0338 
  63   2.0000      -0.398547       -10.8450 
  64   2.0000      -0.376431       -10.2432 
  65   2.0000      -0.361348        -9.8328 
  66   2.0000      -0.346606        -9.4316 
  67   2.0000      -0.340662        -9.2699 
  68   2.0000      -0.332124        -9.0376 
  69   2.0000      -0.327085        -8.9004 
  70   2.0000      -0.319142        -8.6843 
  71   2.0000      -0.311697        -8.4817 
  72   2.0000      -0.308121        -8.3844 
  73   2.0000      -0.295996        -8.0545 
  74   2.0000      -0.281709        -7.6657 
  75   2.0000      -0.274951        -7.4818 
  76   2.0000      -0.256910        -6.9909 
  77   0.0000      -0.182305        -4.9608 
  78   0.0000      -0.071101        -1.9348 
  79   0.0000      -0.012558        -0.3417 
  80   0.0000      -0.001066        -0.0290 
  81   0.0000       0.066052         1.7974 
  82   0.0000       0.068225         1.8565 
  83   0.0000       0.082387         2.2419 
  84   0.0000       0.104213         2.8358 
  85   0.0000       0.110468         3.0060 
  86   0.0000       0.113454         3.0872 
  87   0.0000       0.132342         3.6012 
  88   0.0000       0.137235         3.7344 
  89   0.0000       0.146417         3.9842 
  90   0.0000       0.165372         4.5000 
  91   0.0000       0.168117         4.5747 
  92   0.0000       0.175116         4.7651 
  93   0.0000       0.190054         5.1716 
  94   0.0000       0.196062         5.3351 
  95   0.0000       0.202708         5.5160 
  96   0.0000       0.203692         5.5427 
  97   0.0000       0.213705         5.8152 
  98   0.0000       0.216717         5.8972 
  99   0.0000       0.219375         5.9695 
 100   0.0000       0.225680         6.1411 
 101   0.0000       0.235798         6.4164 
 102   0.0000       0.241332         6.5670 
 103   0.0000       0.241796         6.5796 
 104   0.0000       0.243713         6.6318 
 105   0.0000       0.248015         6.7488 
 106   0.0000       0.255345         6.9483 
 107   0.0000       0.260165         7.0795 
 108   0.0000       0.265378         7.2213 
 109   0.0000       0.268054         7.2941 
 110   0.0000       0.269547         7.3347 
 111   0.0000       0.274665         7.4740 
 112   0.0000       0.292493         7.9591 
 113   0.0000       0.307679         8.3724 
 114   0.0000       0.326059         8.8725 
 115   0.0000       0.336127         9.1465 
 116   0.0000       0.359303         9.7771 
 117   0.0000       0.383709        10.4413 
 118   0.0000       0.400774        10.9056 
 119   0.0000       0.403644        10.9837 
 120   0.0000       0.426742        11.6123 
 121   0.0000       0.430310        11.7093 
 122   0.0000       0.445152        12.1132 
 123   0.0000       0.450379        12.2554 
 124   0.0000       0.469859        12.7855 
 125   0.0000       0.483242        13.1497 
 126   0.0000       0.497494        13.5375 
 127   0.0000       0.512635        13.9495 
 128   0.0000       0.518648        14.1131 
 129   0.0000       0.533063        14.5054 
 130   0.0000       0.540662        14.7122 
 131   0.0000       0.551406        15.0045 
 132   0.0000       0.558907        15.2086 
 133   0.0000       0.564516        15.3613 
 134   0.0000       0.573930        15.6174 
 135   0.0000       0.586838        15.9687 
 136   0.0000       0.587651        15.9908 
 137   0.0000       0.595551        16.2058 
 138   0.0000       0.596417        16.2293 
 139   0.0000       0.598222        16.2785 
 140   0.0000       0.603581        16.4243 
 141   0.0000       0.605971        16.4893 
 142   0.0000       0.611551        16.6411 
 143   0.0000       0.613903        16.7052 
 144   0.0000       0.616600        16.7785 
 145   0.0000       0.624978        17.0065 
 146   0.0000       0.633552        17.2398 
 147   0.0000       0.642556        17.4848 
 148   0.0000       0.655113        17.8265 
 149   0.0000       0.664807        18.0903 
 150   0.0000       0.672683        18.3046 
 151   0.0000       0.687984        18.7210 
 152   0.0000       0.691011        18.8034 
 153   0.0000       0.704337        19.1660 
 154   0.0000       0.713617        19.4185 
 155   0.0000       0.735714        20.0198 
 156   0.0000       0.745877        20.2963 
 157   0.0000       0.750920        20.4336 
 158   0.0000       0.770159        20.9571 
 159   0.0000       0.777743        21.1635 
 160   0.0000       0.805493        21.9186 
 161   0.0000       0.821172        22.3452 
 162   0.0000       0.838770        22.8241 
 163   0.0000       0.866434        23.5769 
 164   0.0000       0.870711        23.6932 
 165   0.0000       0.891751        24.2658 
 166   0.0000       0.898371        24.4459 
 167   0.0000       0.910737        24.7824 
 168   0.0000       0.917597        24.9691 
 169   0.0000       0.927528        25.2393 
 170   0.0000       0.937809        25.5191 
 171   0.0000       0.950943        25.8765 
 172   0.0000       0.961643        26.1676 
 173   0.0000       0.973934        26.5021 
 174   0.0000       0.976861        26.5817 
 175   0.0000       0.990780        26.9605 
 176   0.0000       0.995956        27.1013 
 177   0.0000       1.006045        27.3759 
 178   0.0000       1.008961        27.4552 
 179   0.0000       1.017025        27.6746 
 180   0.0000       1.024020        27.8650 
 181   0.0000       1.027505        27.9598 
 182   0.0000       1.034712        28.1560 
 183   0.0000       1.046224        28.4692 
 184   0.0000       1.051241        28.6057 
 185   0.0000       1.055052        28.7094 
 186   0.0000       1.060386        28.8546 
 187   0.0000       1.062580        28.9143 
 188   0.0000       1.074069        29.2269 
 189   0.0000       1.079029        29.3619 
 190   0.0000       1.082372        29.4528 
 191   0.0000       1.090140        29.6642 
 192   0.0000       1.102628        30.0040 
 193   0.0000       1.109653        30.1952 
 194   0.0000       1.116719        30.3875 
 195   0.0000       1.131194        30.7814 
 196   0.0000       1.142574        31.0910 
 197   0.0000       1.159650        31.5557 
 198   0.0000       1.179620        32.0991 
 199   0.0000       1.192456        32.4484 
 200   0.0000       1.205200        32.7952 
 201   0.0000       1.218388        33.1540 
 202   0.0000       1.240386        33.7526 
 203   0.0000       1.247748        33.9529 
 204   0.0000       1.256000        34.1775 
 205   0.0000       1.263500        34.3816 
 206   0.0000       1.272962        34.6391 
 207   0.0000       1.282054        34.8865 
 208   0.0000       1.297605        35.3096 
 209   0.0000       1.307393        35.5760 
 210   0.0000       1.342804        36.5396 
 211   0.0000       1.359101        36.9830 
 212   0.0000       1.381296        37.5870 
 213   0.0000       1.396708        38.0064 
 214   0.0000       1.441685        39.2303 
 215   0.0000       1.460614        39.7453 
 216   0.0000       1.478244        40.2251 
 217   0.0000       1.479755        40.2662 
 218   0.0000       1.503339        40.9079 
 219   0.0000       1.508940        41.0603 
 220   0.0000       1.530242        41.6400 
 221   0.0000       1.538767        41.8720 
 222   0.0000       1.549354        42.1601 
 223   0.0000       1.568023        42.6681 
 224   0.0000       1.579713        42.9862 
 225   0.0000       1.591389        43.3039 
 226   0.0000       1.600288        43.5461 
 227   0.0000       1.654926        45.0328 
 228   0.0000       1.715694        46.6864 
 229   0.0000       1.746947        47.5369 
 230   0.0000       1.776156        48.3317 
 231   0.0000       1.781319        48.4721 
 232   0.0000       1.789283        48.6889 
 233   0.0000       1.805670        49.1348 
 234   0.0000       1.819711        49.5169 
 235   0.0000       1.826095        49.6906 
 236   0.0000       1.851430        50.3800 
 237   0.0000       1.858110        50.5618 
 238   0.0000       1.876553        51.0636 
 239   0.0000       1.892453        51.4963 
 240   0.0000       1.909116        51.9497 
 241   0.0000       1.915746        52.1301 
 242   0.0000       1.930413        52.5292 
 243   0.0000       1.942877        52.8684 
 244   0.0000       1.948229        53.0140 
 245   0.0000       1.957536        53.2673 
 246   0.0000       1.971919        53.6586 
 247   0.0000       1.995396        54.2975 
 248   0.0000       2.015698        54.8499 
 249   0.0000       2.021651        55.0119 
 250   0.0000       2.026882        55.1543 
 251   0.0000       2.033725        55.3405 
 252   0.0000       2.041436        55.5503 
 253   0.0000       2.053918        55.8900 
 254   0.0000       2.065114        56.1946 
 255   0.0000       2.069009        56.3006 
 256   0.0000       2.082170        56.6587 
 257   0.0000       2.113355        57.5073 
 258   0.0000       2.118705        57.6529 
 259   0.0000       2.133384        58.0523 
 260   0.0000       2.145989        58.3953 
 261   0.0000       2.159569        58.7649 
 262   0.0000       2.162872        58.8547 
 263   0.0000       2.168591        59.0104 
 264   0.0000       2.176079        59.2141 
 265   0.0000       2.181053        59.3495 
 266   0.0000       2.187700        59.5303 
 267   0.0000       2.209607        60.1265 
 268   0.0000       2.212343        60.2009 
 269   0.0000       2.227447        60.6119 
 270   0.0000       2.233065        60.7648 
 271   0.0000       2.268328        61.7244 
 272   0.0000       2.279362        62.0246 
 273   0.0000       2.306590        62.7655 
 274   0.0000       2.310102        62.8611 
 275   0.0000       2.313787        62.9613 
 276   0.0000       2.332455        63.4693 
 277   0.0000       2.338527        63.6346 
 278   0.0000       2.348199        63.8977 
 279   0.0000       2.356864        64.1335 
 280   0.0000       2.383568        64.8602 
 281   0.0000       2.389616        65.0248 
 282   0.0000       2.442978        66.4768 
 283   0.0000       2.451217        66.7010 
 284   0.0000       2.463678        67.0401 
 285   0.0000       2.468707        67.1769 
 286   0.0000       2.471957        67.2654 
 287   0.0000       2.478410        67.4410 
 288   0.0000       2.496297        67.9277 
 289   0.0000       2.513497        68.3957 
 290   0.0000       2.520435        68.5845 
 291   0.0000       2.540175        69.1217 
 292   0.0000       2.558482        69.6198 
 293   0.0000       2.562455        69.7279 
 294   0.0000       2.583318        70.2957 
 295   0.0000       2.636061        71.7309 
 296   0.0000       2.645902        71.9987 
 297   0.0000       2.648577        72.0715 
 298   0.0000       2.715129        73.8824 
 299   0.0000       2.744956        74.6940 
 300   0.0000       2.751539        74.8732 
 301   0.0000       2.772009        75.4302 
 302   0.0000       2.780036        75.6486 
 303   0.0000       2.798217        76.1434 
 304   0.0000       2.806148        76.3592 
 305   0.0000       2.808418        76.4209 
 306   0.0000       2.818249        76.6885 
 307   0.0000       2.841001        77.3076 
 308   0.0000       2.868885        78.0663 
 309   0.0000       2.883753        78.4709 
 310   0.0000       2.885139        78.5086 
 311   0.0000       2.916297        79.3565 
 312   0.0000       2.985521        81.2401 
 313   0.0000       3.037467        82.6537 
 314   0.0000       3.063436        83.3603 
 315   0.0000       3.079705        83.8030 
 316   0.0000       3.127855        85.1133 
 317   0.0000       3.195823        86.9628 
 318   0.0000       3.239168        88.1422 
 319   0.0000       3.436097        93.5010 
 320   0.0000      13.267063       361.0151 
 321   0.0000      13.615958       370.5091 
 322   0.0000      13.661489       371.7480 
 323   0.0000      13.678715       372.2168 
 324   0.0000      13.723162       373.4262 
 325   0.0000      13.726185       373.5085 
 326   0.0000      13.877548       377.6273 
 327   0.0000      13.963597       379.9688 
 328   0.0000      14.030260       381.7828 
 329   0.0000      14.072585       382.9345 
 330   0.0000      14.123546       384.3212 
 331   0.0000      14.156163       385.2088 
 332   0.0000      14.473530       393.8448 
 333   0.0000      19.353593       526.6380 
 334   0.0000      25.713704       699.7055 
 335   0.0000      25.739511       700.4077 
 336   0.0000      25.751189       700.7255 
 337   0.0000      25.808567       702.2868 
 338   0.0000      51.614427      1404.5000 

                    ********************************
                    * MULLIKEN POPULATION ANALYSIS *
                    ********************************

-----------------------
MULLIKEN ATOMIC CHARGES
-----------------------
   0 Pd:    0.408099
   1 O :   -0.518240
   2 C :    0.595298
   3 O :   -0.384365
   4 C :   -0.747144
   5 H :    0.234817
   6 H :    0.257834
   7 H :    0.252136
   8 N :   -0.466752
   9 C :   -0.520505
  10 H :    0.298224
  11 H :    0.207179
  12 H :    0.264618
  13 C :   -0.531018
  14 H :    0.282957
  15 H :    0.221402
  16 H :    0.277978
  17 C :    0.070383
  18 C :   -0.243314
  19 C :   -0.213998
  20 C :   -0.216064
  21 C :   -0.282550
  22 C :   -0.037022
  23 H :    0.238916
  24 H :    0.252731
  25 H :    0.224922
  26 H :    0.235867
  27 H :    0.126365
  28 C :   -0.335397
  29 H :    0.272568
  30 H :    0.241103
  31 O :   -0.525376
  32 C :    0.544219
  33 O :   -0.443346
  34 C :   -0.741138
  35 H :    0.234303
  36 H :    0.233969
  37 H :    0.230342
Sum of atomic charges:    0.0000000

--------------------------------
MULLIKEN REDUCED ORBITAL CHARGES
--------------------------------
  0 Pds       :     2.493056  s :     2.493056
      pz      :     2.145202  p :     6.411363
      px      :     2.153882
      py      :     2.112279
      dz2     :     1.750018  d :     8.684251
      dxz     :     1.429986
      dyz     :     1.893295
      dx2y2   :     1.938908
      dxy     :     1.672044
      f0      :     0.000498  f :     0.003230
      f+1     :     0.000645
      f-1     :     0.000184
      f+2     :     0.000346
      f-2     :     0.000686
      f+3     :     0.000245
      f-3     :     0.000626
  1 O s       :     3.855200  s :     3.855200
      pz      :     1.629420  p :     4.638443
      px      :     1.684454
      py      :     1.324570
      dz2     :     0.003167  d :     0.024597
      dxz     :     0.002464
      dyz     :     0.005820
      dx2y2   :     0.007810
      dxy     :     0.005336
  2 C s       :     2.985210  s :     2.985210
      pz      :     0.730451  p :     2.285747
      px      :     0.824056
      py      :     0.731240
      dz2     :     0.013246  d :     0.133745
      dxz     :     0.017782
      dyz     :     0.021108
      dx2y2   :     0.040491
      dxy     :     0.041118
  3 O s       :     3.775007  s :     3.775007
      pz      :     1.433850  p :     4.579950
      px      :     1.417022
      py      :     1.729078
      dz2     :     0.005913  d :     0.029409
      dxz     :     0.008312
      dyz     :     0.002316
      dx2y2   :     0.006685
      dxy     :     0.006182
  4 C s       :     3.417020  s :     3.417020
      pz      :     1.163458  p :     3.296725
      px      :     1.054430
      py      :     1.078837
      dz2     :     0.005394  d :     0.033399
      dxz     :     0.008791
      dyz     :     0.005514
      dx2y2   :     0.004300
      dxy     :     0.009399
  5 H s       :     0.765183  s :     0.765183
  6 H s       :     0.742166  s :     0.742166
  7 H s       :     0.747864  s :     0.747864
  8 N s       :     3.597385  s :     3.597385
      pz      :     1.192083  p :     3.824133
      px      :     1.409577
      py      :     1.222473
      dz2     :     0.006787  d :     0.045234
      dxz     :     0.011335
      dyz     :     0.011206
      dx2y2   :     0.008905
      dxy     :     0.007001
  9 C s       :     3.355516  s :     3.355516
      pz      :     1.142011  p :     3.115036
      px      :     1.124836
      py      :     0.848189
      dz2     :     0.004504  d :     0.049952
      dxz     :     0.012432
      dyz     :     0.012812
      dx2y2   :     0.010326
      dxy     :     0.009879
 10 H s       :     0.701776  s :     0.701776
 11 H s       :     0.792821  s :     0.792821
 12 H s       :     0.735382  s :     0.735382
 13 C s       :     3.360145  s :     3.360145
      pz      :     0.993462  p :     3.121155
      px      :     1.086809
      py      :     1.040884
      dz2     :     0.007781  d :     0.049718
      dxz     :     0.012813
      dyz     :     0.010521
      dx2y2   :     0.012227
      dxy     :     0.006377
 14 H s       :     0.717043  s :     0.717043
 15 H s       :     0.778598  s :     0.778598
 16 H s       :     0.722022  s :     0.722022
 17 C s       :     3.154272  s :     3.154272
      pz      :     0.904446  p :     2.727401
      px      :     0.928374
      py      :     0.894580
      dz2     :     0.011527  d :     0.047945
      dxz     :     0.008329
      dyz     :     0.012919
      dx2y2   :     0.007358
      dxy     :     0.007811
 18 C s       :     3.258450  s :     3.258450
      pz      :     0.922623  p :     2.944917
      px      :     1.018291
      py      :     1.004004
      dz2     :     0.011118  d :     0.039947
      dxz     :     0.007379
      dyz     :     0.010621
      dx2y2   :     0.003223
      dxy     :     0.007606
 19 C s       :     3.244660  s :     3.244660
      pz      :     0.967554  p :     2.928661
      px      :     0.962763
      py      :     0.998345
      dz2     :     0.009233  d :     0.040678
      dxz     :     0.007431
      dyz     :     0.013167
      dx2y2   :     0.005383
      dxy     :     0.005464
 20 C s       :     3.244925  s :     3.244925
      pz      :     1.044033  p :     2.930795
      px      :     0.975022
      py      :     0.911740
      dz2     :     0.011915  d :     0.040344
      dxz     :     0.004777
      dyz     :     0.010204
      dx2y2   :     0.006742
      dxy     :     0.006706
 21 C s       :     3.277316  s :     3.277316
      pz      :     0.938023  p :     2.964191
      px      :     0.980350
      py      :     1.045818
      dz2     :     0.010355  d :     0.041044
      dxz     :     0.007151
      dyz     :     0.013787
      dx2y2   :     0.005700
      dxy     :     0.004051
 22 C s       :     3.321930  s :     3.321930
      pz      :     0.901639  p :     2.679196
      px      :     0.933595
      py      :     0.843962
      dz2     :     0.011242  d :     0.035896
      dxz     :     0.006650
      dyz     :     0.006862
      dx2y2   :     0.005269
      dxy     :     0.005874
 23 H s       :     0.761084  s :     0.761084
 24 H s       :     0.747269  s :     0.747269
 25 H s       :     0.775078  s :     0.775078
 26 H s       :     0.764133  s :     0.764133
 27 H s       :     0.873635  s :     0.873635
 28 C s       :     3.320105  s :     3.320105
      pz      :     0.835696  p :     2.961325
      px      :     0.954130
      py      :     1.171499
      dz2     :     0.016185  d :     0.053967
      dxz     :     0.013715
      dyz     :     0.005193
      dx2y2   :     0.003528
      dxy     :     0.015347
 29 H s       :     0.727432  s :     0.727432
 30 H s       :     0.758897  s :     0.758897
 31 O s       :     3.824615  s :     3.824615
      pz      :     1.555256  p :     4.677413
      px      :     1.548749
      py      :     1.573408
      dz2     :     0.003474  d :     0.023348
      dxz     :     0.002503
      dyz     :     0.005476
      dx2y2   :     0.004836
      dxy     :     0.007059
 32 C s       :     2.969167  s :     2.969167
      pz      :     0.771819  p :     2.344274
      px      :     0.771299
      py      :     0.801156
      dz2     :     0.015535  d :     0.142339
      dxz     :     0.010608
      dyz     :     0.037326
      dx2y2   :     0.034992
      dxy     :     0.043877
 33 O s       :     3.762263  s :     3.762263
      pz      :     1.595450  p :     4.652196
      px      :     1.654991
      py      :     1.401756
      dz2     :     0.003424  d :     0.028887
      dxz     :     0.000639
      dyz     :     0.009015
      dx2y2   :     0.007658
      dxy     :     0.008150
 34 C s       :     3.412748  s :     3.412748
      pz      :     1.071813  p :     3.295004
      px      :     1.071074
      py      :     1.152117
      dz2     :     0.001701  d :     0.033386
      dxz     :     0.009630
      dyz     :     0.010996
      dx2y2   :     0.005185
      dxy     :     0.005874
 35 H s       :     0.765697  s :     0.765697
 36 H s       :     0.766031  s :     0.766031
 37 H s       :     0.769658  s :     0.769658


                     *******************************
                     * LOEWDIN POPULATION ANALYSIS *
                     *******************************

----------------------
LOEWDIN ATOMIC CHARGES
----------------------
   0 Pd:   -0.325663
   1 O :   -0.177250
   2 C :    0.175795
   3 O :   -0.167501
   4 C :   -0.382907
   5 H :    0.145585
   6 H :    0.159456
   7 H :    0.146442
   8 N :   -0.070398
   9 C :   -0.235555
  10 H :    0.161724
  11 H :    0.113164
  12 H :    0.151408
  13 C :   -0.234485
  14 H :    0.156583
  15 H :    0.118828
  16 H :    0.157246
  17 C :   -0.051604
  18 C :   -0.123940
  19 C :   -0.121199
  20 C :   -0.120529
  21 C :   -0.109399
  22 C :    0.030359
  23 H :    0.144793
  24 H :    0.154886
  25 H :    0.142384
  26 H :    0.145130
  27 H :    0.135724
  28 C :   -0.104304
  29 H :    0.157165
  30 H :    0.135296
  31 O :   -0.210273
  32 C :    0.129996
  33 O :   -0.253063
  34 C :   -0.393370
  35 H :    0.137554
  36 H :    0.146422
  37 H :    0.135499

-------------------------------
LOEWDIN REDUCED ORBITAL CHARGES
-------------------------------
  0 Pds       :     2.507477  s :     2.507477
      pz      :     2.269019  p :     6.764028
      px      :     2.286121
      py      :     2.208888
      dz2     :     1.819879  d :     9.049790
      dxz     :     1.549764
      dyz     :     1.935561
      dx2y2   :     1.991010
      dxy     :     1.753576
      f0      :     0.000668  f :     0.004369
      f+1     :     0.000866
      f-1     :     0.000222
      f+2     :     0.000458
      f-2     :     0.000958
      f+3     :     0.000293
      f-3     :     0.000904
  1 O s       :     3.507995  s :     3.507995
      pz      :     1.597489  p :     4.621099
      px      :     1.653237
      py      :     1.370373
      dz2     :     0.006318  d :     0.048156
      dxz     :     0.003418
      dyz     :     0.009998
      dx2y2   :     0.017661
      dxy     :     0.010762
  2 C s       :     2.825683  s :     2.825683
      pz      :     0.781653  p :     2.698419
      px      :     0.994767
      py      :     0.921999
      dz2     :     0.028093  d :     0.300103
      dxz     :     0.038919
      dyz     :     0.045941
      dx2y2   :     0.092118
      dxy     :     0.095032
  3 O s       :     3.493286  s :     3.493286
      pz      :     1.439288  p :     4.616782
      px      :     1.488564
      py      :     1.688930
      dz2     :     0.008543  d :     0.057433
      dxz     :     0.016355
      dyz     :     0.004431
      dx2y2   :     0.014587
      dxy     :     0.013518
  4 C s       :     2.966071  s :     2.966071
      pz      :     1.145916  p :     3.355497
      px      :     1.100492
      py      :     1.109089
      dz2     :     0.009205  d :     0.061338
      dxz     :     0.015718
      dyz     :     0.009590
      dx2y2   :     0.008254
      dxy     :     0.018572
  5 H s       :     0.854415  s :     0.854415
  6 H s       :     0.840544  s :     0.840544
  7 H s       :     0.853558  s :     0.853558
  8 N s       :     3.115222  s :     3.115222
      pz      :     1.219634  p :     3.854212
      px      :     1.384467
      py      :     1.250110
      dz2     :     0.015803  d :     0.100964
      dxz     :     0.024799
      dyz     :     0.026099
      dx2y2   :     0.018777
      dxy     :     0.015485
  9 C s       :     2.937147  s :     2.937147
      pz      :     1.120658  p :     3.201533
      px      :     1.132477
      py      :     0.948398
      dz2     :     0.008293  d :     0.096876
      dxz     :     0.021320
      dyz     :     0.026063
      dx2y2   :     0.020774
      dxy     :     0.020426
 10 H s       :     0.838276  s :     0.838276
 11 H s       :     0.886836  s :     0.886836
 12 H s       :     0.848592  s :     0.848592
 13 C s       :     2.939444  s :     2.939444
      pz      :     1.033437  p :     3.199027
      px      :     1.101218
      py      :     1.064372
      dz2     :     0.015257  d :     0.096015
      dxz     :     0.024774
      dyz     :     0.021375
      dx2y2   :     0.022753
      dxy     :     0.011857
 14 H s       :     0.843417  s :     0.843417
 15 H s       :     0.881172  s :     0.881172
 16 H s       :     0.842754  s :     0.842754
 17 C s       :     2.839340  s :     2.839340
      pz      :     1.040817  p :     3.095866
      px      :     0.984907
      py      :     1.070142
      dz2     :     0.029058  d :     0.116398
      dxz     :     0.019130
      dyz     :     0.032608
      dx2y2   :     0.016927
      dxy     :     0.018674
 18 C s       :     2.888191  s :     2.888191
      pz      :     1.074898  p :     3.145169
      px      :     1.019540
      py      :     1.050730
      dz2     :     0.027998  d :     0.090581
      dxz     :     0.016283
      dyz     :     0.026791
      dx2y2   :     0.006311
      dxy     :     0.013199
 19 C s       :     2.888313  s :     2.888313
      pz      :     1.084123  p :     3.139928
      px      :     0.995167
      py      :     1.060638
      dz2     :     0.023466  d :     0.092958
      dxz     :     0.016877
      dyz     :     0.030507
      dx2y2   :     0.011088
      dxy     :     0.011020
 20 C s       :     2.895549  s :     2.895549
      pz      :     1.066452  p :     3.133860
      px      :     0.996451
      py      :     1.070957
      dz2     :     0.025174  d :     0.091120
      dxz     :     0.008887
      dyz     :     0.026086
      dx2y2   :     0.015370
      dxy     :     0.015603
 21 C s       :     2.888401  s :     2.888401
      pz      :     1.081685  p :     3.128065
      px      :     0.967570
      py      :     1.078809
      dz2     :     0.027443  d :     0.092934
      dxz     :     0.015195
      dyz     :     0.033630
      dx2y2   :     0.009731
      dxy     :     0.006934
 22 C s       :     2.926883  s :     2.926883
      pz      :     1.034968  p :     2.961801
      px      :     0.977485
      py      :     0.949348
      dz2     :     0.026710  d :     0.080957
      dxz     :     0.014068
      dyz     :     0.017505
      dx2y2   :     0.010261
      dxy     :     0.012414
 23 H s       :     0.855207  s :     0.855207
 24 H s       :     0.845114  s :     0.845114
 25 H s       :     0.857616  s :     0.857616
 26 H s       :     0.854870  s :     0.854870
 27 H s       :     0.864276  s :     0.864276
 28 C s       :     2.893848  s :     2.893848
      pz      :     0.966867  p :     3.100157
      px      :     1.011215
      py      :     1.122074
      dz2     :     0.034768  d :     0.110299
      dxz     :     0.030980
      dyz     :     0.010250
      dx2y2   :     0.006910
      dxy     :     0.027390
 29 H s       :     0.842835  s :     0.842835
 30 H s       :     0.864704  s :     0.864704
 31 O s       :     3.487862  s :     3.487862
      pz      :     1.534540  p :     4.673750
      px      :     1.546130
      py      :     1.593080
      dz2     :     0.007396  d :     0.048661
      dxz     :     0.007289
      dyz     :     0.009847
      dx2y2   :     0.009078
      dxy     :     0.015051
 32 C s       :     2.820553  s :     2.820553
      pz      :     0.848218  p :     2.727658
      px      :     0.871029
      py      :     1.008411
      dz2     :     0.035653  d :     0.321793
      dxz     :     0.023028
      dyz     :     0.081159
      dx2y2   :     0.081274
      dxy     :     0.100679
 33 O s       :     3.500750  s :     3.500750
      pz      :     1.578357  p :     4.696642
      px      :     1.627381
      py      :     1.490904
      dz2     :     0.006778  d :     0.055671
      dxz     :     0.001279
      dyz     :     0.015624
      dx2y2   :     0.018387
      dxy     :     0.013602
 34 C s       :     2.975720  s :     2.975720
      pz      :     1.105906  p :     3.357529
      px      :     1.110592
      py      :     1.141031
      dz2     :     0.003147  d :     0.060122
      dxz     :     0.018372
      dyz     :     0.019312
      dx2y2   :     0.009078
      dxy     :     0.010213
 35 H s       :     0.862446  s :     0.862446
 36 H s       :     0.853578  s :     0.853578
 37 H s       :     0.864501  s :     0.864501


                      *****************************
                      * MAYER POPULATION ANALYSIS *
                      *****************************

  NA   - Mulliken gross atomic population
  ZA   - Total nuclear charge
  QA   - Mulliken gross atomic charge
  VA   - Mayer's total valence
  BVA  - Mayer's bonded valence
  FA   - Mayer's free valence

  ATOM       NA         ZA         QA         VA         BVA        FA
  0 Pd    17.5919    18.0000     0.4081     2.7579     2.7579     0.0000
  1 O      8.5182     8.0000    -0.5182     2.1443     2.1443    -0.0000
  2 C      5.4047     6.0000     0.5953     3.9636     3.9636     0.0000
  3 O      8.3844     8.0000    -0.3844     2.2022     2.2022    -0.0000
  4 C      6.7471     6.0000    -0.7471     3.6955     3.6955    -0.0000
  5 H      0.7652     1.0000     0.2348     0.9064     0.9064    -0.0000
  6 H      0.7422     1.0000     0.2578     0.8971     0.8971    -0.0000
  7 H      0.7479     1.0000     0.2521     0.8994     0.8994    -0.0000
  8 N      7.4668     7.0000    -0.4668     3.1443     3.1443    -0.0000
  9 C      6.5205     6.0000    -0.5205     3.6169     3.6169     0.0000
 10 H      0.7018     1.0000     0.2982     0.8935     0.8935     0.0000
 11 H      0.7928     1.0000     0.2072     0.9079     0.9079     0.0000
 12 H      0.7354     1.0000     0.2646     0.8992     0.8992     0.0000
 13 C      6.5310     6.0000    -0.5310     3.6240     3.6240     0.0000
 14 H      0.7170     1.0000     0.2830     0.8847     0.8847     0.0000
 15 H      0.7786     1.0000     0.2214     0.9039     0.9039     0.0000
 16 H      0.7220     1.0000     0.2780     0.8937     0.8937    -0.0000
 17 C      5.9296     6.0000     0.0704     3.7290     3.7290    -0.0000
 18 C      6.2433     6.0000    -0.2433     3.8357     3.8357     0.0000
 19 C      6.2140     6.0000    -0.2140     3.8287     3.8287    -0.0000
 20 C      6.2161     6.0000    -0.2161     3.8059     3.8059     0.0000
 21 C      6.2826     6.0000    -0.2826     3.8487     3.8487    -0.0000
 22 C      6.0370     6.0000    -0.0370     3.6781     3.6781    -0.0000
 23 H      0.7611     1.0000     0.2389     0.9041     0.9041     0.0000
 24 H      0.7473     1.0000     0.2527     0.8974     0.8974    -0.0000
 25 H      0.7751     1.0000     0.2249     0.9102     0.9102     0.0000
 26 H      0.7641     1.0000     0.2359     0.9057     0.9057    -0.0000
 27 H      0.8736     1.0000     0.1264     0.9837     0.9837     0.0000
 28 C      6.3354     6.0000    -0.3354     3.6201     3.6201     0.0000
 29 H      0.7274     1.0000     0.2726     0.8802     0.8802    -0.0000
 30 H      0.7589     1.0000     0.2411     0.9034     0.9034     0.0000
 31 O      8.5254     8.0000    -0.5254     2.0997     2.0997     0.0000
 32 C      5.4558     6.0000     0.5442     4.0850     4.0850     0.0000
 33 O      8.4433     8.0000    -0.4433     2.1428     2.1428     0.0000
 34 C      6.7411     6.0000    -0.7411     3.7098     3.7098    -0.0000
 35 H      0.7657     1.0000     0.2343     0.9070     0.9070     0.0000
 36 H      0.7660     1.0000     0.2340     0.9049     0.9049     0.0000
 37 H      0.7697     1.0000     0.2303     0.9071     0.9071     0.0000

  Mayer bond orders larger than 0.100000
B(  0-Pd,  1-O ) :   0.6844 B(  0-Pd,  3-O ) :   0.1128 B(  0-Pd,  8-N ) :   0.3879 
B(  0-Pd, 22-C ) :   0.4297 B(  0-Pd, 27-H ) :   0.2308 B(  0-Pd, 31-O ) :   0.6229 
B(  1-O ,  2-C ) :   1.1927 B(  2-C ,  3-O ) :   1.8278 B(  2-C ,  4-C ) :   0.9375 
B(  3-O , 27-H ) :   0.1133 B(  4-C ,  5-H ) :   0.9158 B(  4-C ,  6-H ) :   0.9068 
B(  4-C ,  7-H ) :   0.9095 B(  8-N ,  9-C ) :   0.9259 B(  8-N , 13-C ) :   0.9220 
B(  8-N , 28-C ) :   0.8867 B(  9-C , 10-H ) :   0.8847 B(  9-C , 11-H ) :   0.9044 
B(  9-C , 12-H ) :   0.9082 B( 13-C , 14-H ) :   0.8958 B( 13-C , 15-H ) :   0.9042 
B( 13-C , 16-H ) :   0.8967 B( 17-C , 18-C ) :   1.3901 B( 17-C , 22-C ) :   1.3338 
B( 17-C , 28-C ) :   0.9603 B( 18-C , 19-C ) :   1.4378 B( 18-C , 25-H ) :   0.9113 
B( 19-C , 20-C ) :   1.4209 B( 19-C , 26-H ) :   0.9111 B( 20-C , 21-C ) :   1.4112 
B( 20-C , 23-H ) :   0.9074 B( 21-C , 22-C ) :   1.4196 B( 21-C , 24-H ) :   0.9038 
B( 22-C , 27-H ) :   0.4116 B( 28-C , 29-H ) :   0.8962 B( 28-C , 30-H ) :   0.9067 
B( 31-O , 32-C ) :   1.2754 B( 31-O , 33-O ) :   0.1028 B( 32-C , 33-O ) :   1.8907 
B( 32-C , 34-C ) :   0.9136 B( 34-C , 35-H ) :   0.9197 B( 34-C , 36-H ) :   0.9167 
B( 34-C , 37-H ) :   0.9167 


------------------
HIRSHFELD ANALYSIS
------------------

Total integrated alpha density =     76.999635432
Total integrated beta density  =     76.999635432

  ATOM     CHARGE      SPIN    
   0 Pd   0.597890    0.000000
   1 O   -0.322072    0.000000
   2 C    0.210492    0.000000
   3 O   -0.318738    0.000000
   4 C   -0.072716    0.000000
   5 H    0.039944    0.000000
   6 H    0.051285    0.000000
   7 H    0.041564    0.000000
   8 N   -0.082740    0.000000
   9 C   -0.024516    0.000000
  10 H    0.046179    0.000000
  11 H    0.027234    0.000000
  12 H    0.045577    0.000000
  13 C   -0.024903    0.000000
  14 H    0.041832    0.000000
  15 H    0.029956    0.000000
  16 H    0.050211    0.000000
  17 C   -0.016105    0.000000
  18 C   -0.039761    0.000000
  19 C   -0.033550    0.000000
  20 C   -0.028876    0.000000
  21 C   -0.034086    0.000000
  22 C   -0.079570    0.000000
  23 H    0.052968    0.000000
  24 H    0.054129    0.000000
  25 H    0.046194    0.000000
  26 H    0.052713    0.000000
  27 H    0.093933    0.000000
  28 C    0.006959    0.000000
  29 H    0.042253    0.000000
  30 H    0.039112    0.000000
  31 O   -0.344566    0.000000
  32 C    0.195943    0.000000
  33 O   -0.360103    0.000000
  34 C   -0.085367    0.000000
  35 H    0.033097    0.000000
  36 H    0.036971    0.000000
  37 H    0.031962    0.000000

  TOTAL   0.000729    0.000000

-------
TIMINGS
-------

Total SCF time: 0 days 0 hours 19 min 2 sec 

Total time                  ....    1142.630 sec
Sum of individual times     ....    1139.285 sec  ( 99.7%)

Fock matrix formation       ....    1130.791 sec  ( 99.0%)
  Split-RI-J                ....     182.894 sec  ( 16.2% of F)
  Chain of spheres X        ....     852.525 sec  ( 75.4% of F)
  XC integration            ....      95.226 sec  (  8.4% of F)
    Basis function eval.    ....      31.958 sec  ( 33.6% of XC)
    Density eval.           ....      24.006 sec  ( 25.2% of XC)
    XC-Functional eval.     ....       3.770 sec  (  4.0% of XC)
    XC-Potential eval.      ....      29.233 sec  ( 30.7% of XC)
Diagonalization             ....       0.447 sec  (  0.0%)
Density matrix formation    ....       0.121 sec  (  0.0%)
Population analysis         ....       1.309 sec  (  0.1%)
Initial guess               ....       0.057 sec  (  0.0%)
Orbital Transformation      ....       0.623 sec  (  0.1%)
Orbital Orthonormalization  ....       0.000 sec  (  0.0%)
DIIS solution               ....       0.142 sec  (  0.0%)
Grid generation             ....       5.794 sec  (  0.5%)

Maximum memory used throughout the entire SCF-calculation: 153.2 MB


-------------------------------------------------------------------------------
                          DFT DISPERSION CORRECTION                            
                                                                               
                              DFTD3 V3.1  Rev 1                                
                          USING Becke-Johnson damping                          
-------------------------------------------------------------------------------
The PBEh-3c composite method is recognized
Using three-body term ABC
Active option DFTDOPT                   ...         4   

molecular C6(AA) [au] = 16863.176725 


            DFT-D V3
 parameters
 s6 scaling factor         :     1.0000 
 a1 scaling factor         :     0.4860 
 s8 scaling factor         :     0.0000 
 a2 scaling factor         :     4.5000 
 Damping factor alpha9(ATM):    16.0000 
 ad hoc parameters k1-k3   :    16.0000     1.3333    -4.0000 

 Edisp/kcal,au: -16.175067486475  -0.025776608051 
 E6   /kcal   : -16.347359624 
 E8   /kcal   :  -0.000000000 
 E6(ABC)      :   0.172292138 
 % E8         :   0.000000000 
 % E6(ABC)    :  -1.065171058 

-------------------------   ----------------
Dispersion correction           -0.025776608
-------------------------   ----------------

 ** NOTE ** -> element pd will be treated as ni
------------------   -----------------
gCP correction             0.071276283
------------------   -----------------

-------------------------   --------------------
FINAL SINGLE POINT ENERGY      -988.240350836603
-------------------------   --------------------

------------------------------------------------------------------------------
                         ORCA SCF GRADIENT CALCULATION
------------------------------------------------------------------------------

 ... reading COSX grid (gridx3)
Gradient of the Kohn-Sham DFT energy:
Kohn-Sham wavefunction type      ... RKS
Hartree-Fock exchange scaling    ...    0.420
Number of operators              ...    1
Number of atoms                  ...   38
Basis set dimensions             ...  339
Integral neglect threshold       ... 2.5e-11
Integral primitive cutoff        ... 2.5e-12
SHARK Integral package           ... ON

Nuc. rep. gradient       (SHARK) ... done (  0.0 sec)
HCore & Overlap gradient (SHARK) ... done (  1.5 sec)
ECP gradient             (SHARK) ... done (  2.3 sec)
RI-J gradient            (SHARK) ... done (  6.8 sec)
COSX-gradient                    ... done ( 58.8 sec)
Exchange-correlation gradient    ... done
Dispersion correction            ... done
gCP correction                   ... done

------------------
CARTESIAN GRADIENT
------------------

   1   Pd  :    0.004213544   -0.009232441   -0.002351378
   2   O   :    0.022482553   -0.050421232    0.011537185
   3   C   :   -0.053951749    0.064243042   -0.025758380
   4   O   :    0.041509941   -0.016966981    0.012858617
   5   C   :    0.020485803    0.002521268    0.003079309
   6   H   :   -0.002132015    0.003689247    0.000416723
   7   H   :   -0.000131052    0.002426184    0.000324901
   8   H   :   -0.002218294    0.004742360   -0.003050943
   9   N   :   -0.007801353   -0.014524736   -0.029294073
  10   C   :    0.004327872   -0.004192900   -0.011819232
  11   H   :   -0.013017814   -0.001009660    0.007988985
  12   H   :    0.006234531    0.007824207    0.001832573
  13   H   :   -0.000996061    0.002116035    0.001299120
  14   C   :   -0.002962847    0.012206232    0.001722085
  15   H   :    0.001618428   -0.005138409   -0.002864170
  16   H   :    0.007327350   -0.002376851    0.004701195
  17   H   :   -0.001512647   -0.002729779   -0.000028748
  18   C   :    0.000043146    0.014647025   -0.009285020
  19   C   :    0.005511263   -0.016005191    0.006410839
  20   C   :    0.002155629    0.000326544   -0.003896252
  21   C   :    0.003087528   -0.010713979    0.001165747
  22   C   :   -0.004155203    0.010931571   -0.002941298
  23   C   :   -0.018327114   -0.004042515    0.006285825
  24   H   :    0.002752621   -0.001567620    0.002767979
  25   H   :   -0.013285664   -0.013404273    0.002154111
  26   H   :   -0.000231623    0.008184658    0.008139878
  27   H   :   -0.005593862    0.004693771    0.002065202
  28   H   :   -0.008964524    0.012946421    0.001869062
  29   C   :   -0.000038751   -0.005570548    0.025198422
  30   H   :   -0.002171311   -0.002845332    0.004413855
  31   H   :   -0.000575777    0.004951010    0.001443410
  32   O   :   -0.005579962    0.021816737   -0.004881241
  33   C   :    0.002366413   -0.027078912    0.024139191
  34   O   :    0.004486555    0.014223722   -0.014197946
  35   C   :    0.005804236    0.002148556   -0.022109092
  36   H   :    0.003046876    0.002932546   -0.000772307
  37   H   :   -0.000266582   -0.002594751    0.002070743
  38   H   :    0.005925911   -0.005326370   -0.000102142

Difference to translation invariance:
           :   -0.0005340062    0.0018286535    0.0005327326

Difference to rotation invariance:
           :    0.0008723411   -0.0002413112    0.0046964945

Norm of the cartesian gradient     ...    0.1461427182
RMS gradient                       ...    0.0136875196
MAX gradient                       ...    0.0642430420

-------
TIMINGS
-------

Total SCF gradient time            ...       81.851 sec

One electron gradient       ....       3.755 sec  (  4.6%)
RI-J Coulomb gradient       ....       6.778 sec  (  8.3%)
COSX gradient               ....      58.774 sec  ( 71.8%)
XC gradient                 ....      10.975 sec  ( 13.4%)

Maximum memory used throughout the entire SCFGRAD-calculation: 121.4 MB

                            ***************************************
                            *     ORCA property calculations      *
                            ***************************************

                                    ---------------------
                                    Active property flags
                                    ---------------------
   (+) Dipole Moment


------------------------------------------------------------------------------
                       ORCA ELECTRIC PROPERTIES CALCULATION
------------------------------------------------------------------------------

Dipole Moment Calculation                       ... on
Quadrupole Moment Calculation                   ... off
Polarizability Calculation                      ... off
GBWName                                         ... 8_7_orca.gbw
Electron density                                ... 8_7_orca.scfp
The origin for moment calculation is the CENTER OF MASS  = ( 0.435288,  0.118612  0.086287)

-------------
DIPOLE MOMENT
-------------
                                X             Y             Z
Electronic contribution:     15.93852      11.80793      -6.62018
Nuclear contribution   :    -18.39510     -11.87177       7.82053
                        -----------------------------------------
Total Dipole Moment    :     -2.45657      -0.06385       1.20035
                        -----------------------------------------
Magnitude (a.u.)       :      2.73490
Magnitude (Debye)      :      6.95156



--------------------
Rotational spectrum 
--------------------
 
Rotational constants in cm-1:     0.013983     0.008363     0.006368 
Rotational constants in MHz :   419.192849   250.708631   190.915161 

 Dipole components along the rotational axes: 
x,y,z [a.u.] :    -2.419118     0.033521     1.275309 
x,y,z [Debye]:    -6.148910     0.085204     3.241578 

 

Timings for individual modules:

Sum of individual times         ...     1225.480 sec (=  20.425 min)
GTO integral calculation        ...        0.919 sec (=   0.015 min)   0.1 %
SCF iterations                  ...     1142.663 sec (=  19.044 min)  93.2 %
SCF Gradient evaluation         ...       81.898 sec (=   1.365 min)   6.7 %
                             ****ORCA TERMINATED NORMALLY****
TOTAL RUN TIME: 0 days 0 hours 20 minutes 25 seconds 909 msec
