
                                 *****************
                                 * O   R   C   A *
                                 *****************

                                            #,                                       
                                            ###                                      
                                            ####                                     
                                            #####                                    
                                            ######                                   
                                           ########,                                 
                                     ,,################,,,,,                         
                               ,,#################################,,                 
                          ,,##########################################,,             
                       ,#########################################, ''#####,          
                    ,#############################################,,   '####,        
                  ,##################################################,,,,####,       
                ,###########''''           ''''###############################       
              ,#####''   ,,,,##########,,,,          '''####'''          '####       
            ,##' ,,,,###########################,,,                        '##       
           ' ,,###''''                  '''############,,,                           
         ,,##''                                '''############,,,,        ,,,,,,###''
      ,#''                                            '''#######################'''  
     '                                                          ''''####''''         
             ,#######,   #######,   ,#######,      ##                                
            ,#'     '#,  ##    ##  ,#'     '#,    #''#        ######   ,####,        
            ##       ##  ##   ,#'  ##            #'  '#       #        #'  '#        
            ##       ##  #######   ##           ,######,      #####,   #    #        
            '#,     ,#'  ##    ##  '#,     ,#' ,#      #,         ##   #,  ,#        
             '#######'   ##     ##  '#######'  #'      '#     #####' # '####'        



                  #######################################################
                  #                        -***-                        #
                  #          Department of theory and spectroscopy      #
                  #    Directorship and core code : Frank Neese         #
                  #        Max Planck Institute fuer Kohlenforschung    #
                  #                Kaiser Wilhelm Platz 1               #
                  #                 D-45470 Muelheim/Ruhr               #
                  #                      Germany                        #
                  #                                                     #
                  #                  All rights reserved                #
                  #                        -***-                        #
                  #######################################################


                         Program Version 5.0.4 -  RELEASE  -


 With contributions from (in alphabetic order):
   Daniel Aravena         : Magnetic Suceptibility
   Michael Atanasov       : Ab Initio Ligand Field Theory (pilot matlab implementation)
   Alexander A. Auer      : GIAO ZORA, VPT2 properties, NMR spectrum
   Ute Becker             : Parallelization
   Giovanni Bistoni       : ED, misc. LED, open-shell LED, HFLD
   Martin Brehm           : Molecular dynamics
   Dmytro Bykov           : SCF Hessian
   Vijay G. Chilkuri      : MRCI spin determinant printing, contributions to CSF-ICE
   Dipayan Datta          : RHF DLPNO-CCSD density
   Achintya Kumar Dutta   : EOM-CC, STEOM-CC
   Dmitry Ganyushin       : Spin-Orbit,Spin-Spin,Magnetic field MRCI
   Miquel Garcia          : C-PCM and meta-GGA Hessian, CC/C-PCM, Gaussian charge scheme
   Yang Guo               : DLPNO-NEVPT2, F12-NEVPT2, CIM, IAO-localization
   Andreas Hansen         : Spin unrestricted coupled pair/coupled cluster methods
   Benjamin Helmich-Paris : MC-RPA, TRAH-SCF, COSX integrals
   Lee Huntington         : MR-EOM, pCC
   Robert Izsak           : Overlap fitted RIJCOSX, COSX-SCS-MP3, EOM
   Marcus Kettner         : VPT2
   Christian Kollmar      : KDIIS, OOCD, Brueckner-CCSD(T), CCSD density, CASPT2, CASPT2-K
   Simone Kossmann        : Meta GGA functionals, TD-DFT gradient, OOMP2, MP2 Hessian
   Martin Krupicka        : Initial AUTO-CI
   Lucas Lang             : DCDCAS
   Marvin Lechner         : AUTO-CI (C++ implementation), FIC-MRCC
   Dagmar Lenk            : GEPOL surface, SMD
   Dimitrios Liakos       : Extrapolation schemes; Compound Job, initial MDCI parallelization
   Dimitrios Manganas     : Further ROCIS development; embedding schemes
   Dimitrios Pantazis     : SARC Basis sets
   Anastasios Papadopoulos: AUTO-CI, single reference methods and gradients
   Taras Petrenko         : DFT Hessian,TD-DFT gradient, ASA, ECA, R-Raman, ABS, FL, XAS/XES, NRVS
   Peter Pinski           : DLPNO-MP2, DLPNO-MP2 Gradient
   Christoph Reimann      : Effective Core Potentials
   Marius Retegan         : Local ZFS, SOC
   Christoph Riplinger    : Optimizer, TS searches, QM/MM, DLPNO-CCSD(T), (RO)-DLPNO pert. Triples
   Tobias Risthaus        : Range-separated hybrids, TD-DFT gradient, RPA, STAB
   Michael Roemelt        : Original ROCIS implementation
   Masaaki Saitow         : Open-shell DLPNO-CCSD energy and density
   Barbara Sandhoefer     : DKH picture change effects
   Avijit Sen             : IP-ROCIS
   Kantharuban Sivalingam : CASSCF convergence, NEVPT2, FIC-MRCI
   Bernardo de Souza      : ESD, SOC TD-DFT
   Georgi Stoychev        : AutoAux, RI-MP2 NMR, DLPNO-MP2 response
   Willem Van den Heuvel  : Paramagnetic NMR
   Boris Wezisla          : Elementary symmetry handling
   Frank Wennmohs         : Technical directorship


 We gratefully acknowledge several colleagues who have allowed us to
 interface, adapt or use parts of their codes:
   Stefan Grimme, W. Hujo, H. Kruse, P. Pracht,  : VdW corrections, initial TS optimization,
                  C. Bannwarth, S. Ehlert          DFT functionals, gCP, sTDA/sTD-DF
   Ed Valeev, F. Pavosevic, A. Kumar             : LibInt (2-el integral package), F12 methods
   Garnet Chan, S. Sharma, J. Yang, R. Olivares  : DMRG
   Ulf Ekstrom                                   : XCFun DFT Library
   Mihaly Kallay                                 : mrcc  (arbitrary order and MRCC methods)
   Jiri Pittner, Ondrej Demel                    : Mk-CCSD
   Frank Weinhold                                : gennbo (NPA and NBO analysis)
   Christopher J. Cramer and Donald G. Truhlar   : smd solvation model
   Lars Goerigk                                  : TD-DFT with DH, B97 family of functionals
   V. Asgeirsson, H. Jonsson                     : NEB implementation
   FAccTs GmbH                                   : IRC, NEB, NEB-TS, DLPNO-Multilevel, CI-OPT
                                                   MM, QMMM, 2- and 3-layer-ONIOM, Crystal-QMMM,
                                                   LR-CPCM, SF, NACMEs, symmetry and pop. for TD-DFT,
                                                   nearIR, NL-DFT gradient (VV10), updates on ESD,
                                                   ML-optimized integration grids
   S Lehtola, MJT Oliveira, MAL Marques          : LibXC Library
   Liviu Ungur et al                             : ANISO software


 Your calculation uses the libint2 library for the computation of 2-el integrals
 For citations please refer to: http://libint.valeyev.net

 Your ORCA version has been built with support for libXC version: 5.1.0
 For citations please refer to: https://tddft.org/programs/libxc/

 This ORCA versions uses:
   CBLAS   interface :  Fast vector & matrix operations
   LAPACKE interface :  Fast linear algebra routines
   SCALAPACK package :  Parallel linear algebra routines
   Shared memory     :  Shared parallel matrices
   BLAS/LAPACK       :  OpenBLAS 0.3.15  USE64BITINT DYNAMIC_ARCH NO_AFFINITY SkylakeX SINGLE_THREADED
        Core in use  :  SkylakeX
   Copyright (c) 2011-2014, The OpenBLAS Project




***************************************
The coordinates will be read from file: reaction-4-prod-xtb.xyz
***************************************


Your calculation utilizes the geometrical counterpoise correction gCP
Please cite in your paper:
H.Kruse, S. Grimme J.Chem.Phys., 136, (2012), 154101 
   

Your calculation utilizes the atom-pairwise dispersion correction
with the Becke-Johnson damping scheme (D3BJ)
Cite in your paper:
S.Grimme, S.Ehrlich, L.Goerigk, J Comput Chem, (2011), 32, 1456–1465 
S.Grimme, J.Antony, S.Ehrlich and H.Krieg, J.Chem.Phys., 132, (2010), 154104 
   

Your calculation employs the composite approach PBEh-3c.
Please cite in your paper:
S. Grimme, J. G. Brandenburg, C. Bannwarth, A. Hansen J.Chem.Phys., 143, (2015), 054107 
   

================================================================================

cite the ECPs for Ir [Def2-ECP] as follows:
Ce-Yb(ecp-28): M. Dolg, H. Stoll, H.Preuss, J. Chem. Phys., 1989, 90, 1730-1734.
Y-Cd(ecp-28), Hf-Hg(ecp-46): D. Andrae,U. Haeussermann, M. Dolg, H. Stoll, H. Preuss, Theor. Chim. Acta, 1990, 77, 123-141.
In-Sb(ecp-28), Tl-Bi(ecp-46): B. Metz, H. Stoll, M. Dolg, J. Chem. Phys., 2000, 113, 2563-2569.
Te-Xe(ecp-28), Po-Rn(ecp-46): K. A. Peterson, D. Figgen, E. Goll, H. Stoll, M. Dolg, J. Chem. Phys., 2003, 119, 11113-11123.
Rb(ecp-28), Cs(ecp-46): T. Leininger, A. Nicklass, W. Kuechle, H. Stoll, M. Dolg, A. Bergner, Chem. Phys. Lett., 1996, 255, 274-280.
Sr(ecp-28), Ba(ecp-46): M. Kaupp, P. V. Schleyer, H. Stoll and H. Preuss, J. Chem. Phys., 1991, 94, 1360-1366.
La(ecp-46): M. Dolg, H. Stoll, A. Savin, H. Preuss, Theor. Chim. Acta, 1989, 75, 173-194.
Lu(ecp-28): X. Cao, M. Dolg, J. Chem. Phys., 2001, 115, 7348-7355.

ECP parameters for Ir [Def2-ECP] have been obtained from:
TURBOMOLE (7.0.2)

----- Orbital basis set information -----
Your calculation utilizes the basis: def2-mSVP

----- AuxJ basis set information -----
Your calculation utilizes the auxiliary basis: def2/J
   F. Weigend, Phys. Chem. Chem. Phys. 8, 1057 (2006).

================================================================================
                                        WARNINGS
                       Please study these warnings very carefully!
================================================================================


WARNING: Geometry Optimization
  ===> : Switching off AutoStart
         For restart on a previous wavefunction, please use MOREAD

WARNING: No Hueckel Guess possible with ECP basis!
  ===> : Switching to HCORE guess!

INFO   : the flag for use of the SHARK integral package has been found!

================================================================================
                                       INPUT FILE
================================================================================
NAME = reaction-4-prod-pbeh3c-orca_opt.inp
|  1> ! PBEh-3c OPT pal4
|  2> 
|  3> %geom
|  4>  maxiter 600
|  5> end 
|  6> 
|  7> *xyzfile 1 1 reaction-4-prod-xtb.xyz
|  8> 
|  9>                          ****END OF INPUT****
================================================================================

                       *****************************
                       * Geometry Optimization Run *
                       *****************************

Geometry optimization settings:
Update method            Update   .... BFGS
Choice of coordinates    CoordSys .... Z-matrix Internals
Initial Hessian          InHess   .... Almoef's Model

Convergence Tolerances:
Energy Change            TolE     ....  5.0000e-06 Eh
Max. Gradient            TolMAXG  ....  3.0000e-04 Eh/bohr
RMS Gradient             TolRMSG  ....  1.0000e-04 Eh/bohr
Max. Displacement        TolMAXD  ....  4.0000e-03 bohr
RMS Displacement         TolRMSD  ....  2.0000e-03 bohr
Strict Convergence                ....  False
------------------------------------------------------------------------------
                        ORCA OPTIMIZATION COORDINATE SETUP
------------------------------------------------------------------------------

The optimization will be done in new redundant internal coordinates
Making redundant internal coordinates   ...  (new redundants) done
Evaluating the initial hessian          ...  (Almloef) done
Evaluating the coordinates              ...  done
Calculating the B-matrix                .... done
Calculating the G-matrix                .... done
Diagonalizing the G-matrix              .... done
Small eigenvalue found = 7.486e-03
Small eigenvalue found = 1.289e-02
Small eigenvalue found = 2.326e-02
The first mode is                       ....  175
The number of degrees of freedom        ....  111

    -----------------------------------------------------------------
                    Redundant Internal Coordinates


    -----------------------------------------------------------------
         Definition                    Initial Value    Approx d2E/dq
    -----------------------------------------------------------------
      1. B(C   1,Ir  0)                  2.1670         0.083762   
      2. B(C   2,C   1)                  1.4437         0.512934   
      3. B(C   3,Ir  0)                  2.2383         0.064455   
      4. B(C   4,C   3)                  1.4067         0.587699   
      5. B(C   4,Ir  0)                  2.2101         0.071502   
      6. B(C   4,C   1)                  1.4345         0.530481   
      7. B(C   5,C   3)                  1.4430         0.514180   
      8. B(C   5,C   2)                  1.3812         0.645420   
      9. B(N   6,Ir  0)                  2.0742         0.105489   
     10. B(C   7,N   6)                  1.4550         0.440758   
     11. B(C   8,C   7)                  1.5315         0.371553   
     12. B(H   9,C   8)                  1.0857         0.365806   
     13. B(H  10,C   8)                  1.0877         0.363174   
     14. B(H  11,C   8)                  1.0868         0.364354   
     15. B(C  12,C   7)                  1.5273         0.377239   
     16. B(H  13,C   7)                  1.0945         0.354180   
     17. B(H  14,C  12)                  1.0863         0.365006   
     18. B(H  15,C  12)                  1.0869         0.364210   
     19. B(H  16,C  12)                  1.0874         0.363524   
     20. B(C  17,N   6)                  1.2943         0.795380   
     21. B(C  18,C  17)                  1.4123         0.575584   
     22. B(H  19,C  17)                  1.0819         0.371009   
     23. B(C  20,C  18)                  1.3955         0.612248   
     24. B(C  20,Ir  0)                  2.0329         0.137059   
     25. B(C  21,C  20)                  1.4095         0.581591   
     26. B(S  22,C  18)                  1.7325         0.478756   
     27. B(C  23,S  22)                  1.7072         0.525414   
     28. B(C  23,C  21)                  1.3714         0.669088   
     29. B(H  25,C  21)                  1.0755         0.379803   
     30. B(H  26,C  23)                  1.0728         0.383567   
     31. B(H  27,C   1)                  1.0793         0.374558   
     32. B(H  28,C   2)                  1.0759         0.379286   
     33. B(H  29,C   5)                  1.0763         0.378683   
     34. B(O  30,H  24)                  0.9846         0.474993   
     35. B(O  31,Ir  0)                  2.1911         0.068659   
     36. B(C  32,O  31)                  1.2276         1.016020   
     37. B(C  32,O  30)                  1.3037         0.768233   
     38. B(C  33,C  32)                  1.4919         0.429775   
     39. B(H  34,C  33)                  1.0859         0.365601   
     40. B(H  35,C  33)                  1.0902         0.359836   
     41. B(H  36,C  33)                  1.0864         0.364934   
     42. B(H  37,C   3)                  1.0785         0.375674   
     43. B(H  38,C   4)                  1.0773         0.377364   
     44. A(C   3,Ir  0,N   6)          162.2005         0.243507   
     45. A(C   1,Ir  0,O  31)          157.0547         0.237761   
     46. A(C   3,Ir  0,O  31)          100.2299         0.229196   
     47. A(C   3,Ir  0,C  20)          117.6285         0.254121   
     48. A(C   1,Ir  0,C   4)           38.2475         0.240216   
     49. A(N   6,Ir  0,O  31)           86.9072         0.244611   
     50. A(C   3,Ir  0,C   4)           36.8619         0.231509   
     51. A(C   1,Ir  0,C   3)           62.5262         0.236706   
     52. A(C  20,Ir  0,O  31)           91.1510         0.255300   
     53. A(N   6,Ir  0,C  20)           78.1561         0.272277   
     54. A(C   1,Ir  0,C  20)          109.9654         0.264209   
     55. A(C   1,Ir  0,N   6)          105.6702         0.252947   
     56. A(C   4,Ir  0,O  31)          133.4430         0.232527   
     57. A(C   4,Ir  0,N   6)          139.6116         0.247179   
     58. A(C   4,Ir  0,C  20)           96.4080         0.258044   
     59. A(C   2,C   1,C   4)          107.3761         0.408110   
     60. A(Ir  0,C   1,C   4)           72.5020         0.313491   
     61. A(C   2,C   1,H  27)          124.8679         0.344087   
     62. A(Ir  0,C   1,H  27)          129.0311         0.268452   
     63. A(C   4,C   1,H  27)          125.0530         0.346037   
     64. A(Ir  0,C   1,C   2)           79.0712         0.311788   
     65. A(C   1,C   2,C   5)          108.0826         0.422593   
     66. A(C   5,C   2,H  28)          126.5366         0.358467   
     67. A(C   1,C   2,H  28)          125.3478         0.344813   
     68. A(C   5,C   3,H  37)          124.6655         0.344400   
     69. A(Ir  0,C   3,C   5)           77.1035         0.299076   
     70. A(C   4,C   3,C   5)          108.1102         0.415774   
     71. A(Ir  0,C   3,H  37)          128.8423         0.258233   
     72. A(C   4,C   3,H  37)          125.8429         0.352243   
     73. A(Ir  0,C   3,C   4)           70.4776         0.305527   
     74. A(Ir  0,C   4,C   1)           69.2505         0.305593   
     75. A(C   3,C   4,H  38)          126.9281         0.352510   
     76. A(C   1,C   4,H  38)          125.8056         0.346471   
     77. A(Ir  0,C   4,H  38)          125.4665         0.262431   
     78. A(Ir  0,C   4,C   3)           72.6605         0.310673   
     79. A(C   1,C   4,C   3)          107.2068         0.418090   
     80. A(C   2,C   5,C   3)          108.4688         0.422777   
     81. A(C   3,C   5,H  29)          124.9343         0.344861   
     82. A(C   2,C   5,H  29)          126.5038         0.358370   
     83. A(C   7,N   6,C  17)          122.3983         0.421407   
     84. A(Ir  0,N   6,C  17)          116.8630         0.344256   
     85. A(Ir  0,N   6,C   7)          120.6127         0.312331   
     86. A(C  12,C   7,H  13)          108.2575         0.323956   
     87. A(C   8,C   7,H  13)          108.4377         0.323150   
     88. A(N   6,C   7,H  13)          106.1638         0.330377   
     89. A(C   8,C   7,C  12)          110.9356         0.363621   
     90. A(N   6,C   7,C  12)          113.9037         0.372097   
     91. A(N   6,C   7,C   8)          108.9069         0.371125   
     92. A(H  10,C   8,H  11)          108.7916         0.291766   
     93. A(H   9,C   8,H  11)          108.7816         0.292098   
     94. A(C   7,C   8,H  11)          110.6456         0.324656   
     95. A(H   9,C   8,H  10)          108.7725         0.291949   
     96. A(C   7,C   8,H  10)          110.1039         0.324483   
     97. A(C   7,C   8,H   9)          109.7051         0.324868   
     98. A(C   7,C  12,H  14)          108.7479         0.325563   
     99. A(H  15,C  12,H  16)          109.4414         0.291792   
    100. A(H  14,C  12,H  16)          108.2562         0.291893   
    101. A(C   7,C  12,H  16)          110.8780         0.325345   
    102. A(H  14,C  12,H  15)          107.7353         0.291979   
    103. A(C   7,C  12,H  15)          111.6674         0.325446   
    104. A(C  18,C  17,H  19)          122.0929         0.350265   
    105. A(N   6,C  17,H  19)          123.0249         0.367795   
    106. A(N   6,C  17,C  18)          114.8804         0.445035   
    107. A(C  20,C  18,S  22)          113.0125         0.436311   
    108. A(C  17,C  18,S  22)          130.0792         0.431491   
    109. A(C  17,C  18,C  20)          116.8943         0.427344   
    110. A(C  18,C  20,C  21)          110.6796         0.428140   
    111. A(Ir  0,C  20,C  21)          136.1540         0.345239   
    112. A(Ir  0,C  20,C  18)          113.1654         0.348236   
    113. A(C  23,C  21,H  25)          122.3435         0.360757   
    114. A(C  20,C  21,H  25)          125.0298         0.352272   
    115. A(C  20,C  21,C  23)          112.6124         0.435024   
    116. A(C  18,S  22,C  23)           89.8929         0.448047   
    117. A(S  22,C  23,H  26)          119.3065         0.364965   
    118. A(C  21,C  23,H  26)          126.8928         0.361364   
    119. A(C  21,C  23,S  22)          113.7973         0.450899   
    120. A(H  24,O  30,C  32)          113.4827         0.378113   
    121. A(Ir  0,O  31,C  32)          137.1850         0.333809   
    122. A(O  31,C  32,C  33)          121.7794         0.441244   
    123. A(O  30,C  32,C  33)          114.4301         0.419647   
    124. A(O  30,C  32,O  31)          123.7880         0.487428   
    125. A(H  35,C  33,H  36)          108.0808         0.291416   
    126. A(H  34,C  33,H  36)          111.2010         0.292145   
    127. A(C  32,C  33,H  36)          110.5174         0.332637   
    128. A(H  34,C  33,H  35)          108.2823         0.291500   
    129. A(C  32,C  33,H  35)          108.6164         0.331862   
    130. A(C  32,C  33,H  34)          110.0568         0.332738   
    131. D(C   4,C   1,Ir  0,C  20)     74.3920         0.001674   
    132. D(H  27,C   1,Ir  0,C   3)   -158.4600         0.001674   
    133. D(H  27,C   1,Ir  0,N   6)     35.9089         0.001674   
    134. D(C   2,C   1,Ir  0,C   4)    112.3206         0.001674   
    135. D(C   2,C   1,Ir  0,N   6)    -90.4616         0.001674   
    136. D(H  27,C   1,Ir  0,C   4)   -121.3088         0.001674   
    137. D(C   4,C   1,Ir  0,N   6)    157.2177         0.001674   
    138. D(C   2,C   1,Ir  0,C  20)   -173.2873         0.001674   
    139. D(H  27,C   1,Ir  0,C  20)    -46.9168         0.001674   
    140. D(C   4,C   1,Ir  0,C   3)    -37.1512         0.001674   
    141. D(C   2,C   1,Ir  0,C   3)     75.1694         0.001674   
    142. D(H  27,C   1,Ir  0,O  31)    157.1672         0.001674   
    143. D(C   2,C   1,Ir  0,O  31)     30.7967         0.001674   
    144. D(C   4,C   1,Ir  0,O  31)    -81.5239         0.001674   
    145. D(C   5,C   2,C   1,C   4)      6.9124         0.019443   
    146. D(C   5,C   2,C   1,Ir  0)    -60.6739         0.019443   
    147. D(H  28,C   2,C   1,C   4)   -171.1109         0.019443   
    148. D(C   5,C   2,C   1,H  27)    168.9973         0.019443   
    149. D(H  28,C   2,C   1,Ir  0)    121.3028         0.019443   
    150. D(H  28,C   2,C   1,H  27)     -9.0260         0.019443   
    151. D(C   4,C   3,Ir  0,C   1)     38.5517         0.001604   
    152. D(C   5,C   3,Ir  0,C   4)   -114.8045         0.001604   
    153. D(C   5,C   3,Ir  0,N   6)    -24.8407         0.001604   
    154. D(C   4,C   3,Ir  0,C  20)    -60.7839         0.001604   
    155. D(C   5,C   3,Ir  0,C   1)    -76.2527         0.001604   
    156. D(C   5,C   3,Ir  0,C  20)   -175.5883         0.001604   
    157. D(C   5,C   3,Ir  0,O  31)     87.6638         0.001604   
    158. D(C   4,C   3,Ir  0,O  31)   -157.5317         0.001604   
    159. D(C   4,C   3,Ir  0,N   6)     89.9638         0.001604   
    160. D(H  37,C   3,Ir  0,C   1)    159.3596         0.001604   
    161. D(H  37,C   3,Ir  0,C  20)     60.0240         0.001604   
    162. D(H  37,C   3,Ir  0,N   6)   -149.2283         0.001604   
    163. D(H  37,C   3,Ir  0,O  31)    -36.7238         0.001604   
    164. D(H  37,C   3,Ir  0,C   4)    120.8079         0.001604   
    165. D(H  38,C   4,C   3,Ir  0)    121.7174         0.027726   
    166. D(H  38,C   4,C   3,C   5)   -169.6966         0.027726   
    167. D(C   1,C   4,C   3,H  37)    174.6412         0.027726   
    168. D(C   1,C   4,C   3,Ir  0)    -60.9725         0.027726   
    169. D(Ir  0,C   4,C   3,H  37)   -124.3863         0.027726   
    170. D(Ir  0,C   4,C   3,C   5)     68.5860         0.027726   
    171. D(H  38,C   4,C   3,H  37)     -2.6689         0.027726   
    172. D(H  38,C   4,C   1,C   2)    168.4184         0.022365   
    173. D(C   3,C   4,C   1,H  27)   -170.9732         0.022365   
    174. D(C   3,C   4,C   1,Ir  0)     63.1946         0.022365   
    175. D(H  38,C   4,C   1,Ir  0)   -119.4568         0.022365   
    176. D(Ir  0,C   4,C   1,H  27)    125.8321         0.022365   
    177. D(Ir  0,C   4,C   1,C   2)    -72.1248         0.022365   
    178. D(H  38,C   4,Ir  0,O  31)    -92.1948         0.001628   
    179. D(H  38,C   4,Ir  0,C  20)      5.5179         0.001628   
    180. D(C   3,C   4,C   1,C   2)     -8.9302         0.022365   
    181. D(H  38,C   4,Ir  0,N   6)     84.7560         0.001628   
    182. D(H  38,C   4,Ir  0,C   3)   -123.3929         0.001628   
    183. D(H  38,C   4,Ir  0,C   1)    119.8835         0.001628   
    184. D(H  38,C   4,C   1,H  27)      6.3754         0.022365   
    185. D(C   3,C   4,Ir  0,O  31)     31.1981         0.001628   
    186. D(C   3,C   4,Ir  0,N   6)   -151.8511         0.001628   
    187. D(C   3,C   4,Ir  0,C   1)   -116.7236         0.001628   
    188. D(C   1,C   4,C   3,C   5)      7.6134         0.027726   
    189. D(C   1,C   4,Ir  0,O  31)    147.9217         0.001628   
    190. D(C   3,C   4,Ir  0,C  20)    128.9108         0.001628   
    191. D(C   1,C   4,Ir  0,N   6)    -35.1275         0.001628   
    192. D(C   1,C   4,Ir  0,C  20)   -114.3656         0.001628   
    193. D(C   1,C   4,Ir  0,C   3)    116.7236         0.001628   
    194. D(H  29,C   5,C   3,H  37)      6.0716         0.019540   
    195. D(H  29,C   5,C   3,C   4)    173.2896         0.019540   
    196. D(H  29,C   5,C   3,Ir  0)   -122.5323         0.019540   
    197. D(C   2,C   5,C   3,H  37)   -170.6083         0.019540   
    198. D(C   2,C   5,C   3,C   4)     -3.3903         0.019540   
    199. D(C   2,C   5,C   3,Ir  0)     60.7878         0.019540   
    200. D(H  29,C   5,C   2,H  28)     -0.8484         0.028976   
    201. D(H  29,C   5,C   2,C   1)   -178.8417         0.028976   
    202. D(C   3,C   5,C   2,H  28)    175.7654         0.028976   
    203. D(C   3,C   5,C   2,C   1)     -2.2279         0.028976   
    204. D(C  17,N   6,Ir  0,O  31)     90.0077         0.001793   
    205. D(C  17,N   6,Ir  0,C  20)     -1.8195         0.001793   
    206. D(C  17,N   6,Ir  0,C   4)    -87.7757         0.001793   
    207. D(C  17,N   6,Ir  0,C   3)   -155.5653         0.001793   
    208. D(C  17,N   6,Ir  0,C   1)   -109.4886         0.001793   
    209. D(C   7,N   6,Ir  0,O  31)    -86.0065         0.001793   
    210. D(C   7,N   6,Ir  0,C  20)   -177.8338         0.001793   
    211. D(C   7,N   6,Ir  0,C   4)     96.2101         0.001793   
    212. D(C   7,N   6,Ir  0,C   3)     28.4204         0.001793   
    213. D(C   7,N   6,Ir  0,C   1)     74.4972         0.001793   
    214. D(H  13,C   7,N   6,C  17)    144.7124         0.016566   
    215. D(H  13,C   7,N   6,Ir  0)    -39.4991         0.016566   
    216. D(C  12,C   7,N   6,C  17)     25.6838         0.016566   
    217. D(C  12,C   7,N   6,Ir  0)   -158.5277         0.016566   
    218. D(C   8,C   7,N   6,C  17)    -98.7142         0.016566   
    219. D(C   8,C   7,N   6,Ir  0)     77.0743         0.016566   
    220. D(H  11,C   8,C   7,H  13)     59.8225         0.011030   
    221. D(H  11,C   8,C   7,C  12)    178.5815         0.011030   
    222. D(H  11,C   8,C   7,N   6)    -55.2885         0.011030   
    223. D(H  10,C   8,C   7,H  13)   -179.8807         0.011030   
    224. D(H  10,C   8,C   7,C  12)    -61.1216         0.011030   
    225. D(H  10,C   8,C   7,N   6)     65.0084         0.011030   
    226. D(H   9,C   8,C   7,H  13)    -60.2043         0.011030   
    227. D(H   9,C   8,C   7,C  12)     58.5548         0.011030   
    228. D(H   9,C   8,C   7,N   6)   -175.3152         0.011030   
    229. D(H  16,C  12,C   7,C   8)    172.3541         0.011351   
    230. D(H  16,C  12,C   7,N   6)     49.0524         0.011351   
    231. D(H  15,C  12,C   7,H  13)    168.8879         0.011351   
    232. D(H  15,C  12,C   7,C   8)     50.0201         0.011351   
    233. D(H  15,C  12,C   7,N   6)    -73.2816         0.011351   
    234. D(H  14,C  12,C   7,H  13)     50.1377         0.011351   
    235. D(H  14,C  12,C   7,C   8)    -68.7300         0.011351   
    236. D(H  16,C  12,C   7,H  13)    -68.7782         0.011351   
    237. D(H  14,C  12,C   7,N   6)    167.9683         0.011351   
    238. D(H  19,C  17,N   6,C   7)     -2.2807         0.053859   
    239. D(H  19,C  17,N   6,Ir  0)   -178.2180         0.053859   
    240. D(C  18,C  17,N   6,C   7)    178.2067         0.053859   
    241. D(C  18,C  17,N   6,Ir  0)      2.2694         0.053859   
    242. D(S  22,C  18,C  17,H  19)     -2.4124         0.022745   
    243. D(S  22,C  18,C  17,N   6)    177.1052         0.022745   
    244. D(C  20,C  18,C  17,H  19)    179.0555         0.022745   
    245. D(C  20,C  18,C  17,N   6)     -1.4269         0.022745   
    246. D(Ir  0,C  20,C  18,C  17)     -0.1063         0.025900   
    247. D(C  21,C  20,Ir  0,O  31)     94.7720         0.001936   
    248. D(C  21,C  20,Ir  0,N   6)   -178.6306         0.001936   
    249. D(C  21,C  20,Ir  0,C   4)    -39.2036         0.001936   
    250. D(C  21,C  20,Ir  0,C   3)     -7.4097         0.001936   
    251. D(C  21,C  20,Ir  0,C   1)    -76.0721         0.001936   
    252. D(C  18,C  20,Ir  0,O  31)    -85.6529         0.001936   
    253. D(C  18,C  20,Ir  0,N   6)      0.9444         0.001936   
    254. D(C  18,C  20,Ir  0,C   4)    140.3715         0.001936   
    255. D(C  18,C  20,Ir  0,C   3)    172.1653         0.001936   
    256. D(Ir  0,C  20,C  18,S  22)   -178.8860         0.025900   
    257. D(C  18,C  20,Ir  0,C   1)    103.5030         0.001936   
    258. D(C  21,C  20,C  18,S  22)      0.7993         0.025900   
    259. D(C  21,C  20,C  18,C  17)    179.5791         0.025900   
    260. D(H  25,C  21,C  20,C  18)   -179.3474         0.023245   
    261. D(H  25,C  21,C  20,Ir  0)      0.2350         0.023245   
    262. D(C  23,C  21,C  20,C  18)     -0.7010         0.023245   
    263. D(C  23,C  21,C  20,Ir  0)    178.8814         0.023245   
    264. D(C  23,S  22,C  18,C  20)     -0.5380         0.004883   
    265. D(C  23,S  22,C  18,C  17)   -179.1156         0.004883   
    266. D(H  26,C  23,S  22,C  18)    179.4933         0.005612   
    267. D(C  21,C  23,S  22,C  18)      0.1281         0.005612   
    268. D(H  26,C  23,C  21,H  25)     -0.3127         0.031303   
    269. D(H  26,C  23,C  21,C  20)   -179.0008         0.031303   
    270. D(S  22,C  23,C  21,H  25)    178.9951         0.031303   
    271. D(S  22,C  23,C  21,C  20)      0.3070         0.031303   
    272. D(C  32,O  31,Ir  0,C  20)    -23.1898         0.001617   
    273. D(C  32,O  31,Ir  0,N   6)   -101.2624         0.001617   
    274. D(C  32,O  31,Ir  0,C   4)     76.7595         0.001617   
    275. D(C  32,O  31,Ir  0,C   3)     95.1662         0.001617   
    276. D(C  32,O  31,Ir  0,C   1)    134.2516         0.001617   
    277. D(C  33,C  32,O  31,Ir  0)   -175.5206         0.084979   
    278. D(O  30,C  32,O  31,Ir  0)      3.8823         0.084979   
    279. D(C  33,C  32,O  30,H  24)    178.9599         0.045062   
    280. D(O  31,C  32,O  30,H  24)     -0.4826         0.045062   
    281. D(H  36,C  33,C  32,O  31)    -32.1963         0.013642   
    282. D(H  36,C  33,C  32,O  30)    148.3488         0.013642   
    283. D(H  35,C  33,C  32,O  31)     86.2111         0.013642   
    284. D(H  35,C  33,C  32,O  30)    -93.2439         0.013642   
    285. D(H  34,C  33,C  32,O  31)   -155.4052         0.013642   
    286. D(H  34,C  33,C  32,O  30)     25.1398         0.013642   
    -----------------------------------------------------------------

Number of atoms                         .... 39
Number of degrees of freedom            .... 286

         *************************************************************
         *                GEOMETRY OPTIMIZATION CYCLE   1            *
         *************************************************************
---------------------------------
CARTESIAN COORDINATES (ANGSTROEM)
---------------------------------
  Ir     0.537080   -0.812770    0.357670
  C      0.426730   -2.968410    0.549750
  C     -0.186720   -2.551490    1.788350
  C      1.978200   -1.799900    1.757240
  C      1.811780   -2.600130    0.612410
  C      0.742040   -1.819070    2.501490
  N     -1.215180   -0.244850   -0.595960
  C     -2.480860   -0.238890    0.121670
  C     -2.536560    1.000720    1.019270
  H     -3.438890    0.975610    1.622560
  H     -2.547060    1.902470    0.411160
  H     -1.674530    1.034240    1.680270
  C     -3.707210   -0.311090   -0.785870
  H     -2.473580   -1.128200    0.759660
  H     -4.581910   -0.516130   -0.175180
  H     -3.878450    0.628570   -1.304610
  H     -3.604230   -1.112650   -1.513460
  C     -1.107990    0.172550   -1.816400
  C      0.201030    0.132900   -2.345150
  H     -1.952280    0.519260   -2.397280
  C      1.212370   -0.314520   -1.493980
  C      2.457320   -0.310270   -2.154880
  S      0.775800    0.527250   -3.931210
  C      2.362070    0.112010   -3.456120
  H      2.198180    1.470870   -0.818200
  H      3.389540   -0.620610   -1.717440
  H      3.160670    0.188990   -4.168330
  H      0.007790   -3.691110   -0.133660
  H     -1.183530   -2.803640    2.105030
  H      0.601660   -1.381190    3.474620
  O      2.141720    2.319190   -0.321570
  O      0.706620    1.266600    1.027350
  C      1.340960    2.267320    0.705970
  C      1.258270    3.534850    1.488370
  H      1.508660    4.380510    0.854900
  H      1.983310    3.489980    2.301290
  H      0.269770    3.649510    1.924170
  H      2.916520   -1.426780    2.135980
  H      2.580910   -2.921720   -0.069860

----------------------------
CARTESIAN COORDINATES (A.U.)
----------------------------
  NO LB      ZA    FRAG     MASS         X           Y           Z
   0 Ir   17.0000*   0   192.220    1.014934   -1.535913    0.675898
   1 C     6.0000    0    12.011    0.806403   -5.609482    1.038877
   2 C     6.0000    0    12.011   -0.352850   -4.821617    3.379492
   3 C     6.0000    0    12.011    3.738256   -3.401318    3.320702
   4 C     6.0000    0    12.011    3.423768   -4.913534    1.157287
   5 C     6.0000    0    12.011    1.402252   -3.437544    4.727131
   6 N     7.0000    0    14.007   -2.296357   -0.462699   -1.126201
   7 C     6.0000    0    12.011   -4.688146   -0.451437    0.229923
   8 C     6.0000    0    12.011   -4.793404    1.891087    1.926141
   9 H     1.0000    0     1.008   -6.498560    1.843636    3.066194
  10 H     1.0000    0     1.008   -4.813246    3.595147    0.776980
  11 H     1.0000    0     1.008   -3.164403    1.954430    3.175250
  12 C     6.0000    0    12.011   -7.005612   -0.587875   -1.485079
  13 H     1.0000    0     1.008   -4.674389   -2.131989    1.435549
  14 H     1.0000    0     1.008   -8.658555   -0.975344   -0.331042
  15 H     1.0000    0     1.008   -7.329208    1.187825   -2.465356
  16 H     1.0000    0     1.008   -6.811008   -2.102604   -2.860025
  17 C     6.0000    0    12.011   -2.093798    0.326072   -3.432499
  18 C     6.0000    0    12.011    0.379892    0.251145   -4.431691
  19 H     1.0000    0     1.008   -3.689275    0.981259   -4.530203
  20 C     6.0000    0    12.011    2.291047   -0.594357   -2.823213
  21 C     6.0000    0    12.011    4.643662   -0.586325   -4.072133
  22 S    16.0000    0    32.060    1.466050    0.996358   -7.428910
  23 C     6.0000    0    12.011    4.463665    0.211668   -6.531120
  24 H     1.0000    0     1.008    4.153958    2.779541   -1.546174
  25 H     1.0000    0     1.008    6.405302   -1.172783   -3.245491
  26 H     1.0000    0     1.008    5.972801    0.357139   -7.877002
  27 H     1.0000    0     1.008    0.014721   -6.975187   -0.252581
  28 H     1.0000    0     1.008   -2.236548   -5.298112    3.977930
  29 H     1.0000    0     1.008    1.136973   -2.610071    6.566080
  30 O     8.0000    0    15.999    4.047264    4.382634   -0.607679
  31 O     8.0000    0    15.999    1.335318    2.393527    1.941410
  32 C     6.0000    0    12.011    2.534047    4.284614    1.334090
  33 C     6.0000    0    12.011    2.377786    6.679898    2.812612
  34 H     1.0000    0     1.008    2.850954    8.277964    1.615527
  35 H     1.0000    0     1.008    3.747913    6.595106    4.348808
  36 H     1.0000    0     1.008    0.509791    6.896574    3.636154
  37 H     1.0000    0     1.008    5.511424   -2.696223    4.036417
  38 H     1.0000    0     1.008    4.877213   -5.521251   -0.132016
* core charge reduced due to ECP

--------------------------------
INTERNAL COORDINATES (ANGSTROEM)
--------------------------------
 Ir     0   0   0     0.000000000000     0.00000000     0.00000000
 C      1   0   0     2.166992306978     0.00000000     0.00000000
 C      2   1   0     1.443701197928    79.07124212     0.00000000
 C      1   2   3     2.238313801995    62.52624263    75.16942769
 C      4   1   2     1.406662503303    70.47757424    38.55174884
 C      3   2   1     1.381159966695   108.08260719   299.32609571
 N      1   2   3     2.074212720745   105.67016636   269.53837285
 C      7   1   2     1.454982543160   120.61265278    74.49715720
 C      8   7   1     1.531476804297   108.90693122    77.07427538
 H      9   8   7     1.085720389926   109.70509676   184.68481741
 H      9   8   7     1.087686114925   110.10391830    65.00841249
 H      9   8   7     1.086802793197   110.64562119   304.71154268
 C      8   7   1     1.527342795217   113.90365646   201.47227322
 H      8   7   1     1.094511998381   106.16381642   320.50086527
 H     13   8   7     1.086316605645   108.74786271   167.96829277
 H     13   8   7     1.086910870679   111.66741888   286.71842773
 H     13   8   7     1.087423800595   110.87803317    49.05235525
 C      7   1   2     1.294289863091   116.86296791   250.51143032
 C     18   7   1     1.412332129989   114.88037206     2.26943011
 H     18   7   1     1.081875687221   123.02487814   181.78199627
 C     19  18   7     1.395522705261   116.89432764   358.57308403
 C     21  19  18     1.409506074836   110.67956594   179.57905566
 S     19  18   7     1.732471875385   130.07919951   177.10515372
 C     22  21  19     1.371356444729   112.61235377   359.29904908
 H     21  19  18     2.148515165550   104.94769822   258.79028973
 H     22  21  19     1.075499324779   125.02984130   180.65261638
 H     24  22  21     1.072814506101   126.89277874   180.99917853
 H      2   1   3     1.079284597175   129.03109603   126.37054560
 H      3   2   1     1.075869890368   125.34783756   121.30281173
 H      6   3   2     1.076302669187   126.50379467   181.15832254
 O     25  21  19     0.984619678302   148.02634483    63.41603392
 O      1   2   3     2.191117228927   157.05469984    30.79670419
 C     32   1   2     1.227645249410   137.18497547   134.25159779
 C     33  32   1     1.491851097462   121.77941885   184.47937641
 H     34  33  32     1.085873026003   110.05678775   204.59476060
 H     34  33  32     1.090199635342   108.61637804    86.21108485
 H     34  33  32     1.086370473457   110.51743155   327.80372815
 H      4   1   2     1.078474359640   128.84228005   159.35960572
 H      5   4   1     1.077252727033   126.92814388   121.71743029

---------------------------
INTERNAL COORDINATES (A.U.)
---------------------------
 Ir     0   0   0     0.000000000000     0.00000000     0.00000000
 C      1   0   0     4.095021994502     0.00000000     0.00000000
 C      2   1   0     2.728199883299    79.07124212     0.00000000
 C      1   2   3     4.229800087546    62.52624263    75.16942769
 C      4   1   2     2.658206894100    70.47757424    38.55174884
 C      3   2   1     2.610014084189   108.08260719   299.32609571
 N      1   2   3     3.919693985704   105.67016636   269.53837285
 C      7   1   2     2.749518536208   120.61265278    74.49715720
 C      8   7   1     2.894071740574   108.90693122    77.07427538
 H      9   8   7     2.051714194973   109.70509676   184.68481741
 H      9   8   7     2.055428876876   110.10391830    65.00841249
 H      9   8   7     2.053759640722   110.64562119   304.71154268
 C      8   7   1     2.886259595577   113.90365646   201.47227322
 H      8   7   1     2.068327927231   106.16381642   320.50086527
 H     13   8   7     2.052840879400   108.74786271   167.96829277
 H     13   8   7     2.053963877565   111.66741888   286.71842773
 H     13   8   7     2.054933174632   110.87803317    49.05235525
 C      7   1   2     2.445853379152   116.86296791   250.51143032
 C     18   7   1     2.668920935817   114.88037206     2.26943011
 H     18   7   1     2.044448759796   123.02487814   181.78199627
 C     19  18   7     2.637155726613   116.89432764   358.57308403
 C     21  19  18     2.663580465539   110.67956594   179.57905566
 S     19  18   7     3.273897379199   130.07919951   177.10515372
 C     22  21  19     2.591488112526   112.61235377   359.29904908
 H     21  19  18     4.060105257467   104.94769822   258.79028973
 H     22  21  19     2.032399181049   125.02984130   180.65261638
 H     24  22  21     2.027325609028   126.89277874   180.99917853
 H      2   1   3     2.039552309221   129.03109603   126.37054560
 H      3   2   1     2.033099448527   125.34783756   121.30281173
 H      6   3   2     2.033917281973   126.50379467   181.15832254
 O     25  21  19     1.860661538061   148.02634483    63.41603392
 O      1   2   3     4.140611489988   157.05469984    30.79670419
 C     32   1   2     2.319913310995   137.18497547   134.25159779
 C     33  32   1     2.819190006794   121.77941885   184.47937641
 H     34  33  32     2.052002635357   110.05678775   204.59476060
 H     34  33  32     2.060178742097   108.61637804    86.21108485
 H     34  33  32     2.052942674813   110.51743155   327.80372815
 H      4   1   2     2.038021182175   128.84228005   159.35960572
 H      5   4   1     2.035712631112   126.92814388   121.71743029

---------------------
BASIS SET INFORMATION
---------------------
There are 6 groups of distinct atoms

 Group   1 Type Ir  : 7s6p5d1f contracted to 6s3p2d1f pattern {211111/411/41/1}
 Group   2 Type C   : 8s4p1d contracted to 4s2p1d pattern {5111/31/1}
 Group   3 Type N   : 8s4p1d contracted to 4s2p1d pattern {5111/31/1}
 Group   4 Type H   : 4s contracted to 2s pattern {31}
 Group   5 Type S   : 10s7p1d contracted to 4s3p1d pattern {5311/511/1}
 Group   6 Type O   : 8s4p1d contracted to 4s2p1d pattern {5111/31/1}

Atom   0Ir   basis set group =>   1
Atom   1C    basis set group =>   2
Atom   2C    basis set group =>   2
Atom   3C    basis set group =>   2
Atom   4C    basis set group =>   2
Atom   5C    basis set group =>   2
Atom   6N    basis set group =>   3
Atom   7C    basis set group =>   2
Atom   8C    basis set group =>   2
Atom   9H    basis set group =>   4
Atom  10H    basis set group =>   4
Atom  11H    basis set group =>   4
Atom  12C    basis set group =>   2
Atom  13H    basis set group =>   4
Atom  14H    basis set group =>   4
Atom  15H    basis set group =>   4
Atom  16H    basis set group =>   4
Atom  17C    basis set group =>   2
Atom  18C    basis set group =>   2
Atom  19H    basis set group =>   4
Atom  20C    basis set group =>   2
Atom  21C    basis set group =>   2
Atom  22S    basis set group =>   5
Atom  23C    basis set group =>   2
Atom  24H    basis set group =>   4
Atom  25H    basis set group =>   4
Atom  26H    basis set group =>   4
Atom  27H    basis set group =>   4
Atom  28H    basis set group =>   4
Atom  29H    basis set group =>   4
Atom  30O    basis set group =>   6
Atom  31O    basis set group =>   6
Atom  32C    basis set group =>   2
Atom  33C    basis set group =>   2
Atom  34H    basis set group =>   4
Atom  35H    basis set group =>   4
Atom  36H    basis set group =>   4
Atom  37H    basis set group =>   4
Atom  38H    basis set group =>   4
---------------------------------
AUXILIARY/J BASIS SET INFORMATION
---------------------------------
There are 6 groups of distinct atoms

 Group   1 Type Ir  : 11s5p5d3f3g contracted to 8s5p5d2f3g pattern {41111111/11111/11111/21/111}
 Group   2 Type C   : 12s5p4d2f1g contracted to 6s4p3d1f1g pattern {711111/2111/211/2/1}
 Group   3 Type N   : 12s5p4d2f1g contracted to 6s4p3d1f1g pattern {711111/2111/211/2/1}
 Group   4 Type H   : 5s2p1d contracted to 3s1p1d pattern {311/2/1}
 Group   5 Type S   : 14s5p5d2f1g contracted to 8s4p3d1f1g pattern {71111111/2111/311/2/1}
 Group   6 Type O   : 12s5p4d2f1g contracted to 6s4p3d1f1g pattern {711111/2111/211/2/1}

Atom   0Ir   basis set group =>   1
Atom   1C    basis set group =>   2
Atom   2C    basis set group =>   2
Atom   3C    basis set group =>   2
Atom   4C    basis set group =>   2
Atom   5C    basis set group =>   2
Atom   6N    basis set group =>   3
Atom   7C    basis set group =>   2
Atom   8C    basis set group =>   2
Atom   9H    basis set group =>   4
Atom  10H    basis set group =>   4
Atom  11H    basis set group =>   4
Atom  12C    basis set group =>   2
Atom  13H    basis set group =>   4
Atom  14H    basis set group =>   4
Atom  15H    basis set group =>   4
Atom  16H    basis set group =>   4
Atom  17C    basis set group =>   2
Atom  18C    basis set group =>   2
Atom  19H    basis set group =>   4
Atom  20C    basis set group =>   2
Atom  21C    basis set group =>   2
Atom  22S    basis set group =>   5
Atom  23C    basis set group =>   2
Atom  24H    basis set group =>   4
Atom  25H    basis set group =>   4
Atom  26H    basis set group =>   4
Atom  27H    basis set group =>   4
Atom  28H    basis set group =>   4
Atom  29H    basis set group =>   4
Atom  30O    basis set group =>   6
Atom  31O    basis set group =>   6
Atom  32C    basis set group =>   2
Atom  33C    basis set group =>   2
Atom  34H    basis set group =>   4
Atom  35H    basis set group =>   4
Atom  36H    basis set group =>   4
Atom  37H    basis set group =>   4
Atom  38H    basis set group =>   4
-------------------------
ECP PARAMETER INFORMATION
-------------------------

 Group 1, Type Ir ECP Def2-ECP (replacing 60 core electrons, lmax=3)

Atom   0Ir   ECP group =>   1



           ************************************************************
           *        Program running with 4 parallel MPI-processes     *
           *              working on a common directory               *
           ************************************************************
------------------------------------------------------------------------------
                           ORCA GTO INTEGRAL CALCULATION
                           -- RI-GTO INTEGRALS CHOSEN --
------------------------------------------------------------------------------
------------------------------------------------------------------------------
                   ___                                                        
                  /   \      - P O W E R E D   B Y -                         
                 /     \                                                     
                 |  |  |   _    _      __       _____    __    __             
                 |  |  |  | |  | |    /  \     |  _  \  |  |  /  |          
                  \  \/   | |  | |   /    \    | | | |  |  | /  /          
                 / \  \   | |__| |  /  /\  \   | |_| |  |  |/  /          
                |  |  |   |  __  | /  /__\  \  |    /   |      \           
                |  |  |   | |  | | |   __   |  |    \   |  |\   \          
                \     /   | |  | | |  |  |  |  | |\  \  |  | \   \       
                 \___/    |_|  |_| |__|  |__|  |_| \__\ |__|  \__/        
                                                                              
                      - O R C A' S   B I G   F R I E N D -                    
                                      &                                       
                       - I N T E G R A L  F E E D E R -                       
                                                                              
 v1 FN, 2020, v2 2021                                                         
------------------------------------------------------------------------------


Reading SHARK input file reaction-4-prod-pbeh3c-orca_opt.SHARKINP.tmp ... ok
----------------------
SHARK INTEGRAL PACKAGE
----------------------

Number of atoms                             ...     39
Number of basis functions                   ...    358
Number of shells                            ...    184
Maximum angular momentum                    ...      3
Integral batch strategy                     ... SHARK/LIBINT Hybrid
RI-J (if used) integral strategy            ... SPLIT-RIJ (Revised 2003 algorithm where possible)
Printlevel                                  ...      1
Contraction scheme used                     ... SEGMENTED contraction
Coulomb Range Separation                    ... NOT USED
Exchange Range Separation                   ... NOT USED
Finite Nucleus Model                        ... NOT USED
Auxiliary Coulomb fitting basis             ... AVAILABLE
   # of basis functions in Aux-J            ...   1231
   # of shells in Aux-J                     ...    405
   Maximum angular momentum in Aux-J        ...      4
Auxiliary J/K fitting basis                 ... NOT available
Auxiliary Correlation fitting basis         ... NOT available
Auxiliary 'external' fitting basis          ... NOT available
Integral threshold                          ...     2.500000e-11
Primitive cut-off                           ...     2.500000e-12
Primitive pair pre-selection threshold      ...     2.500000e-12

Calculating pre-screening integrals         ... done (  0.1 sec) Dimension = 184
Organizing shell pair data                  ... done (  0.1 sec)
Shell pair information
Total number of shell pairs                 ...     17020
Shell pairs after pre-screening             ...     12819
Total number of primitive shell pairs       ...     60705
Primitive shell pairs kept                  ...     28809
          la=0 lb=0:   4908 shell pairs
          la=1 lb=0:   4220 shell pairs
          la=1 lb=1:    853 shell pairs
          la=2 lb=0:   1719 shell pairs
          la=2 lb=1:    778 shell pairs
          la=2 lb=2:    168 shell pairs
          la=3 lb=0:    110 shell pairs
          la=3 lb=1:     41 shell pairs
          la=3 lb=2:     21 shell pairs
          la=3 lb=3:      1 shell pairs

Calculating one electron integrals          ... done (  0.0 sec)
Calculating ECP integrals                   ... done (  0.9 sec)
Calculating RI/J V-Matrix + Cholesky decomp.... done (  0.1 sec)
Calculating Nuclear repulsion               ... done (  0.0 sec) ENN=   2008.683805861142 Eh

SHARK setup successfully completed in   1.4 seconds

Maximum memory used throughout the entire GTOINT-calculation: 27.0 MB


           ************************************************************
           *        Program running with 4 parallel MPI-processes     *
           *              working on a common directory               *
           ************************************************************
-------------------------------------------------------------------------------
                                 ORCA SCF
-------------------------------------------------------------------------------

------------
SCF SETTINGS
------------
Hamiltonian:
 Density Functional     Method          .... DFT(GTOs)
 Exchange Functional    Exchange        .... PBE
   PBE kappa parameter   XKappa         ....  1.024500
   PBE mue parameter    XMuePBE         ....  0.123457
 Correlation Functional Correlation     .... PBE
   PBE beta parameter  CBetaPBE         ....  0.030000
 LDA part of GGA corr.  LDAOpt          .... PW91-LDA
 Gradients option       PostSCFGGA      .... off
 Hybrid DFT is turned on
   Fraction HF Exchange ScalHFX         ....  0.420000
   Scaling of DF-GGA-X  ScalDFX         ....  0.580000
   Scaling of DF-GGA-C  ScalDFC         ....  1.000000
   Scaling of DF-LDA-C  ScalLDAC        ....  1.000000
   Perturbative correction              ....  0.000000
   Density functional embedding theory  .... OFF
 RI-approximation to the Coulomb term is turned on
   Number of AuxJ basis functions       .... 1231
   RIJ-ON(X) (HFX calculated with O(N)) .... on
   Number of AuxJ basis functions       .... 1231
   RIJ-COSX (HFX calculated with COS-X)).... on


General Settings:
 Integral files         IntName         .... reaction-4-prod-pbeh3c-orca_opt
 Hartree-Fock type      HFTyp           .... RHF
 Total Charge           Charge          ....    1
 Multiplicity           Mult            ....    1
 Number of Electrons    NEL             ....  164
 Basis Dimension        Dim             ....  358
 Nuclear Repulsion      ENuc            ....   2008.6838058611 Eh

Convergence Acceleration:
 DIIS                   CNVDIIS         .... on
   Start iteration      DIISMaxIt       ....    12
   Startup error        DIISStart       ....  0.200000
   # of expansion vecs  DIISMaxEq       ....     5
   Bias factor          DIISBfac        ....   1.050
   Max. coefficient     DIISMaxC        ....  10.000
 Trust-Rad. Augm. Hess. CNVTRAH         .... auto
   Auto Start mean grad. ratio tolernc. ....  1.125000
   Auto Start start iteration           ....    20
   Auto Start num. interpolation iter.  ....    10
   Max. Number of Micro iterations      ....    16
   Max. Number of Macro iterations      .... Maxiter - #DIIS iter
   Number of Davidson start vectors     ....     2
   Converg. threshold I  (grad. norm)   ....   1.000e-05
   Converg. threshold II (energy diff.) ....   1.000e-08
   Grad. Scal. Fac. for Micro threshold ....   0.100
   Minimum threshold for Micro iter.    ....   0.010
   NR start threshold (gradient norm)   ....   0.001
   Initial trust radius                 ....   0.400
   Minimum AH scaling param. (alpha)    ....   1.000
   Maximum AH scaling param. (alpha)    .... 1000.000
   Orbital update algorithm             .... Taylor
   White noise on init. David. guess    .... on
   Maximum white noise                  ....   0.010
   Quad. conv. algorithm                .... NR
   COSX micro iterations for RIJONX calc.... off
 SOSCF                  CNVSOSCF        .... off
 Level Shifting         CNVShift        .... on
   Level shift para.    LevelShift      ....    0.2500
   Turn off err/grad.   ShiftErr        ....    0.0010
 Zerner damping         CNVZerner       .... off
 Static damping         CNVDamp         .... on
   Fraction old density DampFac         ....    0.7000
   Max. Damping (<1)    DampMax         ....    0.9800
   Min. Damping (>=0)   DampMin         ....    0.0000
   Turn off err/grad.   DampErr         ....    0.1000
 Fernandez-Rico         CNVRico         .... off

SCF Procedure:
 Maximum # iterations   MaxIter         ....   125
 SCF integral mode      SCFMode         .... Direct
   Integral package                     .... SHARK and LIBINT hybrid scheme
 Reset frequency        DirectResetFreq ....    20
 Integral Threshold     Thresh          ....  2.500e-11 Eh
 Primitive CutOff       TCut            ....  2.500e-12 Eh

Convergence Tolerance:
 Convergence Check Mode ConvCheckMode   .... Total+1el-Energy
 Convergence forced     ConvForced      .... 0
 Energy Change          TolE            ....  1.000e-08 Eh
 1-El. energy change                    ....  1.000e-05 Eh
 DIIS Error             TolErr          ....  5.000e-07


Diagonalization of the overlap matrix:
Smallest eigenvalue                        ... 9.536e-04
Time for diagonalization                   ...    0.020 sec
Threshold for overlap eigenvalues          ... 1.000e-08
Number of eigenvalues below threshold      ... 0
Time for construction of square roots      ...    0.010 sec
Total time needed                          ...    0.031 sec

--------------------
INITIAL GUESS: HCORE
--------------------
                      -----------------
                      INTIAL GUESS DONE 
                      -----------------
-------------------
DFT GRID GENERATION
-------------------

General Integration Accuracy     IntAcc      ... 4.159
Radial Grid Type                 RadialGrid  ... OptM3 with GC (2021)
Angular Grid (max. ang.)         AngularGrid ... 3 (Lebedev-194)
Angular grid pruning method      GridPruning ... 4 (adaptive)
Weight generation scheme         WeightScheme... Becke
Basis function cutoff            BFCut       ... 1.0000e-11
Integration weight cutoff        WCut        ... 1.0000e-14
Angular grids for H and He will be reduced by one unit
Partially contracted basis set               ... off
Rotationally invariant grid construction     ... off

Total number of grid points                  ...    93464
Total number of batches                      ...     1480
Average number of points per batch           ...       63
Average number of grid points per atom       ...     2397
Time for grid setup =    0.640 sec

--------------------
COSX GRID GENERATION
--------------------

GRIDX 1
-------
General Integration Accuracy     IntAcc      ... 3.816
Radial Grid Type                 RadialGrid  ... OptM3 with GC (2021)
Angular Grid (max. ang.)         AngularGrid ... 1 (Lebedev-50)
Angular grid pruning method      GridPruning ... 4 (adaptive)
Weight generation scheme         WeightScheme... Becke
Basis function cutoff            BFCut       ... 1.0000e-11
Integration weight cutoff        WCut        ... 1.0000e-14
Angular grids for H and He will be reduced by one unit
Partially contracted basis set               ... on
Rotationally invariant grid construction     ... off

Total number of grid points                  ...    23201
Total number of batches                      ...      382
Average number of points per batch           ...       60
Average number of grid points per atom       ...      595
UseSFitting                                  ... on

GRIDX 2
-------
General Integration Accuracy     IntAcc      ... 4.020
Radial Grid Type                 RadialGrid  ... OptM3 with GC (2021)
Angular Grid (max. ang.)         AngularGrid ... 2 (Lebedev-110)
Angular grid pruning method      GridPruning ... 4 (adaptive)
Weight generation scheme         WeightScheme... Becke
Basis function cutoff            BFCut       ... 1.0000e-11
Integration weight cutoff        WCut        ... 1.0000e-14
Angular grids for H and He will be reduced by one unit
Partially contracted basis set               ... on
Rotationally invariant grid construction     ... off

Total number of grid points                  ...    50379
Total number of batches                      ...      808
Average number of points per batch           ...       62
Average number of grid points per atom       ...     1292
UseSFitting                                  ... on

GRIDX 3
-------
General Integration Accuracy     IntAcc      ... 4.338
Radial Grid Type                 RadialGrid  ... OptM3 with GC (2021)
Angular Grid (max. ang.)         AngularGrid ... 3 (Lebedev-194)
Angular grid pruning method      GridPruning ... 4 (adaptive)
Weight generation scheme         WeightScheme... Becke
Basis function cutoff            BFCut       ... 1.0000e-11
Integration weight cutoff        WCut        ... 1.0000e-14
Angular grids for H and He will be reduced by one unit
Partially contracted basis set               ... on
Rotationally invariant grid construction     ... off

Total number of grid points                  ...   109058
Total number of batches                      ...     1724
Average number of points per batch           ...       63
Average number of grid points per atom       ...     2796
UseSFitting                                  ... on

Time for X-Grid setup             =    1.664 sec

--------------
SCF ITERATIONS
--------------
ITER       Energy         Delta-E        Max-DP      RMS-DP      [F,P]     Damp
               ***  Starting incremental Fock matrix formation  ***
  0   -822.4791756196   0.00000000000019.25257712  0.13102582  2.6347182 0.7000
  1  -1084.6755627488-262.196387129131 6.92116714  0.09599618  1.5162760 0.7000
  2  -1163.2818844417 -78.606321692911 4.47088352  0.05283329  1.0650950 0.7000
  3  -1191.8006152327 -28.518730791039 3.48461209  0.04075302  0.7543698 0.7000
  4  -1209.6375568855 -17.836941652810 2.21903007  0.03363927  0.4630194 0.7000
  5  -1225.9785743045 -16.341017418959 2.17068601  0.03033975  0.3530898 0.7000
  6  -1236.3622414926 -10.383667188102 1.65197809  0.02968370  0.2578486 0.7000
  7  -1242.9376270839  -6.575385591331 1.63042329  0.02624307  0.2533301 0.7000
  8  -1248.2759206860  -5.338293602072 1.51943451  0.02691502  0.2917995 0.7000
  9  -1251.3300843351  -3.054163649145 1.76766391  0.02549229  0.2693635 0.7000
 10  -1255.9728245029  -4.642740167795 1.52307095  0.02425875  0.2793670 0.7000
 11  -1257.6787353927  -1.705910889755 1.75612597  0.02513415  0.2822477 0.7000
                               ***Turning on DIIS***
 12  -1259.8694622244  -2.190726831738 1.56795912  0.02343978  0.2843122 0.7000
 13  -1260.5074204718  -0.637958247368 1.20385622  0.01982190  0.3214420 0.7000
 14  -1268.2807188586  -7.773298386812 0.88465273  0.01416449  0.2435504 0.7000
 15  -1274.4683184232  -6.187599564638 0.63207909  0.01003418  0.2001161 0.7000
 16  -1278.8747513561  -4.406432932839 0.44569191  0.00710947  0.1499145 0.7000
 17  -1281.8926197036  -3.017868347483 0.31540593  0.00503351  0.1034373 0.7000
 18  -1283.9458230079  -2.053203304298 0.74251080  0.01182023  0.0647427 0.0000
 19  -1288.4666520674  -4.520829059569 0.01741705  0.00040367  0.0244207 0.0000
               *** Restarting incremental Fock matrix formation ***
                                   *** Resetting DIIS ***
 20  -1288.4732159514  -0.006563883987 0.02189763  0.00049894  0.0116548 0.0000
 21  -1288.4757932416  -0.002577290187 0.00674589  0.00013671  0.0102962 0.0000
 22  -1288.4769672106  -0.001173968971 0.00305314  0.00006968  0.0022176 0.0000
 23  -1288.4771395948  -0.000172384251 0.00285315  0.00004052  0.0018881 0.0000
 24  -1288.4771997329  -0.000060138022 0.00347038  0.00004724  0.0007365 0.0000
               *** Restarting incremental Fock matrix formation ***
                                   *** Resetting DIIS ***
 25  -1288.4774381347  -0.000238401882 0.00350504  0.00007373  0.0007543 0.0000
 26  -1288.4774555280  -0.000017393304 0.00168223  0.00001566  0.0006025 0.0000
 27  -1288.4774552726   0.000000255460 0.00103105  0.00000974  0.0007754 0.0000
 28  -1288.4774587417  -0.000003469088 0.00032606  0.00000332  0.0001458 0.0000
 29  -1288.4774589539  -0.000000212240 0.00026779  0.00000211  0.0001030 0.0000
 30  -1288.4774590761  -0.000000122176 0.00008750  0.00000096  0.0000302 0.0000
 31  -1288.4774591143  -0.000000038171 0.00006634  0.00000063  0.0000148 0.0000
 32  -1288.4774591258  -0.000000011572 0.00003095  0.00000028  0.0000071 0.0000
                 **** Energy Check signals convergence ****

               *****************************************************
               *                     SUCCESS                       *
               *           SCF CONVERGED AFTER  33 CYCLES          *
               *****************************************************

Old exchange energy                            =    -59.656689044 Eh
New exchange energy                            =    -59.656648922 Eh
Exchange energy change after final integration =      0.000040121 Eh
Total energy after final integration           =  -1288.477419014 Eh
Final COS-X integration done in                =    16.721 sec

----------------
TOTAL SCF ENERGY
----------------

Total Energy       :        -1288.47741901 Eh          -35061.25305 eV

Components:
Nuclear Repulsion  :         2008.68380586 Eh           54659.06517 eV
Electronic Energy  :        -3297.16122488 Eh          -89720.31822 eV
One Electron Energy:        -5773.60143775 Eh         -157107.68232 eV
Two Electron Energy:         2476.44021288 Eh           67387.36410 eV
Max COSX asymmetry :            0.00001438 Eh               0.00039 eV

Virial components:
Potential Energy   :        -2501.49460786 Eh          -68069.12885 eV
Kinetic Energy     :         1213.01718885 Eh           33007.87580 eV
Virial Ratio       :            2.06220871


DFT components:
N(Alpha)           :       81.999933170817 electrons
N(Beta)            :       81.999933170817 electrons
N(Total)           :      163.999866341634 electrons
E(X)               :      -79.583463665306 Eh       
E(C)               :       -7.448020107847 Eh       
E(XC)              :      -87.031483773153 Eh       
DFET-embed. en.    :        0.000000000000 Eh       

---------------
SCF CONVERGENCE
---------------

  Last Energy change         ...   -9.5347e-09  Tolerance :   1.0000e-08
  Last MAX-Density change    ...    0.0000e+00  Tolerance :   1.0000e-07
  Last RMS-Density change    ...    0.0000e+00  Tolerance :   5.0000e-09
  Last DIIS Error            ...    3.5643e-06  Tolerance :   5.0000e-07

             **** THE GBW FILE WAS UPDATED (reaction-4-prod-pbeh3c-orca_opt.gbw) ****
             **** DENSITY reaction-4-prod-pbeh3c-orca_opt.scfp WAS UPDATED ****
             **** ENERGY FILE WAS UPDATED (reaction-4-prod-pbeh3c-orca_opt.en.tmp) ****
             **** THE GBW FILE WAS UPDATED (reaction-4-prod-pbeh3c-orca_opt.gbw) ****
             **** DENSITY reaction-4-prod-pbeh3c-orca_opt.scfp WAS UPDATED ****
----------------
ORBITAL ENERGIES
----------------

  NO   OCC          E(Eh)            E(eV) 
   0   2.0000     -89.745675     -2442.1040 
   1   2.0000     -19.681924      -535.5724 
   2   2.0000     -19.661068      -535.0049 
   3   2.0000     -14.813422      -403.0937 
   4   2.0000     -10.737348      -292.1781 
   5   2.0000     -10.638490      -289.4880 
   6   2.0000     -10.615093      -288.8514 
   7   2.0000     -10.608475      -288.6713 
   8   2.0000     -10.606978      -288.6305 
   9   2.0000     -10.606171      -288.6086 
  10   2.0000     -10.604646      -288.5671 
  11   2.0000     -10.603675      -288.5407 
  12   2.0000     -10.602573      -288.5107 
  13   2.0000     -10.594723      -288.2971 
  14   2.0000     -10.589274      -288.1488 
  15   2.0000     -10.574115      -287.7363 
  16   2.0000     -10.567343      -287.5520 
  17   2.0000     -10.541847      -286.8582 
  18   2.0000     -10.538125      -286.7570 
  19   2.0000      -8.384539      -228.1549 
  20   2.0000      -6.274552      -170.7392 
  21   2.0000      -6.271238      -170.6491 
  22   2.0000      -6.269160      -170.5925 
  23   2.0000      -4.005702      -109.0007 
  24   2.0000      -2.319464       -63.1158 
  25   2.0000      -2.293333       -62.4048 
  26   2.0000      -2.289209       -62.2926 
  27   2.0000      -1.375407       -37.4267 
  28   2.0000      -1.280889       -34.8548 
  29   2.0000      -1.188965       -32.3534 
  30   2.0000      -1.145770       -31.1780 
  31   2.0000      -1.108753       -30.1707 
  32   2.0000      -1.012424       -27.5495 
  33   2.0000      -0.979356       -26.6496 
  34   2.0000      -0.961882       -26.1741 
  35   2.0000      -0.951783       -25.8993 
  36   2.0000      -0.946759       -25.7626 
  37   2.0000      -0.940723       -25.5984 
  38   2.0000      -0.890673       -24.2364 
  39   2.0000      -0.857076       -23.3222 
  40   2.0000      -0.834127       -22.6978 
  41   2.0000      -0.784837       -21.3565 
  42   2.0000      -0.770455       -20.9652 
  43   2.0000      -0.765669       -20.8349 
  44   2.0000      -0.763179       -20.7671 
  45   2.0000      -0.752268       -20.4702 
  46   2.0000      -0.749134       -20.3850 
  47   2.0000      -0.717317       -19.5192 
  48   2.0000      -0.697972       -18.9928 
  49   2.0000      -0.687802       -18.7160 
  50   2.0000      -0.680254       -18.5106 
  51   2.0000      -0.672978       -18.3127 
  52   2.0000      -0.650673       -17.7057 
  53   2.0000      -0.632841       -17.2205 
  54   2.0000      -0.619689       -16.8626 
  55   2.0000      -0.614696       -16.7267 
  56   2.0000      -0.610185       -16.6040 
  57   2.0000      -0.599739       -16.3197 
  58   2.0000      -0.594372       -16.1737 
  59   2.0000      -0.587527       -15.9874 
  60   2.0000      -0.586656       -15.9637 
  61   2.0000      -0.585334       -15.9277 
  62   2.0000      -0.583326       -15.8731 
  63   2.0000      -0.576825       -15.6962 
  64   2.0000      -0.570984       -15.5373 
  65   2.0000      -0.564440       -15.3592 
  66   2.0000      -0.552596       -15.0369 
  67   2.0000      -0.544712       -14.8224 
  68   2.0000      -0.540412       -14.7054 
  69   2.0000      -0.533695       -14.5226 
  70   2.0000      -0.532508       -14.4903 
  71   2.0000      -0.525279       -14.2936 
  72   2.0000      -0.511393       -13.9157 
  73   2.0000      -0.502389       -13.6707 
  74   2.0000      -0.497904       -13.5487 
  75   2.0000      -0.476974       -12.9791 
  76   2.0000      -0.464616       -12.6429 
  77   2.0000      -0.449549       -12.2329 
  78   2.0000      -0.437314       -11.8999 
  79   2.0000      -0.411542       -11.1986 
  80   2.0000      -0.406113       -11.0509 
  81   2.0000      -0.378543       -10.3007 
  82   0.0000      -0.177166        -4.8209 
  83   0.0000      -0.151257        -4.1159 
  84   0.0000      -0.118393        -3.2216 
  85   0.0000      -0.102660        -2.7935 
  86   0.0000      -0.076618        -2.0849 
  87   0.0000      -0.064319        -1.7502 
  88   0.0000      -0.048619        -1.3230 
  89   0.0000      -0.043644        -1.1876 
  90   0.0000      -0.029608        -0.8057 
  91   0.0000      -0.010896        -0.2965 
  92   0.0000      -0.009893        -0.2692 
  93   0.0000       0.002877         0.0783 
  94   0.0000       0.014131         0.3845 
  95   0.0000       0.028800         0.7837 
  96   0.0000       0.033865         0.9215 
  97   0.0000       0.044932         1.2227 
  98   0.0000       0.063288         1.7222 
  99   0.0000       0.066940         1.8215 
 100   0.0000       0.068880         1.8743 
 101   0.0000       0.077595         2.1115 
 102   0.0000       0.078817         2.1447 
 103   0.0000       0.089796         2.4435 
 104   0.0000       0.093316         2.5392 
 105   0.0000       0.096799         2.6340 
 106   0.0000       0.098540         2.6814 
 107   0.0000       0.100911         2.7459 
 108   0.0000       0.110228         2.9994 
 109   0.0000       0.114824         3.1245 
 110   0.0000       0.116444         3.1686 
 111   0.0000       0.119218         3.2441 
 112   0.0000       0.125415         3.4127 
 113   0.0000       0.130704         3.5566 
 114   0.0000       0.132025         3.5926 
 115   0.0000       0.138195         3.7605 
 116   0.0000       0.138797         3.7769 
 117   0.0000       0.145964         3.9719 
 118   0.0000       0.152793         4.1577 
 119   0.0000       0.168886         4.5956 
 120   0.0000       0.170684         4.6445 
 121   0.0000       0.181144         4.9292 
 122   0.0000       0.197548         5.3756 
 123   0.0000       0.207821         5.6551 
 124   0.0000       0.213142         5.7999 
 125   0.0000       0.222139         6.0447 
 126   0.0000       0.241018         6.5584 
 127   0.0000       0.264315         7.1924 
 128   0.0000       0.268708         7.3119 
 129   0.0000       0.286157         7.7867 
 130   0.0000       0.312260         8.4970 
 131   0.0000       0.323919         8.8143 
 132   0.0000       0.332643         9.0517 
 133   0.0000       0.349657         9.5147 
 134   0.0000       0.356489         9.7006 
 135   0.0000       0.365111         9.9352 
 136   0.0000       0.372771        10.1436 
 137   0.0000       0.385315        10.4849 
 138   0.0000       0.399946        10.8831 
 139   0.0000       0.405449        11.0328 
 140   0.0000       0.412558        11.2263 
 141   0.0000       0.421982        11.4827 
 142   0.0000       0.437600        11.9077 
 143   0.0000       0.443973        12.0811 
 144   0.0000       0.446695        12.1552 
 145   0.0000       0.448221        12.1967 
 146   0.0000       0.460087        12.5196 
 147   0.0000       0.463238        12.6054 
 148   0.0000       0.464739        12.6462 
 149   0.0000       0.479339        13.0435 
 150   0.0000       0.490007        13.3338 
 151   0.0000       0.497936        13.5495 
 152   0.0000       0.505880        13.7657 
 153   0.0000       0.513562        13.9747 
 154   0.0000       0.524271        14.2661 
 155   0.0000       0.529155        14.3990 
 156   0.0000       0.531727        14.4690 
 157   0.0000       0.533563        14.5190 
 158   0.0000       0.553979        15.0745 
 159   0.0000       0.557820        15.1791 
 160   0.0000       0.563561        15.3353 
 161   0.0000       0.573896        15.6165 
 162   0.0000       0.577953        15.7269 
 163   0.0000       0.586070        15.9478 
 164   0.0000       0.601369        16.3641 
 165   0.0000       0.611978        16.6528 
 166   0.0000       0.613153        16.6848 
 167   0.0000       0.625884        17.0312 
 168   0.0000       0.643949        17.5227 
 169   0.0000       0.646070        17.5804 
 170   0.0000       0.652295        17.7498 
 171   0.0000       0.660590        17.9756 
 172   0.0000       0.678476        18.4623 
 173   0.0000       0.684794        18.6342 
 174   0.0000       0.701550        19.0901 
 175   0.0000       0.709253        19.2997 
 176   0.0000       0.714674        19.4473 
 177   0.0000       0.726107        19.7584 
 178   0.0000       0.734543        19.9879 
 179   0.0000       0.744880        20.2692 
 180   0.0000       0.751317        20.4444 
 181   0.0000       0.761737        20.7279 
 182   0.0000       0.767010        20.8714 
 183   0.0000       0.781044        21.2533 
 184   0.0000       0.791631        21.5414 
 185   0.0000       0.795717        21.6526 
 186   0.0000       0.805860        21.9286 
 187   0.0000       0.817073        22.2337 
 188   0.0000       0.824539        22.4368 
 189   0.0000       0.844035        22.9674 
 190   0.0000       0.857701        23.3392 
 191   0.0000       0.863606        23.4999 
 192   0.0000       0.872325        23.7372 
 193   0.0000       0.879678        23.9373 
 194   0.0000       0.881264        23.9804 
 195   0.0000       0.886756        24.1298 
 196   0.0000       0.894986        24.3538 
 197   0.0000       0.907157        24.6850 
 198   0.0000       0.915656        24.9163 
 199   0.0000       0.918207        24.9857 
 200   0.0000       0.923322        25.1249 
 201   0.0000       0.932512        25.3749 
 202   0.0000       0.936319        25.4785 
 203   0.0000       0.938137        25.5280 
 204   0.0000       0.941802        25.6277 
 205   0.0000       0.953730        25.9523 
 206   0.0000       0.961099        26.1528 
 207   0.0000       0.967089        26.3158 
 208   0.0000       0.974907        26.5286 
 209   0.0000       0.983796        26.7704 
 210   0.0000       0.997610        27.1463 
 211   0.0000       1.013438        27.5770 
 212   0.0000       1.022773        27.8311 
 213   0.0000       1.034224        28.1427 
 214   0.0000       1.042066        28.3560 
 215   0.0000       1.058167        28.7942 
 216   0.0000       1.069863        29.1124 
 217   0.0000       1.080336        29.3974 
 218   0.0000       1.097822        29.8733 
 219   0.0000       1.109108        30.1804 
 220   0.0000       1.120367        30.4867 
 221   0.0000       1.125032        30.6137 
 222   0.0000       1.135719        30.9045 
 223   0.0000       1.148492        31.2521 
 224   0.0000       1.170744        31.8576 
 225   0.0000       1.178004        32.0551 
 226   0.0000       1.185885        32.2696 
 227   0.0000       1.200311        32.6621 
 228   0.0000       1.212288        32.9880 
 229   0.0000       1.233634        33.5689 
 230   0.0000       1.244151        33.8551 
 231   0.0000       1.258142        34.2358 
 232   0.0000       1.266821        34.4720 
 233   0.0000       1.275699        34.7135 
 234   0.0000       1.285156        34.9709 
 235   0.0000       1.302611        35.4458 
 236   0.0000       1.307143        35.5692 
 237   0.0000       1.311862        35.6976 
 238   0.0000       1.319794        35.9134 
 239   0.0000       1.334475        36.3129 
 240   0.0000       1.373276        37.3687 
 241   0.0000       1.383906        37.6580 
 242   0.0000       1.392695        37.8971 
 243   0.0000       1.409945        38.3666 
 244   0.0000       1.419670        38.6312 
 245   0.0000       1.446496        39.3612 
 246   0.0000       1.467676        39.9375 
 247   0.0000       1.479811        40.2677 
 248   0.0000       1.492662        40.6174 
 249   0.0000       1.510965        41.1155 
 250   0.0000       1.520123        41.3646 
 251   0.0000       1.576108        42.8881 
 252   0.0000       1.588988        43.2386 
 253   0.0000       1.615474        43.9593 
 254   0.0000       1.643774        44.7294 
 255   0.0000       1.653724        45.0001 
 256   0.0000       1.668354        45.3982 
 257   0.0000       1.673657        45.5425 
 258   0.0000       1.697406        46.1888 
 259   0.0000       1.709910        46.5290 
 260   0.0000       1.723298        46.8933 
 261   0.0000       1.725559        46.9548 
 262   0.0000       1.738770        47.3143 
 263   0.0000       1.751970        47.6735 
 264   0.0000       1.757555        47.8255 
 265   0.0000       1.775824        48.3226 
 266   0.0000       1.809665        49.2435 
 267   0.0000       1.814806        49.3834 
 268   0.0000       1.850159        50.3454 
 269   0.0000       1.865810        50.7713 
 270   0.0000       1.869047        50.8593 
 271   0.0000       1.882085        51.2141 
 272   0.0000       1.883506        51.2528 
 273   0.0000       1.893913        51.5360 
 274   0.0000       1.902931        51.7814 
 275   0.0000       1.917035        52.1652 
 276   0.0000       1.930335        52.5271 
 277   0.0000       1.939422        52.7744 
 278   0.0000       1.946990        52.9803 
 279   0.0000       1.955311        53.2067 
 280   0.0000       1.965464        53.4830 
 281   0.0000       1.985620        54.0315 
 282   0.0000       2.025813        55.1252 
 283   0.0000       2.030697        55.2581 
 284   0.0000       2.043245        55.5995 
 285   0.0000       2.057723        55.9935 
 286   0.0000       2.067930        56.2712 
 287   0.0000       2.089968        56.8709 
 288   0.0000       2.095592        57.0239 
 289   0.0000       2.108712        57.3810 
 290   0.0000       2.123699        57.7888 
 291   0.0000       2.139754        58.2257 
 292   0.0000       2.143264        58.3212 
 293   0.0000       2.174801        59.1793 
 294   0.0000       2.181843        59.3710 
[...]
      dxz     :     0.005865
      dyz     :     0.008001
      dx2y2   :     0.009802
      dxy     :     0.003143
 31 O s       :     3.784461  s :     3.784461
      pz      :     1.669416  p :     4.626641
      px      :     1.547030
      py      :     1.410196
      dz2     :     0.003119  d :     0.027777
      dxz     :     0.003122
      dyz     :     0.006659
      dx2y2   :     0.006999
      dxy     :     0.007877
 32 C s       :     2.964102  s :     2.964102
      pz      :     0.732737  p :     2.265788
      px      :     0.700921
      py      :     0.832131
      dz2     :     0.024633  d :     0.141166
      dxz     :     0.025369
      dyz     :     0.028641
      dx2y2   :     0.035792
      dxy     :     0.026731
 33 C s       :     3.423374  s :     3.423374
      pz      :     1.116182  p :     3.286315
      px      :     1.193727
      py      :     0.976406
      dz2     :     0.001754  d :     0.032898
      dxz     :     0.009247
      dyz     :     0.010370
      dx2y2   :     0.009446
      dxy     :     0.002080
 34 H s       :     0.713809  s :     0.713809
 35 H s       :     0.712838  s :     0.712838
 36 H s       :     0.722836  s :     0.722836
 37 H s       :     0.725096  s :     0.725096
 38 H s       :     0.708895  s :     0.708895


                     *******************************
                     * LOEWDIN POPULATION ANALYSIS *
                     *******************************

----------------------
LOEWDIN ATOMIC CHARGES
----------------------
   0 Ir:   -0.280421
   1 C :   -0.076770
   2 C :   -0.084943
   3 C :   -0.107950
   4 C :   -0.031638
   5 C :   -0.047356
   6 N :   -0.033827
   7 C :   -0.063593
   8 C :   -0.347004
   9 H :    0.144343
  10 H :    0.137583
  11 H :    0.144618
  12 C :   -0.366111
  13 H :    0.135888
  14 H :    0.155224
  15 H :    0.135934
  16 H :    0.139644
  17 C :    0.033769
  18 C :   -0.251373
  19 H :    0.156846
  20 C :   -0.107719
  21 C :   -0.200114
  22 S :    0.458566
  23 C :   -0.249432
  24 H :    0.358573
  25 H :    0.155799
  26 H :    0.166563
  27 H :    0.181699
  28 H :    0.175421
  29 H :    0.178596
  30 O :   -0.215091
  31 O :   -0.112822
  32 C :    0.207643
  33 C :   -0.368570
  34 H :    0.175769
  35 H :    0.177619
  36 H :    0.163630
  37 H :    0.177049
  38 H :    0.183963

-------------------------------
LOEWDIN REDUCED ORBITAL CHARGES
-------------------------------
  0 Irs       :     2.460631  s :     2.460631
      pz      :     2.261100  p :     6.774422
      px      :     2.262004
      py      :     2.251317
      dz2     :     1.454239  d :     7.960441
      dxz     :     1.526261
      dyz     :     1.834380
      dx2y2   :     1.447614
      dxy     :     1.697946
      f0      :     0.012122  f :     0.084928
      f+1     :     0.008601
      f-1     :     0.017190
      f+2     :     0.010685
      f-2     :     0.011669
      f+3     :     0.008611
      f-3     :     0.016051
  1 C s       :     2.870965  s :     2.870965
      pz      :     1.043715  p :     3.104252
      px      :     1.056462
      py      :     1.004075
      dz2     :     0.022454  d :     0.101554
      dxz     :     0.021647
      dyz     :     0.016896
      dx2y2   :     0.021086
      dxy     :     0.019471
  2 C s       :     2.880556  s :     2.880556
      pz      :     1.015228  p :     3.106820
      px      :     1.094489
      py      :     0.997103
      dz2     :     0.022377  d :     0.097567
      dxz     :     0.024949
      dyz     :     0.016009
      dx2y2   :     0.018876
      dxy     :     0.015357
  3 C s       :     2.871409  s :     2.871409
      pz      :     1.024411  p :     3.138360
      px      :     1.074396
      py      :     1.039553
      dz2     :     0.019936  d :     0.098181
      dxz     :     0.027636
      dyz     :     0.016253
      dx2y2   :     0.018661
      dxy     :     0.015695
  4 C s       :     2.873831  s :     2.873831
      pz      :     1.050024  p :     3.051243
      px      :     1.044545
      py      :     0.956674
      dz2     :     0.019681  d :     0.106564
      dxz     :     0.025348
      dyz     :     0.016055
      dx2y2   :     0.024073
      dxy     :     0.021406
  5 C s       :     2.884025  s :     2.884025
      pz      :     1.021183  p :     3.063643
      px      :     1.047062
      py      :     0.995398
      dz2     :     0.017717  d :     0.099687
      dxz     :     0.028395
      dyz     :     0.016048
      dx2y2   :     0.017583
      dxy     :     0.019945
  6 N s       :     3.115667  s :     3.115667
      pz      :     1.251285  p :     3.821100
      px      :     1.287761
      py      :     1.282054
      dz2     :     0.028085  d :     0.097060
      dxz     :     0.027143
      dyz     :     0.017643
      dx2y2   :     0.013753
      dxy     :     0.010436
  7 C s       :     2.859222  s :     2.859222
      pz      :     1.041783  p :     3.067094
      px      :     0.931529
      py      :     1.093783
      dz2     :     0.019422  d :     0.137277
      dxz     :     0.037883
      dyz     :     0.024859
      dx2y2   :     0.041290
      dxy     :     0.013823
  8 C s       :     2.952897  s :     2.952897
      pz      :     1.083537  p :     3.326445
      px      :     1.136967
      py      :     1.105941
      dz2     :     0.009771  d :     0.067662
      dxz     :     0.019411
      dyz     :     0.015772
      dx2y2   :     0.020500
      dxy     :     0.002207
  9 H s       :     0.855657  s :     0.855657
 10 H s       :     0.862417  s :     0.862417
 11 H s       :     0.855382  s :     0.855382
 12 C s       :     2.953038  s :     2.953038
      pz      :     1.114670  p :     3.345545
      px      :     1.095843
      py      :     1.135033
      dz2     :     0.007452  d :     0.067528
      dxz     :     0.018776
      dyz     :     0.017545
      dx2y2   :     0.019433
      dxy     :     0.004320
 13 H s       :     0.864112  s :     0.864112
 14 H s       :     0.844776  s :     0.844776
 15 H s       :     0.864066  s :     0.864066
 16 H s       :     0.860356  s :     0.860356
 17 C s       :     2.875185  s :     2.875185
      pz      :     1.004731  p :     2.948769
      px      :     1.078402
      py      :     0.865636
      dz2     :     0.037690  d :     0.142277
      dxz     :     0.047490
      dyz     :     0.026692
      dx2y2   :     0.014224
      dxy     :     0.016181
 18 C s       :     2.880025  s :     2.880025
      pz      :     1.041745  p :     3.261125
      px      :     1.082780
      py      :     1.136600
      dz2     :     0.030991  d :     0.110223
      dxz     :     0.032481
      dyz     :     0.015614
      dx2y2   :     0.018171
      dxy     :     0.012966
 19 H s       :     0.843154  s :     0.843154
 20 C s       :     2.894102  s :     2.894102
      pz      :     1.115695  p :     3.106531
      px      :     1.058530
      py      :     0.932305
      dz2     :     0.017992  d :     0.107086
      dxz     :     0.040586
      dyz     :     0.014339
      dx2y2   :     0.015836
      dxy     :     0.018333
 21 C s       :     2.894327  s :     2.894327
      pz      :     1.071953  p :     3.212344
      px      :     1.083496
      py      :     1.056895
      dz2     :     0.026557  d :     0.093443
      dxz     :     0.028968
      dyz     :     0.014163
      dx2y2   :     0.013676
      dxy     :     0.010079
 22 S s       :     5.501724  s :     5.501724
      pz      :     3.287366  p :     9.885291
      px      :     3.055061
      py      :     3.542864
      dz2     :     0.041503  d :     0.154419
      dxz     :     0.038002
      dyz     :     0.018448
      dx2y2   :     0.024761
      dxy     :     0.031706
 23 C s       :     2.965522  s :     2.965522
      pz      :     1.110394  p :     3.196513
      px      :     1.045753
      py      :     1.040366
      dz2     :     0.021763  d :     0.087397
      dxz     :     0.029973
      dyz     :     0.012090
      dx2y2   :     0.012805
      dxy     :     0.010766
 24 H s       :     0.641427  s :     0.641427
 25 H s       :     0.844201  s :     0.844201
 26 H s       :     0.833437  s :     0.833437
 27 H s       :     0.818301  s :     0.818301
 28 H s       :     0.824579  s :     0.824579
 29 H s       :     0.821404  s :     0.821404
 30 O s       :     3.459962  s :     3.459962
      pz      :     1.489189  p :     4.698210
      px      :     1.613404
      py      :     1.595617
      dz2     :     0.007200  d :     0.056920
      dxz     :     0.014849
      dyz     :     0.014376
      dx2y2   :     0.014482
      dxy     :     0.006013
 31 O s       :     3.424769  s :     3.424769
      pz      :     1.634072  p :     4.626537
      px      :     1.551894
      py      :     1.440571
      dz2     :     0.007512  d :     0.061516
      dxz     :     0.005828
      dyz     :     0.013386
      dx2y2   :     0.014996
      dxy     :     0.019793
 32 C s       :     2.810653  s :     2.810653
      pz      :     0.845126  p :     2.669650
      px      :     0.821639
      py      :     1.002885
      dz2     :     0.051490  d :     0.312054
      dxz     :     0.060034
      dyz     :     0.063414
      dx2y2   :     0.077442
      dxy     :     0.059673
 33 C s       :     2.956037  s :     2.956037
      pz      :     1.127032  p :     3.350238
      px      :     1.158876
      py      :     1.064329
      dz2     :     0.003001  d :     0.062295
      dxz     :     0.015757
      dyz     :     0.020979
      dx2y2   :     0.018348
      dxy     :     0.004210
 34 H s       :     0.824231  s :     0.824231
 35 H s       :     0.822381  s :     0.822381
 36 H s       :     0.836370  s :     0.836370
 37 H s       :     0.822951  s :     0.822951
 38 H s       :     0.816037  s :     0.816037


                      *****************************
                      * MAYER POPULATION ANALYSIS *
                      *****************************

  NA   - Mulliken gross atomic population
  ZA   - Total nuclear charge
  QA   - Mulliken gross atomic charge
  VA   - Mayer's total valence
  BVA  - Mayer's bonded valence
  FA   - Mayer's free valence

  ATOM       NA         ZA         QA         VA         BVA        FA
  0 Ir    16.4416    17.0000     0.5584     3.7588     3.7588     0.0000
  1 C      6.2984     6.0000    -0.2984     3.7529     3.7529    -0.0000
  2 C      6.2230     6.0000    -0.2230     3.7191     3.7191    -0.0000
  3 C      6.2868     6.0000    -0.2868     3.7485     3.7485     0.0000
  4 C      6.2019     6.0000    -0.2019     3.7136     3.7136     0.0000
  5 C      6.1685     6.0000    -0.1685     3.7096     3.7096     0.0000
  6 N      7.4675     7.0000    -0.4675     3.2046     3.2046    -0.0000
  7 C      6.0860     6.0000    -0.0860     3.7412     3.7412    -0.0000
  8 C      6.6459     6.0000    -0.6459     3.6748     3.6748    -0.0000
  9 H      0.7507     1.0000     0.2493     0.9000     0.9000     0.0000
 10 H      0.7699     1.0000     0.2301     0.9110     0.9110     0.0000
 11 H      0.7444     1.0000     0.2556     0.8962     0.8962    -0.0000
 12 C      6.7003     6.0000    -0.7003     3.6982     3.6982     0.0000
 13 H      0.7588     1.0000     0.2412     0.8806     0.8806     0.0000
 14 H      0.7299     1.0000     0.2701     0.8980     0.8980     0.0000
 15 H      0.7702     1.0000     0.2298     0.9076     0.9076     0.0000
 16 H      0.7535     1.0000     0.2465     0.9023     0.9023     0.0000
 17 C      5.9350     6.0000     0.0650     3.6786     3.6786    -0.0000
 18 C      6.2264     6.0000    -0.2264     3.7065     3.7065     0.0000
 19 H      0.7182     1.0000     0.2818     0.8826     0.8826     0.0000
 20 C      6.2150     6.0000    -0.2150     3.6856     3.6856     0.0000
 21 C      6.2508     6.0000    -0.2508     3.7549     3.7549     0.0000
 22 S     15.6878    16.0000     0.3122     2.5436     2.5436    -0.0000
 23 C      6.4095     6.0000    -0.4095     3.7555     3.7555     0.0000
 24 H      0.4761     1.0000     0.5239     0.7244     0.7244    -0.0000
 25 H      0.7404     1.0000     0.2596     0.9030     0.9030     0.0000
 26 H      0.7061     1.0000     0.2939     0.8989     0.8989     0.0000
 27 H      0.7171     1.0000     0.2829     0.9095     0.9095     0.0000
 28 H      0.7244     1.0000     0.2756     0.9096     0.9096     0.0000
 29 H      0.7182     1.0000     0.2818     0.9039     0.9039     0.0000
 30 O      8.5420     8.0000    -0.5420     2.0637     2.0637     0.0000
 31 O      8.4389     8.0000    -0.4389     2.1944     2.1944    -0.0000
 32 C      5.3711     6.0000     0.6289     3.8806     3.8806     0.0000
 33 C      6.7426     6.0000    -0.7426     3.6375     3.6375     0.0000
 34 H      0.7138     1.0000     0.2862     0.8863     0.8863     0.0000
 35 H      0.7128     1.0000     0.2872     0.8855     0.8855     0.0000
 36 H      0.7228     1.0000     0.2772     0.8919     0.8919     0.0000
 37 H      0.7251     1.0000     0.2749     0.9124     0.9124     0.0000
 38 H      0.7089     1.0000     0.2911     0.9014     0.9014    -0.0000

  Mayer bond orders larger than 0.100000
B(  0-Ir,  1-C ) :   0.5339 B(  0-Ir,  2-C ) :   0.2979 B(  0-Ir,  3-C ) :   0.4838 
B(  0-Ir,  4-C ) :   0.4152 B(  0-Ir,  5-C ) :   0.3035 B(  0-Ir,  6-N ) :   0.4735 
B(  0-Ir, 20-C ) :   0.7001 B(  0-Ir, 31-O ) :   0.3995 B(  1-C ,  2-C ) :   1.1150 
B(  1-C ,  4-C ) :   1.1719 B(  1-C , 27-H ) :   0.9129 B(  2-C ,  5-C ) :   1.3418 
B(  2-C , 28-H ) :   0.9101 B(  3-C ,  4-C ) :   1.1974 B(  3-C ,  5-C ) :   1.1117 
B(  3-C , 37-H ) :   0.9157 B(  4-C , 38-H ) :   0.9015 B(  5-C , 29-H ) :   0.9082 
B(  6-N ,  7-C ) :   0.9141 B(  6-N , 17-C ) :   1.6071 B(  7-C ,  8-C ) :   0.9761 
B(  7-C , 12-C ) :   0.9941 B(  7-C , 13-H ) :   0.8849 B(  8-C ,  9-H ) :   0.9080 
B(  8-C , 10-H ) :   0.9156 B(  8-C , 11-H ) :   0.8994 B( 12-C , 14-H ) :   0.9051 
B( 12-C , 15-H ) :   0.9114 B( 12-C , 16-H ) :   0.9128 B( 17-C , 18-C ) :   1.1504 
B( 17-C , 19-H ) :   0.8758 B( 18-C , 20-C ) :   1.3525 B( 18-C , 22-S ) :   1.1430 
B( 20-C , 21-C ) :   1.3174 B( 21-C , 23-C ) :   1.4671 B( 21-C , 25-H ) :   0.9053 
B( 22-S , 23-C ) :   1.2741 B( 23-C , 26-H ) :   0.8936 B( 24-H , 30-O ) :   0.6346 
B( 30-O , 32-C ) :   1.2932 B( 31-O , 32-C ) :   1.6143 B( 32-C , 33-C ) :   0.9554 
B( 33-C , 34-H ) :   0.8873 B( 33-C , 35-H ) :   0.8849 B( 33-C , 36-H ) :   0.9059 


-------
TIMINGS
-------

Total SCF time: 0 days 0 hours 1 min 15 sec 

Total time                  ....      75.453 sec
Sum of individual times     ....      75.007 sec  ( 99.4%)

Fock matrix formation       ....      72.098 sec  ( 95.6%)
  Split-RI-J                ....       5.999 sec  (  8.3% of F)
  Chain of spheres X        ....      62.505 sec  ( 86.7% of F)
  XC integration            ....       3.530 sec  (  4.9% of F)
    Basis function eval.    ....       1.521 sec  ( 43.1% of XC)
    Density eval.           ....       1.004 sec  ( 28.4% of XC)
    XC-Functional eval.     ....       0.255 sec  (  7.2% of XC)
    XC-Potential eval.      ....       0.562 sec  ( 15.9% of XC)
Diagonalization             ....       0.303 sec  (  0.4%)
Density matrix formation    ....       0.017 sec  (  0.0%)
Population analysis         ....       0.044 sec  (  0.1%)
Initial guess               ....       0.037 sec  (  0.0%)
Orbital Transformation      ....       0.000 sec  (  0.0%)
Orbital Orthonormalization  ....       0.027 sec  (  0.0%)
DIIS solution               ....       0.157 sec  (  0.2%)
Grid generation             ....       2.351 sec  (  3.1%)

Maximum memory used throughout the entire SCF-calculation: 96.3 MB


-------------------------------------------------------------------------------
                          DFT DISPERSION CORRECTION                            
                                                                               
                              DFTD3 V3.1  Rev 1                                
                          USING Becke-Johnson damping                          
-------------------------------------------------------------------------------
The PBEh-3c composite method is recognized
Using three-body term ABC
Active option DFTDOPT                   ...         4   

molecular C6(AA) [au] = 19617.913361 


            DFT-D V3
 parameters
 s6 scaling factor         :     1.0000 
 a1 scaling factor         :     0.4860 
 s8 scaling factor         :     0.0000 
 a2 scaling factor         :     4.5000 
 Damping factor alpha9(ATM):    16.0000 
 ad hoc parameters k1-k3   :    16.0000     1.3333    -4.0000 

 Edisp/kcal,au: -19.139044057119  -0.030500004871 
 E6   /kcal   : -19.464886035 
 E8   /kcal   :  -0.000000000 
 E6(ABC)      :   0.325841978 
 % E8         :   0.000000000 
 % E6(ABC)    :  -1.702498706 

-------------------------   ----------------
Dispersion correction           -0.030500005
-------------------------   ----------------

 ** NOTE ** -> element ir will be treated as co
NOTIFICATION: Different basis set in ORCA and otool_gcp:
ORCA: 358  gCP: 357 
If you are NOT using ECPs, check your basis set inputs!
------------------   -----------------
gCP correction             0.073381408
------------------   -----------------

-------------------------   --------------------
FINAL SINGLE POINT ENERGY     -1288.443094101118
-------------------------   --------------------

                                *** OPTIMIZATION RUN DONE ***

                            ***************************************
                            *     ORCA property calculations      *
                            ***************************************

                                    ---------------------
                                    Active property flags
                                    ---------------------
   (+) Dipole Moment


------------------------------------------------------------------------------
                       ORCA ELECTRIC PROPERTIES CALCULATION
------------------------------------------------------------------------------

Dipole Moment Calculation                       ... on
Quadrupole Moment Calculation                   ... off
Polarizability Calculation                      ... off
GBWName                                         ... reaction-4-prod-pbeh3c-orca_opt.gbw
Electron density                                ... reaction-4-prod-pbeh3c-orca_opt.scfp
The origin for moment calculation is the CENTER OF MASS  = ( 0.833561, -0.603043 -0.240589)

-------------
DIPOLE MOMENT
-------------
                                X             Y             Z
Electronic contribution:     33.31532     -79.61636      69.80426
Nuclear contribution   :    -33.52029      80.17298     -69.36634
                        -----------------------------------------
Total Dipole Moment    :     -0.20497       0.55662       0.43792
                        -----------------------------------------
Magnitude (a.u.)       :      0.73730
Magnitude (Debye)      :      1.87406



--------------------
Rotational spectrum 
--------------------
 
Rotational constants in cm-1:     0.010853     0.008559     0.008012 
Rotational constants in MHz :   325.374294   256.598707   240.199071 

 Dipole components along the rotational axes: 
x,y,z [a.u.] :     0.200599     0.219983    -0.674517 
x,y,z [Debye]:     0.509883     0.559151    -1.714486 

 

Timings for individual modules:

Sum of individual times         ...     3684.124 sec (=  61.402 min)
GTO integral calculation        ...       46.548 sec (=   0.776 min)   1.3 %
SCF iterations                  ...     2781.594 sec (=  46.360 min)  75.5 %
SCF Gradient evaluation         ...      851.979 sec (=  14.200 min)  23.1 %
Geometry relaxation             ...        4.002 sec (=   0.067 min)   0.1 %
                             ****ORCA TERMINATED NORMALLY****
TOTAL RUN TIME: 0 days 1 hours 1 minutes 36 seconds 647 msec
