
                                 *****************
                                 * O   R   C   A *
                                 *****************

                                            #,                                       
                                            ###                                      
                                            ####                                     
                                            #####                                    
                                            ######                                   
                                           ########,                                 
                                     ,,################,,,,,                         
                               ,,#################################,,                 
                          ,,##########################################,,             
                       ,#########################################, ''#####,          
                    ,#############################################,,   '####,        
                  ,##################################################,,,,####,       
                ,###########''''           ''''###############################       
              ,#####''   ,,,,##########,,,,          '''####'''          '####       
            ,##' ,,,,###########################,,,                        '##       
           ' ,,###''''                  '''############,,,                           
         ,,##''                                '''############,,,,        ,,,,,,###''
      ,#''                                            '''#######################'''  
     '                                                          ''''####''''         
             ,#######,   #######,   ,#######,      ##                                
            ,#'     '#,  ##    ##  ,#'     '#,    #''#        ######   ,####,        
            ##       ##  ##   ,#'  ##            #'  '#       #        #'  '#        
            ##       ##  #######   ##           ,######,      #####,   #    #        
            '#,     ,#'  ##    ##  '#,     ,#' ,#      #,         ##   #,  ,#        
             '#######'   ##     ##  '#######'  #'      '#     #####' # '####'        



                  #######################################################
                  #                        -***-                        #
                  #          Department of theory and spectroscopy      #
                  #    Directorship and core code : Frank Neese         #
                  #        Max Planck Institute fuer Kohlenforschung    #
                  #                Kaiser Wilhelm Platz 1               #
                  #                 D-45470 Muelheim/Ruhr               #
                  #                      Germany                        #
                  #                                                     #
                  #                  All rights reserved                #
                  #                        -***-                        #
                  #######################################################


                         Program Version 5.0.4 -  RELEASE  -


 With contributions from (in alphabetic order):
   Daniel Aravena         : Magnetic Suceptibility
   Michael Atanasov       : Ab Initio Ligand Field Theory (pilot matlab implementation)
   Alexander A. Auer      : GIAO ZORA, VPT2 properties, NMR spectrum
   Ute Becker             : Parallelization
   Giovanni Bistoni       : ED, misc. LED, open-shell LED, HFLD
   Martin Brehm           : Molecular dynamics
   Dmytro Bykov           : SCF Hessian
   Vijay G. Chilkuri      : MRCI spin determinant printing, contributions to CSF-ICE
   Dipayan Datta          : RHF DLPNO-CCSD density
   Achintya Kumar Dutta   : EOM-CC, STEOM-CC
   Dmitry Ganyushin       : Spin-Orbit,Spin-Spin,Magnetic field MRCI
   Miquel Garcia          : C-PCM and meta-GGA Hessian, CC/C-PCM, Gaussian charge scheme
   Yang Guo               : DLPNO-NEVPT2, F12-NEVPT2, CIM, IAO-localization
   Andreas Hansen         : Spin unrestricted coupled pair/coupled cluster methods
   Benjamin Helmich-Paris : MC-RPA, TRAH-SCF, COSX integrals
   Lee Huntington         : MR-EOM, pCC
   Robert Izsak           : Overlap fitted RIJCOSX, COSX-SCS-MP3, EOM
   Marcus Kettner         : VPT2
   Christian Kollmar      : KDIIS, OOCD, Brueckner-CCSD(T), CCSD density, CASPT2, CASPT2-K
   Simone Kossmann        : Meta GGA functionals, TD-DFT gradient, OOMP2, MP2 Hessian
   Martin Krupicka        : Initial AUTO-CI
   Lucas Lang             : DCDCAS
   Marvin Lechner         : AUTO-CI (C++ implementation), FIC-MRCC
   Dagmar Lenk            : GEPOL surface, SMD
   Dimitrios Liakos       : Extrapolation schemes; Compound Job, initial MDCI parallelization
   Dimitrios Manganas     : Further ROCIS development; embedding schemes
   Dimitrios Pantazis     : SARC Basis sets
   Anastasios Papadopoulos: AUTO-CI, single reference methods and gradients
   Taras Petrenko         : DFT Hessian,TD-DFT gradient, ASA, ECA, R-Raman, ABS, FL, XAS/XES, NRVS
   Peter Pinski           : DLPNO-MP2, DLPNO-MP2 Gradient
   Christoph Reimann      : Effective Core Potentials
   Marius Retegan         : Local ZFS, SOC
   Christoph Riplinger    : Optimizer, TS searches, QM/MM, DLPNO-CCSD(T), (RO)-DLPNO pert. Triples
   Tobias Risthaus        : Range-separated hybrids, TD-DFT gradient, RPA, STAB
   Michael Roemelt        : Original ROCIS implementation
   Masaaki Saitow         : Open-shell DLPNO-CCSD energy and density
   Barbara Sandhoefer     : DKH picture change effects
   Avijit Sen             : IP-ROCIS
   Kantharuban Sivalingam : CASSCF convergence, NEVPT2, FIC-MRCI
   Bernardo de Souza      : ESD, SOC TD-DFT
   Georgi Stoychev        : AutoAux, RI-MP2 NMR, DLPNO-MP2 response
   Willem Van den Heuvel  : Paramagnetic NMR
   Boris Wezisla          : Elementary symmetry handling
   Frank Wennmohs         : Technical directorship


 We gratefully acknowledge several colleagues who have allowed us to
 interface, adapt or use parts of their codes:
   Stefan Grimme, W. Hujo, H. Kruse, P. Pracht,  : VdW corrections, initial TS optimization,
                  C. Bannwarth, S. Ehlert          DFT functionals, gCP, sTDA/sTD-DF
   Ed Valeev, F. Pavosevic, A. Kumar             : LibInt (2-el integral package), F12 methods
   Garnet Chan, S. Sharma, J. Yang, R. Olivares  : DMRG
   Ulf Ekstrom                                   : XCFun DFT Library
   Mihaly Kallay                                 : mrcc  (arbitrary order and MRCC methods)
   Jiri Pittner, Ondrej Demel                    : Mk-CCSD
   Frank Weinhold                                : gennbo (NPA and NBO analysis)
   Christopher J. Cramer and Donald G. Truhlar   : smd solvation model
   Lars Goerigk                                  : TD-DFT with DH, B97 family of functionals
   V. Asgeirsson, H. Jonsson                     : NEB implementation
   FAccTs GmbH                                   : IRC, NEB, NEB-TS, DLPNO-Multilevel, CI-OPT
                                                   MM, QMMM, 2- and 3-layer-ONIOM, Crystal-QMMM,
                                                   LR-CPCM, SF, NACMEs, symmetry and pop. for TD-DFT,
                                                   nearIR, NL-DFT gradient (VV10), updates on ESD,
                                                   ML-optimized integration grids
   S Lehtola, MJT Oliveira, MAL Marques          : LibXC Library
   Liviu Ungur et al                             : ANISO software


 Your calculation uses the libint2 library for the computation of 2-el integrals
 For citations please refer to: http://libint.valeyev.net

 Your ORCA version has been built with support for libXC version: 5.1.0
 For citations please refer to: https://tddft.org/programs/libxc/

 This ORCA versions uses:
   CBLAS   interface :  Fast vector & matrix operations
   LAPACKE interface :  Fast linear algebra routines
   SCALAPACK package :  Parallel linear algebra routines
   Shared memory     :  Shared parallel matrices
   BLAS/LAPACK       :  OpenBLAS 0.3.15  USE64BITINT DYNAMIC_ARCH NO_AFFINITY SkylakeX SINGLE_THREADED
        Core in use  :  SkylakeX
   Copyright (c) 2011-2014, The OpenBLAS Project




***************************************
The coordinates will be read from file: reaction-4-rct-xtb.xyz
***************************************


Your calculation utilizes the geometrical counterpoise correction gCP
Please cite in your paper:
H.Kruse, S. Grimme J.Chem.Phys., 136, (2012), 154101 
   

Your calculation utilizes the atom-pairwise dispersion correction
with the Becke-Johnson damping scheme (D3BJ)
Cite in your paper:
S.Grimme, S.Ehrlich, L.Goerigk, J Comput Chem, (2011), 32, 1456–1465 
S.Grimme, J.Antony, S.Ehrlich and H.Krieg, J.Chem.Phys., 132, (2010), 154104 
   

Your calculation employs the composite approach PBEh-3c.
Please cite in your paper:
S. Grimme, J. G. Brandenburg, C. Bannwarth, A. Hansen J.Chem.Phys., 143, (2015), 054107 
   

================================================================================

cite the ECPs for Ir [Def2-ECP] as follows:
Ce-Yb(ecp-28): M. Dolg, H. Stoll, H.Preuss, J. Chem. Phys., 1989, 90, 1730-1734.
Y-Cd(ecp-28), Hf-Hg(ecp-46): D. Andrae,U. Haeussermann, M. Dolg, H. Stoll, H. Preuss, Theor. Chim. Acta, 1990, 77, 123-141.
In-Sb(ecp-28), Tl-Bi(ecp-46): B. Metz, H. Stoll, M. Dolg, J. Chem. Phys., 2000, 113, 2563-2569.
Te-Xe(ecp-28), Po-Rn(ecp-46): K. A. Peterson, D. Figgen, E. Goll, H. Stoll, M. Dolg, J. Chem. Phys., 2003, 119, 11113-11123.
Rb(ecp-28), Cs(ecp-46): T. Leininger, A. Nicklass, W. Kuechle, H. Stoll, M. Dolg, A. Bergner, Chem. Phys. Lett., 1996, 255, 274-280.
Sr(ecp-28), Ba(ecp-46): M. Kaupp, P. V. Schleyer, H. Stoll and H. Preuss, J. Chem. Phys., 1991, 94, 1360-1366.
La(ecp-46): M. Dolg, H. Stoll, A. Savin, H. Preuss, Theor. Chim. Acta, 1989, 75, 173-194.
Lu(ecp-28): X. Cao, M. Dolg, J. Chem. Phys., 2001, 115, 7348-7355.

ECP parameters for Ir [Def2-ECP] have been obtained from:
TURBOMOLE (7.0.2)

----- Orbital basis set information -----
Your calculation utilizes the basis: def2-mSVP

----- AuxJ basis set information -----
Your calculation utilizes the auxiliary basis: def2/J
   F. Weigend, Phys. Chem. Chem. Phys. 8, 1057 (2006).

================================================================================
                                        WARNINGS
                       Please study these warnings very carefully!
================================================================================


WARNING: Geometry Optimization
  ===> : Switching off AutoStart
         For restart on a previous wavefunction, please use MOREAD

WARNING: No Hueckel Guess possible with ECP basis!
  ===> : Switching to HCORE guess!

INFO   : the flag for use of the SHARK integral package has been found!

================================================================================
                                       INPUT FILE
================================================================================
NAME = reaction-4-rct-pbeh3c-orca_opt.inp
|  1> ! PBEh-3c OPT pal4
|  2> 
|  3> %geom
|  4>  maxiter 600
|  5> end 
|  6> 
|  7> *xyzfile 1 1 reaction-4-rct-xtb.xyz
|  8> 
|  9>                          ****END OF INPUT****
================================================================================

                       *****************************
                       * Geometry Optimization Run *
                       *****************************

Geometry optimization settings:
Update method            Update   .... BFGS
Choice of coordinates    CoordSys .... Z-matrix Internals
Initial Hessian          InHess   .... Almoef's Model

Convergence Tolerances:
Energy Change            TolE     ....  5.0000e-06 Eh
Max. Gradient            TolMAXG  ....  3.0000e-04 Eh/bohr
RMS Gradient             TolRMSG  ....  1.0000e-04 Eh/bohr
Max. Displacement        TolMAXD  ....  4.0000e-03 bohr
RMS Displacement         TolRMSD  ....  2.0000e-03 bohr
Strict Convergence                ....  False
------------------------------------------------------------------------------
                        ORCA OPTIMIZATION COORDINATE SETUP
------------------------------------------------------------------------------

The optimization will be done in new redundant internal coordinates
Making redundant internal coordinates   ...  (new redundants) done
Evaluating the initial hessian          ...  (Almloef) done
Evaluating the coordinates              ...  done
Calculating the B-matrix                .... done
Calculating the G-matrix                .... done
Diagonalizing the G-matrix              .... done
Small eigenvalue found = 3.325e-03
Small eigenvalue found = 1.438e-02
Small eigenvalue found = 1.655e-02
Small eigenvalue found = 2.355e-02
The first mode is                       ....  261
The number of degrees of freedom        ....  111

    -----------------------------------------------------------------
                    Redundant Internal Coordinates


    -----------------------------------------------------------------
         Definition                    Initial Value    Approx d2E/dq
    -----------------------------------------------------------------
      1. B(C   1,Ir  0)                  2.2356         0.065095   
      2. B(C   2,Ir  0)                  2.2646         0.058522   
      3. B(C   2,C   1)                  1.4332         0.533093   
      4. B(C   3,Ir  0)                  2.2150         0.070213   
      5. B(C   4,C   3)                  1.4293         0.540812   
      6. B(C   4,Ir  0)                  2.2363         0.064946   
      7. B(C   4,C   1)                  1.4132         0.573700   
      8. B(C   5,C   3)                  1.4302         0.538930   
      9. B(C   5,C   2)                  1.4040         0.593567   
     10. B(C   5,Ir  0)                  2.2789         0.055532   
     11. B(N   6,Ir  0)                  2.0444         0.117720   
     12. B(C   7,N   6)                  1.4729         0.412753   
     13. B(C   8,C   7)                  1.5289         0.375143   
     14. B(H   9,C   8)                  1.0859         0.365571   
     15. B(H  10,C   8)                  1.0867         0.364472   
     16. B(H  11,C   8)                  1.0865         0.364742   
     17. B(C  12,C   7)                  1.5288         0.375216   
     18. B(H  13,C   7)                  1.0944         0.354370   
     19. B(H  14,C  12)                  1.0859         0.365582   
     20. B(H  15,C  12)                  1.0866         0.364673   
     21. B(H  16,C  12)                  1.0869         0.364256   
     22. B(C  17,N   6)                  1.2903         0.807243   
     23. B(C  18,C  17)                  1.4139         0.572379   
     24. B(H  19,C  17)                  1.0897         0.360501   
     25. B(C  20,C  18)                  1.3857         0.634707   
     26. B(C  21,C  20)                  1.3947         0.614204   
     27. B(S  22,C  18)                  1.7516         0.446335   
     28. B(C  23,S  22)                  1.6967         0.546009   
     29. B(C  23,C  21)                  1.3709         0.670232   
     30. B(H  24,C  20)                  1.0731         0.383124   
     31. B(H  25,C  21)                  1.0747         0.380964   
     32. B(H  26,C  23)                  1.0728         0.383554   
     33. B(H  27,C   1)                  1.0777         0.376786   
     34. B(H  28,C   2)                  1.0768         0.378027   
     35. B(H  29,C   5)                  1.0776         0.376867   
     36. B(O  30,Ir  0)                  2.1190         0.089474   
     37. B(O  31,Ir  0)                  2.1383         0.083348   
     38. B(C  32,O  31)                  1.2609         0.899027   
     39. B(C  32,O  30)                  1.2657         0.883335   
     40. B(C  33,C  32)                  1.4878         0.436188   
     41. B(H  34,C  33)                  1.0861         0.365239   
     42. B(H  35,C  33)                  1.0899         0.360295   
     43. B(H  36,C  33)                  1.0868         0.364384   
     44. B(H  37,C   3)                  1.0780         0.376376   
     45. B(H  38,C   4)                  1.0782         0.376111   
     46. A(C   2,Ir  0,C   4)           61.6216         0.225425   
     47. A(C   3,Ir  0,O  30)          122.0496         0.240766   
     48. A(C   1,Ir  0,O  30)          151.3108         0.238188   
     49. A(C   3,Ir  0,O  31)          166.1031         0.238349   
     50. A(O  30,Ir  0,O  31)           60.1334         0.245644   
     51. A(C   2,Ir  0,C   5)           35.9968         0.220675   
     52. A(C   2,Ir  0,O  30)          116.2423         0.234637   
     53. A(C   1,Ir  0,C   2)           37.1343         0.225496   
     54. A(C   4,Ir  0,N   6)           98.8488         0.247664   
     55. A(N   6,Ir  0,O  31)           83.7837         0.255679   
     56. A(C   3,Ir  0,C   4)           37.4548         0.231167   
     57. A(C   1,Ir  0,C   5)           61.0924         0.223886   
     58. A(C   1,Ir  0,C   4)           36.8454         0.228752   
     59. A(C   1,Ir  0,N   6)          121.0123         0.247746   
     60. A(C   5,Ir  0,O  30)          103.9365         0.232919   
     61. A(C   2,Ir  0,C   3)           61.7171         0.227855   
     62. A(C   4,Ir  0,O  30)          159.2860         0.238111   
     63. A(C   3,Ir  0,C   5)           37.0814         0.226217   
     64. A(C   4,Ir  0,C   5)           61.4448         0.223816   
     65. A(C   1,Ir  0,C   3)           62.1349         0.231241   
     66. A(C   1,Ir  0,O  31)          108.8936         0.235812   
     67. A(C   5,Ir  0,O  31)          130.0904         0.230627   
     68. A(C   3,Ir  0,N   6)          109.8137         0.250489   
     69. A(N   6,Ir  0,O  30)           85.6423         0.258377   
     70. A(C   2,Ir  0,O  31)          104.5752         0.232317   
     71. A(C   2,Ir  0,N   6)          157.9995         0.243967   
     72. A(C   5,Ir  0,N   6)          145.3001         0.242139   
     73. A(C   4,Ir  0,O  31)          140.2487         0.235736   
     74. A(C   2,C   1,C   4)          108.1813         0.416663   
     75. A(Ir  0,C   1,C   2)           72.5310         0.301275   
     76. A(C   2,C   1,H  27)          125.3893         0.346669   
     77. A(C   4,C   1,H  27)          126.0831         0.350986   
     78. A(Ir  0,C   1,H  27)          126.9103         0.258726   
     79. A(Ir  0,C   1,C   4)           71.6013         0.304831   
     80. A(Ir  0,C   2,C   5)           72.5556         0.301323   
     81. A(Ir  0,C   2,C   1)           70.3347         0.296221   
     82. A(C   1,C   2,C   5)          107.9548         0.419198   
     83. A(C   5,C   2,H  28)          126.2261         0.353209   
     84. A(C   1,C   2,H  28)          125.4233         0.346860   
     85. A(Ir  0,C   2,H  28)          128.3260         0.254809   
     86. A(C   4,C   3,H  37)          125.5067         0.347445   
     87. A(C   4,C   3,C   5)          107.5619         0.413112   
     88. A(C   5,C   3,H  37)          125.5844         0.347241   
     89. A(Ir  0,C   3,H  37)          129.9848         0.261616   
     90. A(Ir  0,C   3,C   5)           73.8852         0.305475   
     91. A(Ir  0,C   3,C   4)           72.0785         0.305646   
     92. A(C   1,C   4,C   3)          107.8045         0.417731   
     93. A(Ir  0,C   4,C   3)           70.4667         0.301856   
     94. A(Ir  0,C   4,H  38)          128.1009         0.258569   
     95. A(Ir  0,C   4,C   1)           71.5533         0.304719   
     96. A(C   1,C   4,H  38)          126.0834         0.350879   
     97. A(C   3,C   4,H  38)          125.8457         0.347403   
     98. A(C   2,C   5,C   3)          108.3527         0.420013   
     99. A(Ir  0,C   5,C   3)           69.0334         0.294282   
    100. A(C   2,C   5,H  29)          126.0590         0.353025   
    101. A(Ir  0,C   5,C   2)           71.4476         0.298818   
    102. A(C   3,C   5,H  29)          125.5650         0.347317   
    103. A(Ir  0,C   5,H  29)          126.6219         0.252739   
    104. A(Ir  0,N   6,C   7)          113.4538         0.314569   
    105. A(C   7,N   6,C  17)          117.2814         0.417604   
    106. A(Ir  0,N   6,C  17)          129.2562         0.351552   
    107. A(C  12,C   7,H  13)          108.5203         0.323699   
    108. A(C   8,C   7,H  13)          107.6439         0.323688   
    109. A(N   6,C   7,H  13)          106.2983         0.326846   
    110. A(C   8,C   7,C  12)          111.6728         0.363884   
    111. A(N   6,C   7,C  12)          110.8339         0.367582   
    112. A(N   6,C   7,C   8)          111.6236         0.367570   
    113. A(H  10,C   8,H  11)          109.0523         0.291979   
    114. A(H   9,C   8,H  11)          108.3252         0.292117   
    115. A(C   7,C   8,H  11)          110.1751         0.325226   
    116. A(H   9,C   8,H  10)          108.2528         0.292083   
    117. A(C   7,C   8,H  10)          111.8650         0.325186   
    118. A(C   7,C   8,H   9)          109.0857         0.325347   
    119. A(H  15,C  12,H  16)          108.5794         0.291943   
    120. A(H  14,C  12,H  16)          108.4992         0.292058   
    121. A(C   7,C  12,H  16)          110.7694         0.325165   
    122. A(H  14,C  12,H  15)          108.1083         0.292110   
    123. A(C   7,C  12,H  15)          111.5568         0.325226   
    124. A(C   7,C  12,H  14)          109.2412         0.325359   
    125. A(C  18,C  17,H  19)          112.9813         0.348244   
    126. A(N   6,C  17,H  19)          116.8686         0.366918   
    127. A(N   6,C  17,C  18)          130.1467         0.445779   
    128. A(C  20,C  18,S  22)          110.1940         0.433642   
    129. A(C  17,C  18,S  22)          116.5853         0.425672   
    130. A(C  17,C  18,C  20)          133.2130         0.429683   
    131. A(C  21,C  20,H  24)          123.5428         0.356069   
    132. A(C  18,C  20,H  24)          123.5139         0.358061   
    133. A(C  18,C  20,C  21)          112.9354         0.435165   
    134. A(C  20,C  21,C  23)          112.8620         0.439459   
    135. A(C  23,C  21,H  25)          123.1487         0.361050   
    136. A(C  20,C  21,H  25)          123.9892         0.355727   
    137. A(C  18,S  22,C  23)           91.3579         0.445482   
    138. A(C  21,C  23,S  22)          112.6502         0.454203   
    139. A(S  22,C  23,H  26)          119.8714         0.367375   
    140. A(C  21,C  23,H  26)          127.4783         0.361467   
    141. A(Ir  0,O  30,C  32)           92.7160         0.340826   
    142. A(Ir  0,O  31,C  32)           91.9564         0.337805   
    143. A(O  31,C  32,C  33)          122.6759         0.432775   
    144. A(O  30,C  32,C  33)          122.1500         0.431408   
    145. A(O  30,C  32,O  31)          115.1739         0.488989   
    146. A(H  35,C  33,H  36)          107.9340         0.291405   
    147. A(H  34,C  33,H  36)          111.2239         0.292030   
    148. A(C  32,C  33,H  36)          110.2660         0.333372   
    149. A(H  34,C  33,H  35)          108.6543         0.291513   
    150. A(C  32,C  33,H  35)          108.5209         0.332748   
    151. A(C  32,C  33,H  34)          110.1592         0.333501   
    152. D(C   2,C   1,Ir  0,O  31)    -89.3480         0.001618   
    153. D(C   4,C   1,Ir  0,O  30)   -144.1530         0.001618   
    154. D(H  27,C   1,Ir  0,O  31)     32.1816         0.001618   
    155. D(H  27,C   1,Ir  0,C   4)   -121.7644         0.001618   
    156. D(C   4,C   1,Ir  0,C   2)   -116.7060         0.001618   
    157. D(H  27,C   1,Ir  0,C   3)   -159.4024         0.001618   
    158. D(C   2,C   1,Ir  0,C   4)    116.7060         0.001618   
    159. D(H  27,C   1,Ir  0,C   5)    158.2365         0.001618   
    160. D(C   2,C   1,Ir  0,C   5)     36.7069         0.001618   
    161. D(C   2,C   1,Ir  0,C   3)     79.0680         0.001618   
    162. D(C   4,C   1,Ir  0,O  31)    153.9460         0.001618   
    163. D(H  27,C   1,Ir  0,N   6)    -61.9592         0.001618   
    164. D(C   4,C   1,Ir  0,C   3)    -37.6380         0.001618   
    165. D(H  27,C   1,Ir  0,O  30)     94.0826         0.001618   
    166. D(C   2,C   1,Ir  0,O  30)    -27.4469         0.001618   
    167. D(C   2,C   1,Ir  0,N   6)    176.5112         0.001618   
    168. D(C   4,C   1,Ir  0,C   5)    -79.9991         0.001618   
    169. D(C   4,C   1,Ir  0,N   6)     59.8052         0.001618   
    170. D(H  27,C   1,Ir  0,C   2)    121.5296         0.001618   
    171. D(C   5,C   2,Ir  0,O  30)    -77.1891         0.001596   
    172. D(C   5,C   2,Ir  0,C   4)     79.5863         0.001596   
    173. D(C   5,C   2,Ir  0,N   6)    109.0902         0.001596   
    174. D(H  28,C   2,Ir  0,C   1)   -120.1391         0.001596   
    175. D(H  28,C   2,Ir  0,O  30)     45.5786         0.001596   
    176. D(C   5,C   2,Ir  0,C   3)     36.8013         0.001596   
    177. D(C   1,C   2,Ir  0,C   5)   -117.0931         0.001596   
    178. D(H  28,C   2,C   1,Ir  0)    123.6384         0.022594   
    179. D(C   5,C   2,C   1,H  27)    173.4924         0.022594   
    180. D(C   1,C   2,Ir  0,C   4)    -37.5069         0.001596   
    181. D(C   1,C   2,Ir  0,C   3)    -80.2918         0.001596   
    182. D(C   5,C   2,C   1,C   4)     -0.0758         0.022594   
    183. D(C   1,C   2,Ir  0,O  31)    102.1721         0.001596   
    184. D(H  28,C   2,Ir  0,C   5)    122.7677         0.001596   
    185. D(C   1,C   2,Ir  0,N   6)     -8.0029         0.001596   
    186. D(C   5,C   2,C   1,Ir  0)    -63.2274         0.022594   
    187. D(H  28,C   2,Ir  0,O  31)    -17.9670         0.001596   
    188. D(Ir  0,C   2,C   1,C   4)     63.1516         0.022594   
    189. D(H  28,C   2,C   1,C   4)   -173.2100         0.022594   
    190. D(C   5,C   2,Ir  0,C   1)    117.0931         0.001596   
    191. D(H  28,C   2,Ir  0,C   3)    159.5691         0.001596   
    192. D(H  28,C   2,Ir  0,N   6)   -128.1420         0.001596   
    193. D(Ir  0,C   2,C   1,H  27)   -123.2801         0.022594   
    194. D(H  28,C   2,Ir  0,C   4)   -157.6460         0.001596   
    195. D(H  28,C   2,C   1,H  27)      0.3583         0.022594   
    196. D(C   1,C   2,Ir  0,O  30)    165.7177         0.001596   
    197. D(C   5,C   2,Ir  0,O  31)   -140.7347         0.001596   
    198. D(H  37,C   3,Ir  0,N   6)     43.3192         0.001637   
    199. D(H  37,C   3,Ir  0,C   2)   -158.9720         0.001637   
    200. D(C   5,C   3,Ir  0,C   2)    -35.7276         0.001637   
    201. D(C   5,C   3,Ir  0,O  30)     69.0777         0.001637   
    202. D(C   5,C   3,Ir  0,N   6)    166.5636         0.001637   
    203. D(C   5,C   3,Ir  0,C   4)   -115.0577         0.001637   
    204. D(H  37,C   3,Ir  0,C   4)    121.6979         0.001637   
    205. D(H  37,C   3,Ir  0,C   1)    158.7225         0.001637   
    206. D(C   5,C   3,Ir  0,C   1)    -78.0331         0.001637   
    207. D(C   4,C   3,Ir  0,O  31)     89.3060         0.001637   
    208. D(H  37,C   3,Ir  0,C   5)   -123.2444         0.001637   
    209. D(C   4,C   3,Ir  0,C   2)     79.3301         0.001637   
    210. D(C   5,C   3,Ir  0,O  31)    -25.7517         0.001637   
    211. D(C   4,C   3,Ir  0,C   5)    115.0577         0.001637   
    212. D(C   4,C   3,Ir  0,C   1)     37.0245         0.001637   
    213. D(C   4,C   3,Ir  0,N   6)    -78.3787         0.001637   
    214. D(C   4,C   3,Ir  0,O  30)   -175.8646         0.001637   
    215. D(H  37,C   3,Ir  0,O  31)   -148.9961         0.001637   
    216. D(H  37,C   3,Ir  0,O  30)    -54.1667         0.001637   
    217. D(H  38,C   4,C   3,H  37)     -3.3260         0.023280   
    218. D(H  38,C   4,C   3,C   5)   -170.6362         0.023280   
    219. D(H  38,C   4,C   3,Ir  0)    123.4639         0.023280   
    220. D(C   1,C   4,C   3,H  37)    171.0220         0.023280   
    221. D(C   1,C   4,C   3,C   5)      3.7118         0.023280   
    222. D(Ir  0,C   4,C   3,H  37)   -126.7899         0.023280   
    223. D(Ir  0,C   4,C   3,C   5)     65.8999         0.023280   
    224. D(H  38,C   4,C   1,H  27)     -1.4451         0.026348   
    225. D(H  38,C   4,C   1,Ir  0)   -124.1795         0.026348   
    226. D(C   3,C   4,C   1,H  27)   -175.7761         0.026348   
    227. D(C   3,C   4,C   1,C   2)     -2.2643         0.026348   
    228. D(C   3,C   4,C   1,Ir  0)     61.4895         0.026348   
    229. D(H  38,C   4,Ir  0,O  31)     81.3006         0.001617   
    230. D(Ir  0,C   4,C   1,H  27)    122.7344         0.026348   
    231. D(H  38,C   4,Ir  0,O  30)   -110.8078         0.001617   
    232. D(H  38,C   4,Ir  0,N   6)     -9.6049         0.001617   
    233. D(H  38,C   4,Ir  0,C   5)   -159.2097         0.001617   
    234. D(H  38,C   4,Ir  0,C   3)   -120.7588         0.001617   
    235. D(Ir  0,C   4,C   1,C   2)    -63.7538         0.026348   
    236. D(H  38,C   4,Ir  0,C   2)    159.6340         0.001617   
    237. D(H  38,C   4,Ir  0,C   1)    121.8312         0.001617   
    238. D(C   3,C   4,Ir  0,O  31)   -157.9406         0.001617   
    239. D(C   3,C   4,Ir  0,O  30)      9.9510         0.001617   
    240. D(C   3,C   4,Ir  0,N   6)    111.1539         0.001617   
    241. D(H  38,C   4,C   1,C   2)    172.0666         0.026348   
    242. D(C   1,C   4,Ir  0,O  31)    -40.5306         0.001617   
    243. D(C   3,C   4,Ir  0,C   1)   -117.4100         0.001617   
    244. D(C   3,C   4,Ir  0,C   5)    -38.4509         0.001617   
    245. D(C   1,C   4,C   3,Ir  0)    -62.1880         0.023280   
    246. D(C   1,C   4,Ir  0,O  30)    127.3610         0.001617   
    247. D(C   1,C   4,Ir  0,N   6)   -131.4361         0.001617   
    248. D(C   1,C   4,Ir  0,C   5)     78.9591         0.001617   
    249. D(C   3,C   4,Ir  0,C   2)    -79.6072         0.001617   
    250. D(C   1,C   4,Ir  0,C   3)    117.4100         0.001617   
    251. D(C   1,C   4,Ir  0,C   2)     37.8028         0.001617   
    252. D(H  29,C   5,C   2,C   1)   -175.9299         0.028316   
    253. D(H  29,C   5,C   2,Ir  0)    122.2754         0.028316   
    254. D(C   3,C   5,C   2,H  28)    175.4559         0.028316   
    255. D(C   3,C   5,C   2,Ir  0)    -59.4027         0.028316   
    256. D(Ir  0,C   5,C   2,H  28)   -125.1414         0.028316   
    257. D(Ir  0,C   5,C   2,C   1)     61.7946         0.028316   
    258. D(H  29,C   5,Ir  0,O  30)     -5.9185         0.001587   
    259. D(H  29,C   5,Ir  0,N   6)     96.8409         0.001587   
    260. D(H  29,C   5,Ir  0,C   4)    158.2667         0.001587   
    261. D(H  29,C   5,Ir  0,C   3)    119.4234         0.001587   
    262. D(H  29,C   5,Ir  0,C   2)   -121.6113         0.001587   
    263. D(H  29,C   5,Ir  0,C   1)   -159.4861         0.001587   
    264. D(C   3,C   5,Ir  0,O  31)    172.1604         0.001587   
    265. D(C   3,C   5,Ir  0,O  30)   -125.3418         0.001587   
    266. D(C   3,C   5,Ir  0,N   6)    -22.5825         0.001587   
    267. D(C   3,C   5,Ir  0,C   4)     38.8433         0.001587   
    268. D(C   3,C   5,Ir  0,C   2)    118.9653         0.001587   
    269. D(H  29,C   5,Ir  0,O  31)    -68.4162         0.001587   
    270. D(C   3,C   5,Ir  0,C   1)     81.0905         0.001587   
    271. D(C   2,C   5,Ir  0,O  31)     53.1951         0.001587   
    272. D(C   2,C   5,Ir  0,O  30)    115.6928         0.001587   
    273. D(C   3,C   5,C   2,C   1)      2.3919         0.028316   
    274. D(C   2,C   5,Ir  0,N   6)   -141.5478         0.001587   
    275. D(C   2,C   5,Ir  0,C   4)    -80.1220         0.001587   
    276. D(C   2,C   5,Ir  0,C   3)   -118.9653         0.001587   
    277. D(H  29,C   5,C   2,H  28)     -2.8660         0.028316   
    278. D(C   2,C   5,Ir  0,C   1)    -37.8748         0.001587   
    279. D(H  29,C   5,C   3,C   4)    174.5493         0.023112   
    280. D(H  29,C   5,C   3,Ir  0)   -120.7531         0.023112   
    281. D(C   2,C   5,C   3,H  37)   -171.0807         0.023112   
    282. D(C   2,C   5,C   3,C   4)     -3.7830         0.023112   
    283. D(C   2,C   5,C   3,Ir  0)     60.9146         0.023112   
    284. D(Ir  0,C   5,C   3,H  37)    128.0047         0.023112   
    285. D(H  29,C   5,C   3,H  37)      7.2515         0.023112   
    286. D(Ir  0,C   5,C   3,C   4)    -64.6976         0.023112   
    287. D(C  17,N   6,Ir  0,O  31)    114.3270         0.001909   
    288. D(C  17,N   6,Ir  0,O  30)     53.9361         0.001909   
    289. D(C  17,N   6,Ir  0,C   5)    -54.3793         0.001909   
    290. D(C  17,N   6,Ir  0,C   4)   -105.7006         0.001909   
    291. D(C  17,N   6,Ir  0,C   3)    -68.6267         0.001909   
    292. D(C  17,N   6,Ir  0,C   2)   -131.7102         0.001909   
    293. D(C  17,N   6,Ir  0,C   1)   -137.3379         0.001909   
    294. D(C   7,N   6,Ir  0,O  31)    -64.5596         0.001909   
    295. D(C   7,N   6,Ir  0,O  30)   -124.9505         0.001909   
    296. D(C   7,N   6,Ir  0,C   5)    126.7341         0.001909   
    297. D(C   7,N   6,Ir  0,C   4)     75.4127         0.001909   
    298. D(C   7,N   6,Ir  0,C   3)    112.4866         0.001909   
    299. D(C   7,N   6,Ir  0,C   2)     49.4032         0.001909   
    300. D(C   7,N   6,Ir  0,C   1)     43.7754         0.001909   
    301. D(H  13,C   7,N   6,C  17)   -179.7758         0.014531   
    302. D(H  13,C   7,N   6,Ir  0)     -0.7458         0.014531   
    303. D(C  12,C   7,N   6,C  17)     62.4908         0.014531   
    304. D(C  12,C   7,N   6,Ir  0)   -118.4792         0.014531   
    305. D(C   8,C   7,N   6,C  17)    -62.6722         0.014531   
    306. D(C   8,C   7,N   6,Ir  0)    116.3578         0.014531   
    307. D(H  11,C   8,C   7,H  13)     61.1195         0.011232   
    308. D(H  11,C   8,C   7,C  12)   -179.8633         0.011232   
    309. D(H  11,C   8,C   7,N   6)    -55.1675         0.011232   
    310. D(H  10,C   8,C   7,H  13)   -177.4025         0.011232   
    311. D(H  10,C   8,C   7,C  12)    -58.3852         0.011232   
    312. D(H  10,C   8,C   7,N   6)     66.3106         0.011232   
    313. D(H   9,C   8,C   7,H  13)    -57.6691         0.011232   
    314. D(H   9,C   8,C   7,C  12)     61.3482         0.011232   
    315. D(H   9,C   8,C   7,N   6)   -173.9560         0.011232   
    316. D(H  16,C  12,C   7,H  13)    -65.6711         0.011236   
    317. D(H  16,C  12,C   7,C   8)    175.8331         0.011236   
    318. D(H  16,C  12,C   7,N   6)     50.6979         0.011236   
    319. D(H  15,C  12,C   7,H  13)    173.2501         0.011236   
    320. D(H  15,C  12,C   7,C   8)     54.7543         0.011236   
    321. D(H  15,C  12,C   7,N   6)    -70.3809         0.011236   
    322. D(H  14,C  12,C   7,H  13)     53.7876         0.011236   
    323. D(H  14,C  12,C   7,C   8)    -64.7082         0.011236   
    324. D(H  14,C  12,C   7,N   6)    170.1566         0.011236   
    325. D(H  19,C  17,N   6,C   7)      2.1124         0.055680   
    326. D(H  19,C  17,N   6,Ir  0)   -176.7384         0.055680   
    327. D(C  18,C  17,N   6,C   7)   -177.1561         0.055680   
    328. D(C  18,C  17,N   6,Ir  0)      3.9931         0.055680   
    329. D(S  22,C  18,C  17,H  19)      2.0815         0.022482   
    330. D(S  22,C  18,C  17,N   6)   -178.6273         0.022482   
    331. D(C  20,C  18,C  17,H  19)   -176.7920         0.022482   
    332. D(C  20,C  18,C  17,N   6)      2.4992         0.022482   
    333. D(H  24,C  20,C  18,S  22)    179.1462         0.027959   
    334. D(H  24,C  20,C  18,C  17)     -1.9272         0.027959   
    335. D(C  21,C  20,C  18,S  22)      0.1418         0.027959   
    336. D(C  21,C  20,C  18,C  17)    179.0684         0.027959   
    337. D(H  25,C  21,C  20,H  24)      0.8747         0.026075   
    338. D(H  25,C  21,C  20,C  18)    179.8787         0.026075   
    339. D(C  23,C  21,C  20,H  24)   -179.0053         0.026075   
    340. D(C  23,C  21,C  20,C  18)     -0.0012         0.026075   
    341. D(C  23,S  22,C  18,C  20)     -0.1886         0.004422   
    342. D(C  23,S  22,C  18,C  17)   -179.3138         0.004422   
    343. D(H  26,C  23,S  22,C  18)   -179.7487         0.005959   
    344. D(C  21,C  23,S  22,C  18)      0.1921         0.005959   
    345. D(H  26,C  23,C  21,H  25)     -0.0927         0.031418   
    346. D(H  26,C  23,C  21,C  20)    179.7884         0.031418   
    347. D(S  22,C  23,C  21,H  25)    179.9719         0.031418   
    348. D(S  22,C  23,C  21,C  20)     -0.1469         0.031418   
    349. D(C  32,O  30,Ir  0,O  31)      0.8500         0.001725   
    350. D(C  32,O  30,Ir  0,N   6)     86.1770         0.001725   
    351. D(C  32,O  30,Ir  0,C   5)   -127.6599         0.001725   
    352. D(C  32,O  30,Ir  0,C   4)   -170.2520         0.001725   
    353. D(C  32,O  30,Ir  0,C   3)   -163.1298         0.001725   
    354. D(C  32,O  30,Ir  0,C   2)    -91.4679         0.001725   
    355. D(C  32,O  30,Ir  0,C   1)    -73.3948         0.001725   
    356. D(C  32,O  31,Ir  0,O  30)     -0.8527         0.001695   
    357. D(C  32,O  31,Ir  0,N   6)    -89.3864         0.001695   
    358. D(C  32,O  31,Ir  0,C   5)     82.2342         0.001695   
    359. D(C  32,O  31,Ir  0,C   4)    174.2392         0.001695   
    360. D(C  32,O  31,Ir  0,C   3)    102.2588         0.001695   
    361. D(C  32,O  31,Ir  0,C   2)    111.3279         0.001695   
    362. D(C  32,O  31,Ir  0,C   1)    149.9161         0.001695   
    363. D(C  33,C  32,O  31,Ir  0)   -178.8004         0.064189   
    364. D(O  30,C  32,O  31,Ir  0)      1.3680         0.064189   
    365. D(C  33,C  32,O  30,Ir  0)    178.7862         0.061671   
    366. D(O  31,C  32,O  30,Ir  0)     -1.3812         0.061671   
    367. D(H  36,C  33,C  32,O  31)    -33.8482         0.014043   
    368. D(H  36,C  33,C  32,O  30)    145.9718         0.014043   
    369. D(H  35,C  33,C  32,O  31)     84.1774         0.014043   
    370. D(H  35,C  33,C  32,O  30)    -96.0026         0.014043   
    371. D(H  34,C  33,C  32,O  31)   -156.9850         0.014043   
    372. D(H  34,C  33,C  32,O  30)     22.8349         0.014043   
    -----------------------------------------------------------------

Number of atoms                         .... 39
Number of degrees of freedom            .... 372

         *************************************************************
         *                GEOMETRY OPTIMIZATION CYCLE   1            *
         *************************************************************
---------------------------------
CARTESIAN COORDINATES (ANGSTROEM)
---------------------------------
  Ir     0.381540   -0.655960    1.113480
  C     -0.165280   -2.445150    2.337330
  C      1.135540   -2.016420    2.759400
  C      1.258210   -2.608250    0.542220
  C     -0.081580   -2.839830    0.982920
  C      2.010110   -2.149990    1.669270
  N     -0.845640    0.015430   -0.377370
  C     -2.268490    0.042500    0.002180
  C     -2.825090    1.466440    0.000320
  H     -3.839670    1.451590    0.387070
  H     -2.848290    1.890600   -0.999930
  H     -2.224090    2.104540    0.642300
  C     -3.088240   -0.885300   -0.894730
  H     -2.319600   -0.332280    1.029100
  H     -4.090810   -0.981520   -0.488840
  H     -3.169120   -0.494650   -1.905410
  H     -2.638380   -1.873650   -0.940450
  C     -0.541930    0.424060   -1.562930
  C      0.708940    0.464240   -2.220720
  H     -1.359980    0.792120   -2.181610
  C      1.983630    0.056830   -1.861010
  C      2.928970    0.283000   -2.861130
  S      0.722060    1.132300   -3.839820
  C      2.390560    0.859300   -3.982440
  H      2.221300   -0.372090   -0.906470
  H      3.970990    0.036530   -2.769700
  H      2.902030    1.135500   -4.884140
  H     -1.025220   -2.552900    2.977850
  H      1.410290   -1.756090    3.767460
  H      3.072170   -1.968030    1.682120
  O      1.429360    1.167110    0.851190
  O     -0.276110    1.106130    2.130850
  C      0.662760    1.791170    1.641740
  C      0.858860    3.230530    1.963290
  H      1.425660    3.716460    1.174420
  H      1.422350    3.303850    2.893280
  H     -0.101290    3.716660    2.114560
  H      1.672790   -2.932740   -0.398440
  H     -0.859310   -3.322050    0.412810

----------------------------
CARTESIAN COORDINATES (A.U.)
----------------------------
  NO LB      ZA    FRAG     MASS         X           Y           Z
   0 Ir   17.0000*   0   192.220    0.721006   -1.239585    2.104172
   1 C     6.0000    0    12.011   -0.312334   -4.620664    4.416914
   2 C     6.0000    0    12.011    2.145860   -3.810482    5.214510
   3 C     6.0000    0    12.011    2.377672   -4.928878    1.024647
   4 C     6.0000    0    12.011   -0.154164   -5.366501    1.857450
   5 C     6.0000    0    12.011    3.798557   -4.062892    3.154463
   6 N     7.0000    0    14.007   -1.598028    0.029158   -0.713126
   7 C     6.0000    0    12.011   -4.286825    0.080313    0.004120
   8 C     6.0000    0    12.011   -5.338646    2.771170    0.000605
   9 H     1.0000    0     1.008   -7.255925    2.743108    0.731456
  10 H     1.0000    0     1.008   -5.382488    3.572716   -1.889594
  11 H     1.0000    0     1.008   -4.202921    3.977004    1.213771
  12 C     6.0000    0    12.011   -5.835928   -1.672975   -1.690795
  13 H     1.0000    0     1.008   -4.383409   -0.627918    1.944717
  14 H     1.0000    0     1.008   -7.730511   -1.854804   -0.923774
  15 H     1.0000    0     1.008   -5.988769   -0.934753   -3.600703
  16 H     1.0000    0     1.008   -4.985816   -3.540685   -1.777193
  17 C     6.0000    0    12.011   -1.024099    0.801357   -2.953510
  18 C     6.0000    0    12.011    1.339702    0.877286   -4.196553
  19 H     1.0000    0     1.008   -2.569990    1.496890   -4.122645
  20 C     6.0000    0    12.011    3.748517    0.107393   -3.516799
  21 C     6.0000    0    12.011    5.534951    0.534792   -5.406752
  22 S    16.0000    0    32.060    1.364496    2.139737   -7.256208
  23 C     6.0000    0    12.011    4.517504    1.623842   -7.525721
  24 H     1.0000    0     1.008    4.197649   -0.703148   -1.712980
  25 H     1.0000    0     1.008    7.504084    0.069032   -5.233974
  26 H     1.0000    0     1.008    5.484042    2.145784   -9.229687
  27 H     1.0000    0     1.008   -1.937385   -4.824282    5.627321
  28 H     1.0000    0     1.008    2.665062   -3.318529    7.119468
  29 H     1.0000    0     1.008    5.805560   -3.719038    3.178746
  30 O     8.0000    0    15.999    2.701099    2.205518    1.608516
  31 O     8.0000    0    15.999   -0.521772    2.090283    4.026723
  32 C     6.0000    0    12.011    1.252435    3.384821    3.102439
  33 C     6.0000    0    12.011    1.623010    6.104817    3.710080
  34 H     1.0000    0     1.008    2.694107    7.023092    2.219332
  35 H     1.0000    0     1.008    2.687852    6.243372    5.467507
  36 H     1.0000    0     1.008   -0.191410    7.023470    3.995939
  37 H     1.0000    0     1.008    3.161115   -5.542075   -0.752942
  38 H     1.0000    0     1.008   -1.623861   -6.277765    0.780098
* core charge reduced due to ECP

--------------------------------
INTERNAL COORDINATES (ANGSTROEM)
--------------------------------
 Ir     0   0   0     0.000000000000     0.00000000     0.00000000
 C      1   0   0     2.235625592759     0.00000000     0.00000000
 C      2   1   0     1.433207999629    72.53098985     0.00000000
 C      1   2   3     2.215022465033    62.13494554    79.06803101
 C      2   1   3     1.413224837207    71.60131297   243.29398860
 C      3   2   1     1.403957637075   107.95476189   296.77257189
 N      1   2   3     2.044350509820   121.01233376   176.51119348
 C      7   1   2     1.472852032588   113.45377247    43.77544127
 C      8   7   1     1.528859752626   111.62357405   116.35781056
 H      9   8   7     1.085895327092   109.08572801   186.04399077
 H      9   8   7     1.086715237815   111.86495306    66.31057889
 H      9   8   7     1.086513198447   110.17506573   304.83252397
 C      8   7   1     1.528806871583   110.83394556   241.52078867
 H      8   7   1     1.094366011397   106.29831305   359.25421743
 H     13   8   7     1.085887464427   109.24120479   170.15656246
 H     13   8   7     1.086564797562   111.55682746   289.61905289
 H     13   8   7     1.086876285738   110.76942079    50.69785776
 C      7   1   2     1.290259956210   129.25619796   222.66208453
 C     18   7   1     1.413852139865   130.14665931     3.99308381
 H     18   7   1     1.089696704822   116.86861433   183.26156360
 C     19  18   7     1.385715983995   133.21304448     2.49924560
 C     21  19  18     1.394654293687   112.93538914   179.06838854
 S     19  18   7     1.751559621594   116.58526535   181.37271990
 C     22  21  19     1.370891364843   112.86201290     0.00000000
 H     21  19  18     1.073129072805   123.51388088   358.07281352
 H     22  21  19     1.074668593660   123.98915117   179.87874345
 H     24  22  21     1.072823793034   127.47830609   179.78838414
 H      2   1   3     1.077670049923   126.91027635   121.52957364
 H      3   2   1     1.076774923092   125.42333153   123.63844783
 H      6   3   2     1.077611250730   126.05904446   184.07005480
 O      1   2   3     2.119034454982   151.31076324   332.55305783
 O     31   1   2     2.133043880679    60.38214844   285.75521083
 C     32  31   1     1.260946180691    32.48207211   178.41291040
 C     33  32  31     1.487819485724   122.67586314   179.83155041
 H     34  33  32     1.086142753877   110.15920551   203.01499493
 H     34  33  32     1.089852376517   108.52093813    84.17741557
 H     34  33  32     1.086781032361   110.26598078   326.15183734
 H      4   1   2     1.077966405831   129.98475152   158.72245096
 H      5   2   1     1.078158380480   126.08336147   235.82047654

---------------------------
INTERNAL COORDINATES (A.U.)
---------------------------
 Ir     0   0   0     0.000000000000     0.00000000     0.00000000
 C      1   0   0     4.224720108300     0.00000000     0.00000000
 C      2   1   0     2.708370612244    72.53098985     0.00000000
 C      1   2   3     4.185785839395    62.13494554    79.06803101
 C      2   1   3     2.670607907978    71.60131297   243.29398860
 C      3   2   1     2.653095437698   107.95476189   296.77257189
 N      1   2   3     3.863262585301   121.01233376   176.51119348
 C      7   1   2     2.783286977381   113.45377247    43.77544127
 C      8   7   1     2.889126229638   111.62357405   116.35781056
 H      9   8   7     2.052044778309   109.08572801   186.04399077
 H      9   8   7     2.053594185030   111.86495306    66.31057889
 H      9   8   7     2.053212385956   110.17506573   304.83252397
 C      8   7   1     2.889026298949   110.83394556   241.52078867
 H      8   7   1     2.068052051811   106.29831305   359.25421743
 H     13   8   7     2.052029920025   109.24120479   170.15656246
 H     13   8   7     2.053309894151   111.55682746   289.61905289
 H     13   8   7     2.053898521499   110.76942079    50.69785776
 C      7   1   2     2.438237958803   129.25619796   222.66208453
 C     18   7   1     2.671793338203   130.14665931     3.99308381
 H     18   7   1     2.059228341150   116.86861433   183.26156360
 C     19  18   7     2.618623709148   133.21304448     2.49924560
 C     21  19  18     2.635514666566   112.93538914   179.06838854
 S     19  18   7     3.309967992048   116.58526535   181.37271990
 C     22  21  19     2.590609238910   112.86201290     0.00000000
 H     21  19  18     2.027920053951   123.51388088   358.07281352
 H     22  21  19     2.030829326744   123.98915117   179.87874345
 H     24  22  21     2.027343158789   127.47830609   179.78838414
 H      2   1   3     2.036501257083   126.91027635   121.52957364
 H      3   2   1     2.034809712518   125.42333153   123.63844783
 H      6   3   2     2.036390142712   126.05904446   184.07005480
 O      1   2   3     4.004394788259   151.31076324   332.55305783
 O     31   1   2     4.030868766119    60.38214844   285.75521083
 C     32  31   1     2.382842951121    32.48207211   178.41291040
 C     33  32  31     2.811571364730   122.67586314   179.83155041
 H     34  33  32     2.052512347171   110.15920551   203.01499493
 H     34  33  32     2.059522518021   108.52093813    84.17741557
 H     34  33  32     2.053718518703   110.26598078   326.15183734
 H      4   1   2     2.037061288588   129.98475152   158.72245096
 H      5   2   1     2.037424068100   126.08336147   235.82047654

---------------------
BASIS SET INFORMATION
---------------------
There are 6 groups of distinct atoms

 Group   1 Type Ir  : 7s6p5d1f contracted to 6s3p2d1f pattern {211111/411/41/1}
 Group   2 Type C   : 8s4p1d contracted to 4s2p1d pattern {5111/31/1}
 Group   3 Type N   : 8s4p1d contracted to 4s2p1d pattern {5111/31/1}
 Group   4 Type H   : 4s contracted to 2s pattern {31}
 Group   5 Type S   : 10s7p1d contracted to 4s3p1d pattern {5311/511/1}
 Group   6 Type O   : 8s4p1d contracted to 4s2p1d pattern {5111/31/1}

Atom   0Ir   basis set group =>   1
Atom   1C    basis set group =>   2
Atom   2C    basis set group =>   2
Atom   3C    basis set group =>   2
Atom   4C    basis set group =>   2
Atom   5C    basis set group =>   2
Atom   6N    basis set group =>   3
Atom   7C    basis set group =>   2
Atom   8C    basis set group =>   2
Atom   9H    basis set group =>   4
Atom  10H    basis set group =>   4
Atom  11H    basis set group =>   4
Atom  12C    basis set group =>   2
Atom  13H    basis set group =>   4
Atom  14H    basis set group =>   4
Atom  15H    basis set group =>   4
Atom  16H    basis set group =>   4
Atom  17C    basis set group =>   2
Atom  18C    basis set group =>   2
Atom  19H    basis set group =>   4
Atom  20C    basis set group =>   2
Atom  21C    basis set group =>   2
Atom  22S    basis set group =>   5
Atom  23C    basis set group =>   2
Atom  24H    basis set group =>   4
Atom  25H    basis set group =>   4
Atom  26H    basis set group =>   4
Atom  27H    basis set group =>   4
Atom  28H    basis set group =>   4
Atom  29H    basis set group =>   4
Atom  30O    basis set group =>   6
Atom  31O    basis set group =>   6
Atom  32C    basis set group =>   2
Atom  33C    basis set group =>   2
Atom  34H    basis set group =>   4
Atom  35H    basis set group =>   4
Atom  36H    basis set group =>   4
Atom  37H    basis set group =>   4
Atom  38H    basis set group =>   4
---------------------------------
AUXILIARY/J BASIS SET INFORMATION
---------------------------------
There are 6 groups of distinct atoms

 Group   1 Type Ir  : 11s5p5d3f3g contracted to 8s5p5d2f3g pattern {41111111/11111/11111/21/111}
 Group   2 Type C   : 12s5p4d2f1g contracted to 6s4p3d1f1g pattern {711111/2111/211/2/1}
 Group   3 Type N   : 12s5p4d2f1g contracted to 6s4p3d1f1g pattern {711111/2111/211/2/1}
 Group   4 Type H   : 5s2p1d contracted to 3s1p1d pattern {311/2/1}
 Group   5 Type S   : 14s5p5d2f1g contracted to 8s4p3d1f1g pattern {71111111/2111/311/2/1}
 Group   6 Type O   : 12s5p4d2f1g contracted to 6s4p3d1f1g pattern {711111/2111/211/2/1}

Atom   0Ir   basis set group =>   1
Atom   1C    basis set group =>   2
Atom   2C    basis set group =>   2
Atom   3C    basis set group =>   2
Atom   4C    basis set group =>   2
Atom   5C    basis set group =>   2
Atom   6N    basis set group =>   3
Atom   7C    basis set group =>   2
Atom   8C    basis set group =>   2
Atom   9H    basis set group =>   4
Atom  10H    basis set group =>   4
Atom  11H    basis set group =>   4
Atom  12C    basis set group =>   2
Atom  13H    basis set group =>   4
Atom  14H    basis set group =>   4
Atom  15H    basis set group =>   4
Atom  16H    basis set group =>   4
Atom  17C    basis set group =>   2
Atom  18C    basis set group =>   2
Atom  19H    basis set group =>   4
Atom  20C    basis set group =>   2
Atom  21C    basis set group =>   2
Atom  22S    basis set group =>   5
Atom  23C    basis set group =>   2
Atom  24H    basis set group =>   4
Atom  25H    basis set group =>   4
Atom  26H    basis set group =>   4
Atom  27H    basis set group =>   4
Atom  28H    basis set group =>   4
Atom  29H    basis set group =>   4
Atom  30O    basis set group =>   6
Atom  31O    basis set group =>   6
Atom  32C    basis set group =>   2
Atom  33C    basis set group =>   2
Atom  34H    basis set group =>   4
Atom  35H    basis set group =>   4
Atom  36H    basis set group =>   4
Atom  37H    basis set group =>   4
Atom  38H    basis set group =>   4
-------------------------
ECP PARAMETER INFORMATION
-------------------------

 Group 1, Type Ir ECP Def2-ECP (replacing 60 core electrons, lmax=3)

Atom   0Ir   ECP group =>   1



           ************************************************************
           *        Program running with 4 parallel MPI-processes     *
           *              working on a common directory               *
           ************************************************************
------------------------------------------------------------------------------
                           ORCA GTO INTEGRAL CALCULATION
                           -- RI-GTO INTEGRALS CHOSEN --
------------------------------------------------------------------------------
------------------------------------------------------------------------------
                   ___                                                        
                  /   \      - P O W E R E D   B Y -                         
                 /     \                                                     
                 |  |  |   _    _      __       _____    __    __             
                 |  |  |  | |  | |    /  \     |  _  \  |  |  /  |          
                  \  \/   | |  | |   /    \    | | | |  |  | /  /          
                 / \  \   | |__| |  /  /\  \   | |_| |  |  |/  /          
                |  |  |   |  __  | /  /__\  \  |    /   |      \           
                |  |  |   | |  | | |   __   |  |    \   |  |\   \          
                \     /   | |  | | |  |  |  |  | |\  \  |  | \   \       
                 \___/    |_|  |_| |__|  |__|  |_| \__\ |__|  \__/        
                                                                              
                      - O R C A' S   B I G   F R I E N D -                    
                                      &                                       
                       - I N T E G R A L  F E E D E R -                       
                                                                              
 v1 FN, 2020, v2 2021                                                         
------------------------------------------------------------------------------


Reading SHARK input file reaction-4-rct-pbeh3c-orca_opt.SHARKINP.tmp ... ok
----------------------
SHARK INTEGRAL PACKAGE
----------------------

Number of atoms                             ...     39
Number of basis functions                   ...    358
Number of shells                            ...    184
Maximum angular momentum                    ...      3
Integral batch strategy                     ... SHARK/LIBINT Hybrid
RI-J (if used) integral strategy            ... SPLIT-RIJ (Revised 2003 algorithm where possible)
Printlevel                                  ...      1
Contraction scheme used                     ... SEGMENTED contraction
Coulomb Range Separation                    ... NOT USED
Exchange Range Separation                   ... NOT USED
Finite Nucleus Model                        ... NOT USED
Auxiliary Coulomb fitting basis             ... AVAILABLE
   # of basis functions in Aux-J            ...   1231
   # of shells in Aux-J                     ...    405
   Maximum angular momentum in Aux-J        ...      4
Auxiliary J/K fitting basis                 ... NOT available
Auxiliary Correlation fitting basis         ... NOT available
Auxiliary 'external' fitting basis          ... NOT available
Integral threshold                          ...     2.500000e-11
Primitive cut-off                           ...     2.500000e-12
Primitive pair pre-selection threshold      ...     2.500000e-12

Calculating pre-screening integrals         ... done (  0.1 sec) Dimension = 184
Organizing shell pair data                  ... done (  0.1 sec)
Shell pair information
Total number of shell pairs                 ...     17020
Shell pairs after pre-screening             ...     12659
Total number of primitive shell pairs       ...     60705
Primitive shell pairs kept                  ...     28495
          la=0 lb=0:   4849 shell pairs
          la=1 lb=0:   4178 shell pairs
          la=1 lb=1:    846 shell pairs
          la=2 lb=0:   1689 shell pairs
          la=2 lb=1:    760 shell pairs
          la=2 lb=2:    168 shell pairs
          la=3 lb=0:    108 shell pairs
          la=3 lb=1:     40 shell pairs
          la=3 lb=2:     20 shell pairs
          la=3 lb=3:      1 shell pairs

Calculating one electron integrals          ... done (  0.0 sec)
Calculating ECP integrals                   ... done (  1.0 sec)
Calculating RI/J V-Matrix + Cholesky decomp.... done (  0.1 sec)
Calculating Nuclear repulsion               ... done (  0.0 sec) ENN=   1993.572288790605 Eh

SHARK setup successfully completed in   1.4 seconds

Maximum memory used throughout the entire GTOINT-calculation: 26.9 MB


           ************************************************************
           *        Program running with 4 parallel MPI-processes     *
           *              working on a common directory               *
           ************************************************************
-------------------------------------------------------------------------------
                                 ORCA SCF
-------------------------------------------------------------------------------

------------
SCF SETTINGS
------------
Hamiltonian:
 Density Functional     Method          .... DFT(GTOs)
 Exchange Functional    Exchange        .... PBE
   PBE kappa parameter   XKappa         ....  1.024500
   PBE mue parameter    XMuePBE         ....  0.123457
 Correlation Functional Correlation     .... PBE
   PBE beta parameter  CBetaPBE         ....  0.030000
 LDA part of GGA corr.  LDAOpt          .... PW91-LDA
 Gradients option       PostSCFGGA      .... off
 Hybrid DFT is turned on
   Fraction HF Exchange ScalHFX         ....  0.420000
   Scaling of DF-GGA-X  ScalDFX         ....  0.580000
   Scaling of DF-GGA-C  ScalDFC         ....  1.000000
   Scaling of DF-LDA-C  ScalLDAC        ....  1.000000
   Perturbative correction              ....  0.000000
   Density functional embedding theory  .... OFF
 RI-approximation to the Coulomb term is turned on
   Number of AuxJ basis functions       .... 1231
   RIJ-ON(X) (HFX calculated with O(N)) .... on
   Number of AuxJ basis functions       .... 1231
   RIJ-COSX (HFX calculated with COS-X)).... on


General Settings:
 Integral files         IntName         .... reaction-4-rct-pbeh3c-orca_opt
 Hartree-Fock type      HFTyp           .... RHF
 Total Charge           Charge          ....    1
 Multiplicity           Mult            ....    1
 Number of Electrons    NEL             ....  164
 Basis Dimension        Dim             ....  358
 Nuclear Repulsion      ENuc            ....   1993.5722887906 Eh

Convergence Acceleration:
 DIIS                   CNVDIIS         .... on
   Start iteration      DIISMaxIt       ....    12
   Startup error        DIISStart       ....  0.200000
   # of expansion vecs  DIISMaxEq       ....     5
   Bias factor          DIISBfac        ....   1.050
   Max. coefficient     DIISMaxC        ....  10.000
 Trust-Rad. Augm. Hess. CNVTRAH         .... auto
   Auto Start mean grad. ratio tolernc. ....  1.125000
   Auto Start start iteration           ....    20
   Auto Start num. interpolation iter.  ....    10
   Max. Number of Micro iterations      ....    16
   Max. Number of Macro iterations      .... Maxiter - #DIIS iter
   Number of Davidson start vectors     ....     2
   Converg. threshold I  (grad. norm)   ....   1.000e-05
   Converg. threshold II (energy diff.) ....   1.000e-08
   Grad. Scal. Fac. for Micro threshold ....   0.100
   Minimum threshold for Micro iter.    ....   0.010
   NR start threshold (gradient norm)   ....   0.001
   Initial trust radius                 ....   0.400
   Minimum AH scaling param. (alpha)    ....   1.000
   Maximum AH scaling param. (alpha)    .... 1000.000
   Orbital update algorithm             .... Taylor
   White noise on init. David. guess    .... on
   Maximum white noise                  ....   0.010
   Quad. conv. algorithm                .... NR
   COSX micro iterations for RIJONX calc.... off
 SOSCF                  CNVSOSCF        .... off
 Level Shifting         CNVShift        .... on
   Level shift para.    LevelShift      ....    0.2500
   Turn off err/grad.   ShiftErr        ....    0.0010
 Zerner damping         CNVZerner       .... off
 Static damping         CNVDamp         .... on
   Fraction old density DampFac         ....    0.7000
   Max. Damping (<1)    DampMax         ....    0.9800
   Min. Damping (>=0)   DampMin         ....    0.0000
   Turn off err/grad.   DampErr         ....    0.1000
 Fernandez-Rico         CNVRico         .... off

SCF Procedure:
 Maximum # iterations   MaxIter         ....   125
 SCF integral mode      SCFMode         .... Direct
   Integral package                     .... SHARK and LIBINT hybrid scheme
 Reset frequency        DirectResetFreq ....    20
 Integral Threshold     Thresh          ....  2.500e-11 Eh
 Primitive CutOff       TCut            ....  2.500e-12 Eh

Convergence Tolerance:
 Convergence Check Mode ConvCheckMode   .... Total+1el-Energy
 Convergence forced     ConvForced      .... 0
 Energy Change          TolE            ....  1.000e-08 Eh
 1-El. energy change                    ....  1.000e-05 Eh
 DIIS Error             TolErr          ....  5.000e-07


Diagonalization of the overlap matrix:
Smallest eigenvalue                        ... 8.652e-04
Time for diagonalization                   ...    0.021 sec
Threshold for overlap eigenvalues          ... 1.000e-08
Number of eigenvalues below threshold      ... 0
Time for construction of square roots      ...    0.010 sec
Total time needed                          ...    0.032 sec

--------------------
INITIAL GUESS: HCORE
--------------------
                      -----------------
                      INTIAL GUESS DONE 
                      -----------------
-------------------
DFT GRID GENERATION
-------------------

General Integration Accuracy     IntAcc      ... 4.159
Radial Grid Type                 RadialGrid  ... OptM3 with GC (2021)
Angular Grid (max. ang.)         AngularGrid ... 3 (Lebedev-194)
Angular grid pruning method      GridPruning ... 4 (adaptive)
Weight generation scheme         WeightScheme... Becke
Basis function cutoff            BFCut       ... 1.0000e-11
Integration weight cutoff        WCut        ... 1.0000e-14
Angular grids for H and He will be reduced by one unit
Partially contracted basis set               ... off
Rotationally invariant grid construction     ... off

Total number of grid points                  ...    93592
Total number of batches                      ...     1486
Average number of points per batch           ...       62
Average number of grid points per atom       ...     2400
Time for grid setup =    0.637 sec

--------------------
COSX GRID GENERATION
--------------------

GRIDX 1
-------
General Integration Accuracy     IntAcc      ... 3.816
Radial Grid Type                 RadialGrid  ... OptM3 with GC (2021)
Angular Grid (max. ang.)         AngularGrid ... 1 (Lebedev-50)
Angular grid pruning method      GridPruning ... 4 (adaptive)
Weight generation scheme         WeightScheme... Becke
Basis function cutoff            BFCut       ... 1.0000e-11
Integration weight cutoff        WCut        ... 1.0000e-14
Angular grids for H and He will be reduced by one unit
Partially contracted basis set               ... on
Rotationally invariant grid construction     ... off

Total number of grid points                  ...    23238
Total number of batches                      ...      386
Average number of points per batch           ...       60
Average number of grid points per atom       ...      596
UseSFitting                                  ... on

GRIDX 2
-------
General Integration Accuracy     IntAcc      ... 4.020
Radial Grid Type                 RadialGrid  ... OptM3 with GC (2021)
Angular Grid (max. ang.)         AngularGrid ... 2 (Lebedev-110)
Angular grid pruning method      GridPruning ... 4 (adaptive)
Weight generation scheme         WeightScheme... Becke
Basis function cutoff            BFCut       ... 1.0000e-11
Integration weight cutoff        WCut        ... 1.0000e-14
Angular grids for H and He will be reduced by one unit
Partially contracted basis set               ... on
Rotationally invariant grid construction     ... off

Total number of grid points                  ...    50516
Total number of batches                      ...      812
Average number of points per batch           ...       62
Average number of grid points per atom       ...     1295
UseSFitting                                  ... on

GRIDX 3
-------
General Integration Accuracy     IntAcc      ... 4.338
Radial Grid Type                 RadialGrid  ... OptM3 with GC (2021)
Angular Grid (max. ang.)         AngularGrid ... 3 (Lebedev-194)
Angular grid pruning method      GridPruning ... 4 (adaptive)
Weight generation scheme         WeightScheme... Becke
Basis function cutoff            BFCut       ... 1.0000e-11
Integration weight cutoff        WCut        ... 1.0000e-14
Angular grids for H and He will be reduced by one unit
Partially contracted basis set               ... on
Rotationally invariant grid construction     ... off

Total number of grid points                  ...   109275
Total number of batches                      ...     1730
Average number of points per batch           ...       63
Average number of grid points per atom       ...     2802
UseSFitting                                  ... on

Time for X-Grid setup             =    1.660 sec

--------------
SCF ITERATIONS
--------------
ITER       Energy         Delta-E        Max-DP      RMS-DP      [F,P]     Damp
               ***  Starting incremental Fock matrix formation  ***
  0   -825.8439323479   0.00000000000029.96985760  0.25962998  3.2858378 0.7000
  1  -1075.4987834599-249.65485111205710.95928171  0.13863376  1.4215920 0.7000
  2  -1155.7891624869 -80.290379026979 5.62138545  0.07471147  0.9109029 0.7000
  3  -1188.1416952911 -32.352532804165 4.66275095  0.05528920  0.6482440 0.7000
  4  -1207.4846945535 -19.342999262418 2.59855960  0.04145135  0.4687703 0.7000
  5  -1220.9672745303 -13.482579976823 3.26918562  0.03818525  0.3293446 0.7000
  6  -1234.8695313825 -13.902256852226 2.84209225  0.03371287  0.2724275 0.7000
  7  -1240.6189240654  -5.749392682839 3.05324861  0.03343566  0.2393946 0.7000
  8  -1247.7243268933  -7.105402827956 2.98089049  0.03025735  0.2770577 0.7000
  9  -1249.4739956356  -1.749668742231 3.03110468  0.03135390  0.2951770 0.7000
 10  -1254.2564289713  -4.782433335732 3.06636805  0.03006561  0.2923457 0.7000
 11  -1254.0673037648   0.189125206464 3.04168544  0.03072140  0.3319207 0.7000
                               ***Turning on DIIS***
 12  -1257.4749534744  -3.407649709548 3.07522388  0.03024022  0.3021499 0.7000
 13  -1256.3078326230   1.167120851425 2.91342271  0.02772950  0.3511203 0.7000
 14  -1266.6359338118 -10.328101188832 2.04384126  0.01957485  0.2656051 0.7000
 15  -1273.6497096663  -7.013775854518 1.44013455  0.01377936  0.1829274 0.7000
 16  -1278.3542198885  -4.704510222155 1.01177061  0.00969040  0.1187469 0.7000
 17  -1281.4993798588  -3.145159970362 2.36062039  0.02267276  0.0742636 0.0000
 18  -1288.4338618411  -6.934481982241 0.02895487  0.00054370  0.0359623 0.0000
 19  -1288.4530399990  -0.019178157958 0.02587354  0.00048103  0.0212801 0.0000
               *** Restarting incremental Fock matrix formation ***
                                   *** Resetting DIIS ***
 20  -1288.4595831464  -0.006543147347 0.04985624  0.00069461  0.0203607 0.0000
 21  -1288.4636950621  -0.004111915723 0.02233623  0.00028180  0.0250426 0.0000
 22  -1288.4677804348  -0.004085372658 0.00723291  0.00011982  0.0046098 0.0000
 23  -1288.4682890710  -0.000508636208 0.00446303  0.00008063  0.0035808 0.0000
 24  -1288.4685006483  -0.000211577331 0.00235781  0.00004893  0.0010109 0.0000
 25  -1288.4685797868  -0.000079138473 0.00305142  0.00005165  0.0007301 0.0000
               *** Restarting incremental Fock matrix formation ***
                                   *** Resetting DIIS ***
 26  -1288.4692361751  -0.000656388358 0.00507217  0.00008797  0.0006206 0.0000
 27  -1288.4692478418  -0.000011666678 0.00100271  0.00001332  0.0012195 0.0000
 28  -1288.4692557659  -0.000007924102 0.00064966  0.00000839  0.0002301 0.0000
 29  -1288.4692565296  -0.000000763716 0.00034197  0.00000335  0.0001506 0.0000
 30  -1288.4692568425  -0.000000312843 0.00023651  0.00000233  0.0001124 0.0000
 31  -1288.4692569859  -0.000000143425 0.00014947  0.00000142  0.0000356 0.0000
 32  -1288.4692570288  -0.000000042919 0.00004619  0.00000047  0.0000176 0.0000
 33  -1288.4692570420  -0.000000013139 0.00005856  0.00000050  0.0000113 0.0000
 34  -1288.4692570443  -0.000000002366 0.00001792  0.00000016  0.0000083 0.0000
 35  -1288.4692570438   0.000000000508 0.00000518  0.00000006  0.0000049 0.0000
 36  -1288.4692570405   0.000000003324 0.00000357  0.00000003  0.0000013 0.0000
 37  -1288.4692570385   0.000000002030 0.00000367  0.00000003  0.0000019 0.0000
                            ***DIIS convergence achieved***

               *****************************************************
               *                     SUCCESS                       *
               *           SCF CONVERGED AFTER  38 CYCLES          *
               *****************************************************

Old exchange energy                            =    -59.652230575 Eh
New exchange energy                            =    -59.652227390 Eh
Exchange energy change after final integration =      0.000003186 Eh
Total energy after final integration           =  -1288.469253861 Eh
Final COS-X integration done in                =    16.548 sec

----------------
TOTAL SCF ENERGY
----------------

Total Energy       :        -1288.46925386 Eh          -35061.03087 eV

Components:
Nuclear Repulsion  :         1993.57228879 Eh           54247.85989 eV
Electronic Energy  :        -3282.04154265 Eh          -89308.89075 eV
One Electron Energy:        -5743.17780339 Eh         -156279.81314 eV
Two Electron Energy:         2461.13626073 Eh           66970.92239 eV
Max COSX asymmetry :            0.00001570 Eh               0.00043 eV

Virial components:
Potential Energy   :        -2501.53620092 Eh          -68070.26065 eV
Kinetic Energy     :         1213.06694706 Eh           33009.22979 eV
Virial Ratio       :            2.06215841


DFT components:
N(Alpha)           :       82.000401908669 electrons
N(Beta)            :       82.000401908669 electrons
N(Total)           :      164.000803817339 electrons
E(X)               :      -79.579496374944 Eh       
E(C)               :       -7.440748240335 Eh       
E(XC)              :      -87.020244615278 Eh       
DFET-embed. en.    :        0.000000000000 Eh       

---------------
SCF CONVERGENCE
---------------

  Last Energy change         ...   -7.7437e-09  Tolerance :   1.0000e-08
  Last MAX-Density change    ...    0.0000e+00  Tolerance :   1.0000e-07
  Last RMS-Density change    ...    0.0000e+00  Tolerance :   5.0000e-09
  Last DIIS Error            ...    6.6549e-07  Tolerance :   5.0000e-07

             **** THE GBW FILE WAS UPDATED (reaction-4-rct-pbeh3c-orca_opt.gbw) ****
             **** DENSITY reaction-4-rct-pbeh3c-orca_opt.scfp WAS UPDATED ****
             **** ENERGY FILE WAS UPDATED (reaction-4-rct-pbeh3c-orca_opt.en.tmp) ****
             **** THE GBW FILE WAS UPDATED (reaction-4-rct-pbeh3c-orca_opt.gbw) ****
             **** DENSITY reaction-4-rct-pbeh3c-orca_opt.scfp WAS UPDATED ****
----------------
ORBITAL ENERGIES
----------------

  NO   OCC          E(Eh)            E(eV) 
   0   2.0000     -89.746515     -2442.1268 
   1   2.0000     -19.641524      -534.4730 
   2   2.0000     -19.639141      -534.4082 
   3   2.0000     -14.823965      -403.3806 
   4   2.0000     -10.703662      -291.2615 
   5   2.0000     -10.650523      -289.8155 
   6   2.0000     -10.630804      -289.2789 
   7   2.0000     -10.627670      -289.1936 
   8   2.0000     -10.626005      -289.1483 
   9   2.0000     -10.618293      -288.9384 
  10   2.0000     -10.617247      -288.9100 
  11   2.0000     -10.608731      -288.6783 
  12   2.0000     -10.606325      -288.6128 
  13   2.0000     -10.603155      -288.5265 
  14   2.0000     -10.584609      -288.0219 
  15   2.0000     -10.570676      -287.6427 
  16   2.0000     -10.556081      -287.2456 
  17   2.0000     -10.546270      -286.9786 
  18   2.0000     -10.540831      -286.8306 
  19   2.0000      -8.385790      -228.1889 
  20   2.0000      -6.275789      -170.7729 
  21   2.0000      -6.272384      -170.6803 
  22   2.0000      -6.270463      -170.6280 
  23   2.0000      -4.025798      -109.5475 
  24   2.0000      -2.343325       -63.7651 
  25   2.0000      -2.310547       -62.8732 
  26   2.0000      -2.307047       -62.7779 
  27   2.0000      -1.348569       -36.6964 
  28   2.0000      -1.224026       -33.3075 
  29   2.0000      -1.193089       -32.4656 
  30   2.0000      -1.162378       -31.6299 
  31   2.0000      -1.114268       -30.3208 
  32   2.0000      -1.009391       -27.4669 
  33   2.0000      -0.974424       -26.5154 
  34   2.0000      -0.966091       -26.2887 
  35   2.0000      -0.960356       -26.1326 
  36   2.0000      -0.956210       -26.0198 
  37   2.0000      -0.952304       -25.9135 
  38   2.0000      -0.891433       -24.2571 
  39   2.0000      -0.867189       -23.5974 
  40   2.0000      -0.794771       -21.6268 
  41   2.0000      -0.779536       -21.2123 
  42   2.0000      -0.777838       -21.1660 
  43   2.0000      -0.770920       -20.9778 
  44   2.0000      -0.765423       -20.8282 
  45   2.0000      -0.748567       -20.3696 
  46   2.0000      -0.732643       -19.9362 
  47   2.0000      -0.717268       -19.5179 
  48   2.0000      -0.689839       -18.7715 
  49   2.0000      -0.682343       -18.5675 
  50   2.0000      -0.681528       -18.5453 
  51   2.0000      -0.667604       -18.1664 
  52   2.0000      -0.646590       -17.5946 
  53   2.0000      -0.634383       -17.2624 
  54   2.0000      -0.627470       -17.0743 
  55   2.0000      -0.625935       -17.0325 
  56   2.0000      -0.620316       -16.8797 
  57   2.0000      -0.607090       -16.5198 
  58   2.0000      -0.601054       -16.3555 
  59   2.0000      -0.599585       -16.3155 
  60   2.0000      -0.591622       -16.0988 
  61   2.0000      -0.583932       -15.8896 
  62   2.0000      -0.579578       -15.7711 
  63   2.0000      -0.574587       -15.6353 
  64   2.0000      -0.568717       -15.4756 
  65   2.0000      -0.562443       -15.3049 
  66   2.0000      -0.559136       -15.2149 
  67   2.0000      -0.541670       -14.7396 
  68   2.0000      -0.535189       -14.5632 
  69   2.0000      -0.531924       -14.4744 
  70   2.0000      -0.523925       -14.2567 
  71   2.0000      -0.522117       -14.2075 
  72   2.0000      -0.511729       -13.9249 
  73   2.0000      -0.505468       -13.7545 
  74   2.0000      -0.501770       -13.6539 
  75   2.0000      -0.477505       -12.9936 
  76   2.0000      -0.470000       -12.7894 
  77   2.0000      -0.461582       -12.5603 
  78   2.0000      -0.431870       -11.7518 
  79   2.0000      -0.422984       -11.5100 
  80   2.0000      -0.418001       -11.3744 
  81   2.0000      -0.394002       -10.7213 
  82   0.0000      -0.180309        -4.9065 
  83   0.0000      -0.174698        -4.7538 
  84   0.0000      -0.145167        -3.9502 
  85   0.0000      -0.084438        -2.2977 
  86   0.0000      -0.073851        -2.0096 
  87   0.0000      -0.069020        -1.8781 
  88   0.0000      -0.064811        -1.7636 
  89   0.0000      -0.061549        -1.6748 
  90   0.0000      -0.037738        -1.0269 
  91   0.0000      -0.011306        -0.3077 
  92   0.0000      -0.006285        -0.1710 
  93   0.0000       0.002468         0.0672 
  94   0.0000       0.015117         0.4114 
  95   0.0000       0.017074         0.4646 
  96   0.0000       0.027727         0.7545 
  97   0.0000       0.037374         1.0170 
  98   0.0000       0.051801         1.4096 
  99   0.0000       0.063484         1.7275 
 100   0.0000       0.073710         2.0057 
 101   0.0000       0.075704         2.0600 
 102   0.0000       0.084736         2.3058 
 103   0.0000       0.088929         2.4199 
 104   0.0000       0.090391         2.4597 
 105   0.0000       0.093593         2.5468 
 106   0.0000       0.097623         2.6565 
 107   0.0000       0.105295         2.8652 
 108   0.0000       0.107554         2.9267 
 109   0.0000       0.113893         3.0992 
 110   0.0000       0.115941         3.1549 
 111   0.0000       0.120233         3.2717 
 112   0.0000       0.126163         3.4331 
 113   0.0000       0.128310         3.4915 
 114   0.0000       0.129043         3.5114 
 115   0.0000       0.136730         3.7206 
 116   0.0000       0.141562         3.8521 
 117   0.0000       0.142450         3.8763 
 118   0.0000       0.162328         4.4172 
 119   0.0000       0.167056         4.5458 
 120   0.0000       0.174836         4.7575 
 121   0.0000       0.180321         4.9068 
 122   0.0000       0.193623         5.2687 
 123   0.0000       0.202880         5.5206 
 124   0.0000       0.225725         6.1423 
 125   0.0000       0.236181         6.4268 
 126   0.0000       0.250457         6.8153 
 127   0.0000       0.272686         7.4202 
 128   0.0000       0.290406         7.9023 
 129   0.0000       0.301485         8.2038 
 130   0.0000       0.313360         8.5270 
 131   0.0000       0.316180         8.6037 
 132   0.0000       0.329214         8.9584 
 133   0.0000       0.334618         9.1054 
 134   0.0000       0.348378         9.4798 
 135   0.0000       0.361088         9.8257 
 136   0.0000       0.364958         9.9310 
 137   0.0000       0.380957        10.3664 
 138   0.0000       0.394101        10.7240 
 139   0.0000       0.406951        11.0737 
 140   0.0000       0.412882        11.2351 
 141   0.0000       0.422882        11.5072 
 142   0.0000       0.430202        11.7064 
 143   0.0000       0.440139        11.9768 
 144   0.0000       0.449762        12.2386 
 145   0.0000       0.452421        12.3110 
 146   0.0000       0.461800        12.5662 
 147   0.0000       0.468106        12.7378 
 148   0.0000       0.469999        12.7893 
 149   0.0000       0.481587        13.1047 
 150   0.0000       0.484530        13.1847 
 151   0.0000       0.486736        13.2448 
 152   0.0000       0.501026        13.6336 
 153   0.0000       0.507028        13.7969 
 154   0.0000       0.509885        13.8747 
 155   0.0000       0.519824        14.1451 
[...]
      dxz     :     0.007545
      dyz     :     0.003243
      dx2y2   :     0.005150
      dxy     :     0.006167
 31 O s       :     3.824298  s :     3.824298
      pz      :     1.619517  p :     4.624445
      px      :     1.558928
      py      :     1.446000
      dz2     :     0.004609  d :     0.029926
      dxz     :     0.005322
      dyz     :     0.005802
      dx2y2   :     0.005914
      dxy     :     0.008280
 32 C s       :     2.973747  s :     2.973747
      pz      :     0.713209  p :     2.206930
      px      :     0.723810
      py      :     0.769911
      dz2     :     0.023780  d :     0.140182
      dxz     :     0.022692
      dyz     :     0.025278
      dx2y2   :     0.035338
      dxy     :     0.033094
 33 C s       :     3.434678  s :     3.434678
      pz      :     1.160205  p :     3.308367
      px      :     1.195925
      py      :     0.952237
      dz2     :     0.003448  d :     0.033190
      dxz     :     0.008699
      dyz     :     0.007978
      dx2y2   :     0.010120
      dxy     :     0.002945
 34 H s       :     0.723109  s :     0.723109
 35 H s       :     0.714652  s :     0.714652
 36 H s       :     0.723991  s :     0.723991
 37 H s       :     0.704605  s :     0.704605
 38 H s       :     0.714022  s :     0.714022


                     *******************************
                     * LOEWDIN POPULATION ANALYSIS *
                     *******************************

----------------------
LOEWDIN ATOMIC CHARGES
----------------------
   0 Ir:   -0.197586
   1 C :   -0.031213
   2 C :   -0.086038
   3 C :   -0.080367
   4 C :   -0.052007
   5 C :   -0.013564
   6 N :   -0.035104
   7 C :   -0.070183
   8 C :   -0.349477
   9 H :    0.151085
  10 H :    0.132469
  11 H :    0.139150
  12 C :   -0.351651
  13 H :    0.155786
  14 H :    0.152928
  15 H :    0.132416
  16 H :    0.133460
  17 C :    0.035602
  18 C :   -0.233612
  19 H :    0.151593
  20 C :   -0.119573
  21 C :   -0.166344
  22 S :    0.451649
  23 C :   -0.255475
  24 H :    0.177802
  25 H :    0.159267
  26 H :    0.167963
  27 H :    0.189316
  28 H :    0.187117
  29 H :    0.188385
  30 O :   -0.184699
  31 O :   -0.173786
  32 C :    0.185557
  33 C :   -0.373294
  34 H :    0.169026
  35 H :    0.178965
  36 H :    0.166405
  37 H :    0.186210
  38 H :    0.181825

-------------------------------
LOEWDIN REDUCED ORBITAL CHARGES
-------------------------------
  0 Irs       :     2.462513  s :     2.462513
      pz      :     2.239502  p :     6.740875
      px      :     2.228665
      py      :     2.272709
      dz2     :     1.853428  d :     7.894673
      dxz     :     1.666669
      dyz     :     1.338341
      dx2y2   :     1.714069
      dxy     :     1.322166
      f0      :     0.009860  f :     0.099525
      f+1     :     0.007067
      f-1     :     0.014106
      f+2     :     0.012025
      f-2     :     0.020284
      f+3     :     0.020366
      f-3     :     0.015818
  1 C s       :     2.876758  s :     2.876758
      pz      :     1.057306  p :     3.049387
      px      :     1.070972
      py      :     0.921110
      dz2     :     0.027948  d :     0.105068
      dxz     :     0.028423
      dyz     :     0.017542
      dx2y2   :     0.017188
      dxy     :     0.013966
  2 C s       :     2.872826  s :     2.872826
      pz      :     1.081512  p :     3.113715
      px      :     1.031071
      py      :     1.001133
      dz2     :     0.026486  d :     0.099497
      dxz     :     0.030678
      dyz     :     0.013216
      dx2y2   :     0.013819
      dxy     :     0.015297
  3 C s       :     2.871034  s :     2.871034
      pz      :     1.096313  p :     3.107769
      px      :     1.027916
      py      :     0.983539
      dz2     :     0.024387  d :     0.101564
      dxz     :     0.031671
      dyz     :     0.013502
      dx2y2   :     0.016120
      dxy     :     0.015883
  4 C s       :     2.872274  s :     2.872274
      pz      :     1.056442  p :     3.075580
      px      :     1.075930
      py      :     0.943208
      dz2     :     0.027727  d :     0.104153
      dxz     :     0.027998
      dyz     :     0.017537
      dx2y2   :     0.016457
      dxy     :     0.014434
  5 C s       :     2.878711  s :     2.878711
      pz      :     1.045689  p :     3.028705
      px      :     1.054926
      py      :     0.928091
      dz2     :     0.026139  d :     0.106148
      dxz     :     0.032983
      dyz     :     0.019419
      dx2y2   :     0.012643
      dxy     :     0.014965
  6 N s       :     3.123683  s :     3.123683
      pz      :     1.298678  p :     3.816245
      px      :     1.264850
      py      :     1.252717
      dz2     :     0.030591  d :     0.095176
      dxz     :     0.025657
      dyz     :     0.016463
      dx2y2   :     0.012765
      dxy     :     0.009700
  7 C s       :     2.867145  s :     2.867145
      pz      :     1.101856  p :     3.072132
      px      :     0.886485
      py      :     1.083792
      dz2     :     0.031562  d :     0.130906
      dxz     :     0.017190
      dyz     :     0.015543
      dx2y2   :     0.039217
      dxy     :     0.027394
  8 C s       :     2.952837  s :     2.952837
      pz      :     1.135099  p :     3.328444
      px      :     1.140082
      py      :     1.053262
      dz2     :     0.016412  d :     0.068196
      dxz     :     0.007190
      dyz     :     0.014167
      dx2y2   :     0.017720
      dxy     :     0.012706
  9 H s       :     0.848915  s :     0.848915
 10 H s       :     0.867531  s :     0.867531
 11 H s       :     0.860850  s :     0.860850
 12 C s       :     2.952814  s :     2.952814
      pz      :     1.120008  p :     3.330649
      px      :     1.114712
      py      :     1.095928
      dz2     :     0.021297  d :     0.068188
      dxz     :     0.010190
      dyz     :     0.007346
      dx2y2   :     0.018081
      dxy     :     0.011275
 13 H s       :     0.844214  s :     0.844214
 14 H s       :     0.847072  s :     0.847072
 15 H s       :     0.867584  s :     0.867584
 16 H s       :     0.866540  s :     0.866540
 17 C s       :     2.872784  s :     2.872784
      pz      :     1.034425  p :     2.947661
      px      :     1.073597
      py      :     0.839639
      dz2     :     0.037050  d :     0.143954
      dxz     :     0.057388
      dyz     :     0.025927
      dx2y2   :     0.010629
      dxy     :     0.012961
 18 C s       :     2.888497  s :     2.888497
      pz      :     1.015799  p :     3.239376
      px      :     1.094836
      py      :     1.128740
      dz2     :     0.031191  d :     0.105739
      dxz     :     0.028517
      dyz     :     0.012327
      dx2y2   :     0.020086
      dxy     :     0.013618
 19 H s       :     0.848407  s :     0.848407
 20 C s       :     2.898146  s :     2.898146
      pz      :     1.094692  p :     3.128179
      px      :     1.063781
      py      :     0.969706
      dz2     :     0.021881  d :     0.093247
      dxz     :     0.031390
      dyz     :     0.007719
      dx2y2   :     0.014759
      dxy     :     0.017498
 21 C s       :     2.898825  s :     2.898825
      pz      :     1.066910  p :     3.174885
      px      :     1.093490
      py      :     1.014485
      dz2     :     0.025504  d :     0.092634
      dxz     :     0.032633
      dyz     :     0.014060
      dx2y2   :     0.013537
      dxy     :     0.006899
 22 S s       :     5.505484  s :     5.505484
      pz      :     3.141113  p :     9.891799
      px      :     3.192455
      py      :     3.558230
      dz2     :     0.054950  d :     0.151069
      dxz     :     0.018579
      dyz     :     0.023738
      dx2y2   :     0.032716
      dxy     :     0.021085
 23 C s       :     2.961728  s :     2.961728
      pz      :     1.129762  p :     3.206486
      px      :     1.027630
      py      :     1.049094
      dz2     :     0.026492  d :     0.087260
      dxz     :     0.022709
      dyz     :     0.009374
      dx2y2   :     0.015416
      dxy     :     0.013270
 24 H s       :     0.822198  s :     0.822198
 25 H s       :     0.840733  s :     0.840733
 26 H s       :     0.832037  s :     0.832037
 27 H s       :     0.810684  s :     0.810684
 28 H s       :     0.812883  s :     0.812883
 29 H s       :     0.811615  s :     0.811615
 30 O s       :     3.466830  s :     3.466830
      pz      :     1.531428  p :     4.659290
      px      :     1.567286
      py      :     1.560576
      dz2     :     0.010098  d :     0.058580
      dxz     :     0.016584
      dyz     :     0.008814
      dx2y2   :     0.010630
      dxy     :     0.012454
 31 O s       :     3.466096  s :     3.466096
      pz      :     1.601423  p :     4.648425
      px      :     1.578868
      py      :     1.468135
      dz2     :     0.008441  d :     0.059265
      dxz     :     0.009338
      dyz     :     0.011035
      dx2y2   :     0.011493
      dxy     :     0.018959
 32 C s       :     2.806178  s :     2.806178
      pz      :     0.817553  p :     2.694323
      px      :     0.862710
      py      :     1.014060
      dz2     :     0.049911  d :     0.313942
      dxz     :     0.056958
      dyz     :     0.053907
      dx2y2   :     0.080399
      dxy     :     0.072767
 33 C s       :     2.952253  s :     2.952253
      pz      :     1.143833  p :     3.358079
      px      :     1.157385
      py      :     1.056860
      dz2     :     0.006080  d :     0.062962
      dxz     :     0.013921
      dyz     :     0.016387
      dx2y2   :     0.020435
      dxy     :     0.006139
 34 H s       :     0.830974  s :     0.830974
 35 H s       :     0.821035  s :     0.821035
 36 H s       :     0.833595  s :     0.833595
 37 H s       :     0.813790  s :     0.813790
 38 H s       :     0.818175  s :     0.818175


                      *****************************
                      * MAYER POPULATION ANALYSIS *
                      *****************************

  NA   - Mulliken gross atomic population
  ZA   - Total nuclear charge
  QA   - Mulliken gross atomic charge
  VA   - Mayer's total valence
  BVA  - Mayer's bonded valence
  FA   - Mayer's free valence

  ATOM       NA         ZA         QA         VA         BVA        FA
  0 Ir    16.4227    17.0000     0.5773     3.8822     3.8822    -0.0000
  1 C      6.2292     6.0000    -0.2292     3.7186     3.7186     0.0000
  2 C      6.2559     6.0000    -0.2559     3.7301     3.7301    -0.0000
  3 C      6.2667     6.0000    -0.2667     3.7183     3.7183    -0.0000
  4 C      6.2030     6.0000    -0.2030     3.7029     3.7029    -0.0000
  5 C      6.1930     6.0000    -0.1930     3.7046     3.7046     0.0000
  6 N      7.4551     7.0000    -0.4551     3.1991     3.1991    -0.0000
  7 C      6.1657     6.0000    -0.1657     3.7143     3.7143    -0.0000
  8 C      6.6313     6.0000    -0.6313     3.6842     3.6842     0.0000
  9 H      0.7428     1.0000     0.2572     0.9004     0.9004     0.0000
 10 H      0.7785     1.0000     0.2215     0.9135     0.9135     0.0000
 11 H      0.7546     1.0000     0.2454     0.9049     0.9049     0.0000
 12 C      6.6390     6.0000    -0.6390     3.6787     3.6787     0.0000
 13 H      0.7163     1.0000     0.2837     0.8723     0.8723    -0.0000
 14 H      0.7373     1.0000     0.2627     0.8985     0.8985     0.0000
 15 H      0.7762     1.0000     0.2238     0.9134     0.9134    -0.0000
 16 H      0.7658     1.0000     0.2342     0.9081     0.9081     0.0000
 17 C      5.9264     6.0000     0.0736     3.6653     3.6653    -0.0000
 18 C      6.2329     6.0000    -0.2329     3.7340     3.7340    -0.0000
 19 H      0.7332     1.0000     0.2668     0.8971     0.8971    -0.0000
 20 C      6.2157     6.0000    -0.2157     3.7312     3.7312    -0.0000
 21 C      6.1460     6.0000    -0.1460     3.7364     3.7364     0.0000
 22 S     15.7032    16.0000     0.2968     2.5465     2.5465    -0.0000
 23 C      6.4188     6.0000    -0.4188     3.7606     3.7606    -0.0000
 24 H      0.6943     1.0000     0.3057     0.8862     0.8862    -0.0000
 25 H      0.7332     1.0000     0.2668     0.8984     0.8984    -0.0000
 26 H      0.7041     1.0000     0.2959     0.8973     0.8973    -0.0000
 27 H      0.7003     1.0000     0.2997     0.8960     0.8960    -0.0000
 28 H      0.7063     1.0000     0.2937     0.9027     0.9027     0.0000
 29 H      0.7033     1.0000     0.2967     0.8966     0.8966     0.0000
 30 O      8.4930     8.0000    -0.4930     2.1395     2.1395    -0.0000
 31 O      8.4787     8.0000    -0.4787     2.1549     2.1549     0.0000
 32 C      5.3209     6.0000     0.6791     3.7717     3.7717    -0.0000
 33 C      6.7762     6.0000    -0.7762     3.6444     3.6444    -0.0000
 34 H      0.7231     1.0000     0.2769     0.8913     0.8913     0.0000
 35 H      0.7147     1.0000     0.2853     0.8867     0.8867    -0.0000
 36 H      0.7240     1.0000     0.2760     0.8921     0.8921     0.0000
 37 H      0.7046     1.0000     0.2954     0.9033     0.9033    -0.0000
 38 H      0.7140     1.0000     0.2860     0.9063     0.9063    -0.0000

  Mayer bond orders larger than 0.100000
B(  0-Ir,  1-C ) :   0.4694 B(  0-Ir,  2-C ) :   0.4543 B(  0-Ir,  3-C ) :   0.5033 
B(  0-Ir,  4-C ) :   0.4604 B(  0-Ir,  5-C ) :   0.4316 B(  0-Ir,  6-N ) :   0.4740 
B(  0-Ir, 30-O ) :   0.5276 B(  0-Ir, 31-O ) :   0.5100 B(  1-C ,  2-C ) :   1.1413 
B(  1-C ,  4-C ) :   1.2027 B(  1-C , 27-H ) :   0.9008 B(  2-C ,  5-C ) :   1.1914 
B(  2-C , 28-H ) :   0.9077 B(  3-C ,  4-C ) :   1.1068 B(  3-C ,  5-C ) :   1.1785 
B(  3-C , 37-H ) :   0.9026 B(  4-C , 38-H ) :   0.9054 B(  5-C , 29-H ) :   0.9012 
B(  6-N ,  7-C ) :   0.8743 B(  6-N , 17-C ) :   1.6633 B(  7-C ,  8-C ) :   0.9834 
B(  7-C , 12-C ) :   0.9775 B(  7-C , 13-H ) :   0.8814 B(  8-C ,  9-H ) :   0.9076 
B(  8-C , 10-H ) :   0.9158 B(  8-C , 11-H ) :   0.9143 B( 12-C , 14-H ) :   0.9066 
B( 12-C , 15-H ) :   0.9158 B( 12-C , 16-H ) :   0.9163 B( 17-C , 18-C ) :   1.0903 
B( 17-C , 19-H ) :   0.8808 B( 18-C , 20-C ) :   1.4247 B( 18-C , 22-S ) :   1.1664 
B( 20-C , 21-C ) :   1.3281 B( 20-C , 24-H ) :   0.8718 B( 21-C , 23-C ) :   1.4811 
B( 21-C , 25-H ) :   0.9027 B( 22-S , 23-C ) :   1.2615 B( 23-C , 26-H ) :   0.8925 
B( 30-O , 32-C ) :   1.3934 B( 31-O , 32-C ) :   1.4261 B( 32-C , 33-C ) :   0.9693 
B( 33-C , 34-H ) :   0.8974 B( 33-C , 35-H ) :   0.8870 B( 33-C , 36-H ) :   0.9001 


-------
TIMINGS
-------

Total SCF time: 0 days 0 hours 1 min 21 sec 

Total time                  ....      81.310 sec
Sum of individual times     ....      80.851 sec  ( 99.4%)

Fock matrix formation       ....      78.004 sec  ( 95.9%)
  Split-RI-J                ....       6.725 sec  (  8.6% of F)
  Chain of spheres X        ....      67.073 sec  ( 86.0% of F)
  XC integration            ....       4.126 sec  (  5.3% of F)
    Basis function eval.    ....       1.777 sec  ( 43.1% of XC)
    Density eval.           ....       1.164 sec  ( 28.2% of XC)
    XC-Functional eval.     ....       0.306 sec  (  7.4% of XC)
    XC-Potential eval.      ....       0.677 sec  ( 16.4% of XC)
Diagonalization             ....       0.355 sec  (  0.4%)
Density matrix formation    ....       0.019 sec  (  0.0%)
Population analysis         ....       0.043 sec  (  0.1%)
Initial guess               ....       0.036 sec  (  0.0%)
Orbital Transformation      ....       0.000 sec  (  0.0%)
Orbital Orthonormalization  ....       0.026 sec  (  0.0%)
DIIS solution               ....       0.183 sec  (  0.2%)
Grid generation             ....       2.211 sec  (  2.7%)

Maximum memory used throughout the entire SCF-calculation: 96.1 MB


-------------------------------------------------------------------------------
                          DFT DISPERSION CORRECTION                            
                                                                               
                              DFTD3 V3.1  Rev 1                                
                          USING Becke-Johnson damping                          
-------------------------------------------------------------------------------
The PBEh-3c composite method is recognized
Using three-body term ABC
Active option DFTDOPT                   ...         4   

molecular C6(AA) [au] = 19559.564400 


            DFT-D V3
 parameters
 s6 scaling factor         :     1.0000 
 a1 scaling factor         :     0.4860 
 s8 scaling factor         :     0.0000 
 a2 scaling factor         :     4.5000 
 Damping factor alpha9(ATM):    16.0000 
 ad hoc parameters k1-k3   :    16.0000     1.3333    -4.0000 

 Edisp/kcal,au: -18.766132651906  -0.029905732783 
 E6   /kcal   : -19.075489656 
 E8   /kcal   :  -0.000000000 
 E6(ABC)      :   0.309357005 
 % E8         :   0.000000000 
 % E6(ABC)    :  -1.648485654 

-------------------------   ----------------
Dispersion correction           -0.029905733
-------------------------   ----------------

 ** NOTE ** -> element ir will be treated as co
NOTIFICATION: Different basis set in ORCA and otool_gcp:
ORCA: 358  gCP: 357 
If you are NOT using ECPs, check your basis set inputs!
------------------   -----------------
gCP correction             0.075076580
------------------   -----------------

-------------------------   --------------------
FINAL SINGLE POINT ENERGY     -1288.434589014226
-------------------------   --------------------

                                *** OPTIMIZATION RUN DONE ***

                            ***************************************
                            *     ORCA property calculations      *
                            ***************************************

                                    ---------------------
                                    Active property flags
                                    ---------------------
   (+) Dipole Moment


------------------------------------------------------------------------------
                       ORCA ELECTRIC PROPERTIES CALCULATION
------------------------------------------------------------------------------

Dipole Moment Calculation                       ... on
Quadrupole Moment Calculation                   ... off
Polarizability Calculation                      ... off
GBWName                                         ... reaction-4-rct-pbeh3c-orca_opt.gbw
Electron density                                ... reaction-4-rct-pbeh3c-orca_opt.scfp
The origin for moment calculation is the CENTER OF MASS  = ( 0.674997, -0.618771  0.478784)

-------------
DIPOLE MOMENT
-------------
                                X             Y             Z
Electronic contribution:     23.49825     -60.34899     132.11182
Nuclear contribution   :    -23.52247      60.06957    -132.54525
                        -----------------------------------------
Total Dipole Moment    :     -0.02422      -0.27941      -0.43343
                        -----------------------------------------
Magnitude (a.u.)       :      0.51625
Magnitude (Debye)      :      1.31221



--------------------
Rotational spectrum 
--------------------
 
Rotational constants in cm-1:     0.011932     0.007644     0.006765 
Rotational constants in MHz :   357.711725   229.158855   202.805193 

 Dipole components along the rotational axes: 
x,y,z [a.u.] :    -0.405265     0.116240    -0.297938 
x,y,z [Debye]:    -1.030102     0.295459    -0.757299 

 

Timings for individual modules:

Sum of individual times         ...     4237.238 sec (=  70.621 min)
GTO integral calculation        ...       51.115 sec (=   0.852 min)   1.2 %
SCF iterations                  ...     3246.030 sec (=  54.101 min)  76.6 %
SCF Gradient evaluation         ...      933.894 sec (=  15.565 min)  22.0 %
Geometry relaxation             ...        6.198 sec (=   0.103 min)   0.1 %
                             ****ORCA TERMINATED NORMALLY****
TOTAL RUN TIME: 0 days 1 hours 10 minutes 51 seconds 845 msec
