
                                 *****************
                                 * O   R   C   A *
                                 *****************

                                            #,                                       
                                            ###                                      
                                            ####                                     
                                            #####                                    
                                            ######                                   
                                           ########,                                 
                                     ,,################,,,,,                         
                               ,,#################################,,                 
                          ,,##########################################,,             
                       ,#########################################, ''#####,          
                    ,#############################################,,   '####,        
                  ,##################################################,,,,####,       
                ,###########''''           ''''###############################       
              ,#####''   ,,,,##########,,,,          '''####'''          '####       
            ,##' ,,,,###########################,,,                        '##       
           ' ,,###''''                  '''############,,,                           
         ,,##''                                '''############,,,,        ,,,,,,###''
      ,#''                                            '''#######################'''  
     '                                                          ''''####''''         
             ,#######,   #######,   ,#######,      ##                                
            ,#'     '#,  ##    ##  ,#'     '#,    #''#        ######   ,####,        
            ##       ##  ##   ,#'  ##            #'  '#       #        #'  '#        
            ##       ##  #######   ##           ,######,      #####,   #    #        
            '#,     ,#'  ##    ##  '#,     ,#' ,#      #,         ##   #,  ,#        
             '#######'   ##     ##  '#######'  #'      '#     #####' # '####'        



                  #######################################################
                  #                        -***-                        #
                  #          Department of theory and spectroscopy      #
                  #    Directorship and core code : Frank Neese         #
                  #        Max Planck Institute fuer Kohlenforschung    #
                  #                Kaiser Wilhelm Platz 1               #
                  #                 D-45470 Muelheim/Ruhr               #
                  #                      Germany                        #
                  #                                                     #
                  #                  All rights reserved                #
                  #                        -***-                        #
                  #######################################################


                         Program Version 5.0.4 -  RELEASE  -


 With contributions from (in alphabetic order):
   Daniel Aravena         : Magnetic Suceptibility
   Michael Atanasov       : Ab Initio Ligand Field Theory (pilot matlab implementation)
   Alexander A. Auer      : GIAO ZORA, VPT2 properties, NMR spectrum
   Ute Becker             : Parallelization
   Giovanni Bistoni       : ED, misc. LED, open-shell LED, HFLD
   Martin Brehm           : Molecular dynamics
   Dmytro Bykov           : SCF Hessian
   Vijay G. Chilkuri      : MRCI spin determinant printing, contributions to CSF-ICE
   Dipayan Datta          : RHF DLPNO-CCSD density
   Achintya Kumar Dutta   : EOM-CC, STEOM-CC
   Dmitry Ganyushin       : Spin-Orbit,Spin-Spin,Magnetic field MRCI
   Miquel Garcia          : C-PCM and meta-GGA Hessian, CC/C-PCM, Gaussian charge scheme
   Yang Guo               : DLPNO-NEVPT2, F12-NEVPT2, CIM, IAO-localization
   Andreas Hansen         : Spin unrestricted coupled pair/coupled cluster methods
   Benjamin Helmich-Paris : MC-RPA, TRAH-SCF, COSX integrals
   Lee Huntington         : MR-EOM, pCC
   Robert Izsak           : Overlap fitted RIJCOSX, COSX-SCS-MP3, EOM
   Marcus Kettner         : VPT2
   Christian Kollmar      : KDIIS, OOCD, Brueckner-CCSD(T), CCSD density, CASPT2, CASPT2-K
   Simone Kossmann        : Meta GGA functionals, TD-DFT gradient, OOMP2, MP2 Hessian
   Martin Krupicka        : Initial AUTO-CI
   Lucas Lang             : DCDCAS
   Marvin Lechner         : AUTO-CI (C++ implementation), FIC-MRCC
   Dagmar Lenk            : GEPOL surface, SMD
   Dimitrios Liakos       : Extrapolation schemes; Compound Job, initial MDCI parallelization
   Dimitrios Manganas     : Further ROCIS development; embedding schemes
   Dimitrios Pantazis     : SARC Basis sets
   Anastasios Papadopoulos: AUTO-CI, single reference methods and gradients
   Taras Petrenko         : DFT Hessian,TD-DFT gradient, ASA, ECA, R-Raman, ABS, FL, XAS/XES, NRVS
   Peter Pinski           : DLPNO-MP2, DLPNO-MP2 Gradient
   Christoph Reimann      : Effective Core Potentials
   Marius Retegan         : Local ZFS, SOC
   Christoph Riplinger    : Optimizer, TS searches, QM/MM, DLPNO-CCSD(T), (RO)-DLPNO pert. Triples
   Tobias Risthaus        : Range-separated hybrids, TD-DFT gradient, RPA, STAB
   Michael Roemelt        : Original ROCIS implementation
   Masaaki Saitow         : Open-shell DLPNO-CCSD energy and density
   Barbara Sandhoefer     : DKH picture change effects
   Avijit Sen             : IP-ROCIS
   Kantharuban Sivalingam : CASSCF convergence, NEVPT2, FIC-MRCI
   Bernardo de Souza      : ESD, SOC TD-DFT
   Georgi Stoychev        : AutoAux, RI-MP2 NMR, DLPNO-MP2 response
   Willem Van den Heuvel  : Paramagnetic NMR
   Boris Wezisla          : Elementary symmetry handling
   Frank Wennmohs         : Technical directorship


 We gratefully acknowledge several colleagues who have allowed us to
 interface, adapt or use parts of their codes:
   Stefan Grimme, W. Hujo, H. Kruse, P. Pracht,  : VdW corrections, initial TS optimization,
                  C. Bannwarth, S. Ehlert          DFT functionals, gCP, sTDA/sTD-DF
   Ed Valeev, F. Pavosevic, A. Kumar             : LibInt (2-el integral package), F12 methods
   Garnet Chan, S. Sharma, J. Yang, R. Olivares  : DMRG
   Ulf Ekstrom                                   : XCFun DFT Library
   Mihaly Kallay                                 : mrcc  (arbitrary order and MRCC methods)
   Jiri Pittner, Ondrej Demel                    : Mk-CCSD
   Frank Weinhold                                : gennbo (NPA and NBO analysis)
   Christopher J. Cramer and Donald G. Truhlar   : smd solvation model
   Lars Goerigk                                  : TD-DFT with DH, B97 family of functionals
   V. Asgeirsson, H. Jonsson                     : NEB implementation
   FAccTs GmbH                                   : IRC, NEB, NEB-TS, DLPNO-Multilevel, CI-OPT
                                                   MM, QMMM, 2- and 3-layer-ONIOM, Crystal-QMMM,
                                                   LR-CPCM, SF, NACMEs, symmetry and pop. for TD-DFT,
                                                   nearIR, NL-DFT gradient (VV10), updates on ESD,
                                                   ML-optimized integration grids
   S Lehtola, MJT Oliveira, MAL Marques          : LibXC Library
   Liviu Ungur et al                             : ANISO software


 Your calculation uses the libint2 library for the computation of 2-el integrals
 For citations please refer to: http://libint.valeyev.net

 Your ORCA version has been built with support for libXC version: 5.1.0
 For citations please refer to: https://tddft.org/programs/libxc/

 This ORCA versions uses:
   CBLAS   interface :  Fast vector & matrix operations
   LAPACKE interface :  Fast linear algebra routines
   SCALAPACK package :  Parallel linear algebra routines
   Shared memory     :  Shared parallel matrices
   BLAS/LAPACK       :  OpenBLAS 0.3.15  USE64BITINT DYNAMIC_ARCH NO_AFFINITY Prescott SINGLE_THREADED
        Core in use  :  Prescott
   Copyright (c) 2011-2014, The OpenBLAS Project




***************************************
The coordinates will be read from file: reaction-3-prod-xtb.xyz
***************************************


Your calculation utilizes the geometrical counterpoise correction gCP
Please cite in your paper:
H.Kruse, S. Grimme J.Chem.Phys., 136, (2012), 154101 
   

Your calculation utilizes the atom-pairwise dispersion correction
with the Becke-Johnson damping scheme (D3BJ)
Cite in your paper:
S.Grimme, S.Ehrlich, L.Goerigk, J Comput Chem, (2011), 32, 1456–1465 
S.Grimme, J.Antony, S.Ehrlich and H.Krieg, J.Chem.Phys., 132, (2010), 154104 
   

Your calculation employs the composite approach PBEh-3c.
Please cite in your paper:
S. Grimme, J. G. Brandenburg, C. Bannwarth, A. Hansen J.Chem.Phys., 143, (2015), 054107 
   

================================================================================

cite the ECPs for Pd [Def2-ECP] as follows:
Ce-Yb(ecp-28): M. Dolg, H. Stoll, H.Preuss, J. Chem. Phys., 1989, 90, 1730-1734.
Y-Cd(ecp-28), Hf-Hg(ecp-46): D. Andrae,U. Haeussermann, M. Dolg, H. Stoll, H. Preuss, Theor. Chim. Acta, 1990, 77, 123-141.
In-Sb(ecp-28), Tl-Bi(ecp-46): B. Metz, H. Stoll, M. Dolg, J. Chem. Phys., 2000, 113, 2563-2569.
Te-Xe(ecp-28), Po-Rn(ecp-46): K. A. Peterson, D. Figgen, E. Goll, H. Stoll, M. Dolg, J. Chem. Phys., 2003, 119, 11113-11123.
Rb(ecp-28), Cs(ecp-46): T. Leininger, A. Nicklass, W. Kuechle, H. Stoll, M. Dolg, A. Bergner, Chem. Phys. Lett., 1996, 255, 274-280.
Sr(ecp-28), Ba(ecp-46): M. Kaupp, P. V. Schleyer, H. Stoll and H. Preuss, J. Chem. Phys., 1991, 94, 1360-1366.
La(ecp-46): M. Dolg, H. Stoll, A. Savin, H. Preuss, Theor. Chim. Acta, 1989, 75, 173-194.
Lu(ecp-28): X. Cao, M. Dolg, J. Chem. Phys., 2001, 115, 7348-7355.

ECP parameters for Pd [Def2-ECP] have been obtained from:
TURBOMOLE (7.0.2)

----- Orbital basis set information -----
Your calculation utilizes the basis: def2-mSVP

----- AuxJ basis set information -----
Your calculation utilizes the auxiliary basis: def2/J
   F. Weigend, Phys. Chem. Chem. Phys. 8, 1057 (2006).

================================================================================
                                        WARNINGS
                       Please study these warnings very carefully!
================================================================================


WARNING: Geometry Optimization
  ===> : Switching off AutoStart
         For restart on a previous wavefunction, please use MOREAD

INFO   : the flag for use of the SHARK integral package has been found!

================================================================================
                                       INPUT FILE
================================================================================
NAME = reaction-3-prod-pbeh3c-orca_opt.inp
|  1> ! PBEh-3c OPT pal4
|  2> 
|  3> %geom
|  4>  maxiter 600
|  5> end 
|  6> 
|  7> *xyzfile -1 1 reaction-3-prod-xtb.xyz
|  8> 
|  9>                          ****END OF INPUT****
================================================================================

                       *****************************
                       * Geometry Optimization Run *
                       *****************************

Geometry optimization settings:
Update method            Update   .... BFGS
Choice of coordinates    CoordSys .... Z-matrix Internals
Initial Hessian          InHess   .... Almoef's Model

Convergence Tolerances:
Energy Change            TolE     ....  5.0000e-06 Eh
Max. Gradient            TolMAXG  ....  3.0000e-04 Eh/bohr
RMS Gradient             TolRMSG  ....  1.0000e-04 Eh/bohr
Max. Displacement        TolMAXD  ....  4.0000e-03 bohr
RMS Displacement         TolRMSD  ....  2.0000e-03 bohr
Strict Convergence                ....  False
------------------------------------------------------------------------------
                        ORCA OPTIMIZATION COORDINATE SETUP
------------------------------------------------------------------------------

The optimization will be done in new redundant internal coordinates
Making redundant internal coordinates   ...  (new redundants) done
Evaluating the initial hessian          ...  (Almloef) done
Evaluating the coordinates              ...  done
Calculating the B-matrix                .... done
Calculating the G-matrix                .... done
Diagonalizing the G-matrix              .... done
Small eigenvalue found = 2.130e-02
Small eigenvalue found = 2.199e-02
Small eigenvalue found = 2.831e-02
The first mode is                       ....  119
The number of degrees of freedom        ....  108

    -----------------------------------------------------------------
                    Redundant Internal Coordinates


    -----------------------------------------------------------------
         Definition                    Initial Value    Approx d2E/dq
    -----------------------------------------------------------------
      1. B(C   1,C   0)                  1.4014         0.599242   
      2. B(C   2,C   0)                  1.3972         0.608571   
      3. B(C   3,C   2)                  1.3840         0.638723   
      4. B(C   4,C   3)                  1.3818         0.643874   
      5. B(C   5,C   4)                  1.3806         0.646833   
      6. B(C   5,C   1)                  1.3930         0.617898   
      7. B(H   7,C   2)                  1.0865         0.364731   
      8. B(H   8,C   5)                  1.0849         0.366852   
      9. B(H   9,C   3)                  1.0832         0.369204   
     10. B(H  10,C   4)                  1.0830         0.369432   
     11. B(C  11,C   1)                  1.5187         0.389469   
     12. B(C  12,C  11)                  1.5340         0.368098   
     13. B(H  13,C  11)                  1.0975         0.350333   
     14. B(H  14,C  11)                  1.0964         0.351776   
     15. B(C  15,C  12)                  1.5069         0.406589   
     16. B(H  16,C  12)                  1.1070         0.338327   
     17. B(H  17,C  12)                  1.0951         0.353396   
     18. B(C  18,C  15)                  1.3987         0.605059   
     19. B(C  19,C  18)                  1.3885         0.628341   
     20. B(C  20,C  19)                  1.3879         0.629613   
     21. B(C  21,C  15)                  1.3853         0.635632   
     22. B(C  22,C  21)                  1.3856         0.634998   
     23. B(C  22,C  20)                  1.3821         0.643211   
     24. B(H  23,C  19)                  1.0865         0.364770   
     25. B(H  24,C  20)                  1.0835         0.368849   
     26. B(H  25,C  21)                  1.0843         0.367717   
     27. B(H  26,C  22)                  1.0830         0.369474   
     28. B(Pd 27,C  18)                  2.0111         0.645509   
     29. B(Pd 27,C   0)                  2.0094         0.649701   
     30. B(Br 28,Pd 27)                  2.5423         0.308255   
     31. B(P  29,Pd 27)                  2.3055         0.735654   
     32. B(H  30,P  29)                  1.4008         0.386365   
     33. B(C  31,Pd 27)                  2.6902         0.053265   
     34. B(O  32,C  31)                  1.2102         1.083314   
     35. B(O  33,C  31)                  1.3095         0.752104   
     36. B(O  33,H   6)                  1.0100         0.432725   
     37. B(O  34,C  31)                  1.3526         0.641904   
     38. B(H  35,P  29)                  1.3848         0.409879   
     39. B(H  36,P  29)                  1.3875         0.405748   
     40. B(H  37,O  34)                  0.9711         0.499210   
     41. A(C   1,C   0,Pd 27)          125.1758         0.488677   
     42. A(C   2,C   0,Pd 27)          117.2463         0.490076   
     43. A(C   1,C   0,C   2)          117.4237         0.429978   
     44. A(C   0,C   1,C  11)          125.4015         0.397215   
     45. A(C   5,C   1,C  11)          114.9723         0.399361   
     46. A(C   0,C   1,C   5)          119.6053         0.431154   
     47. A(C   0,C   2,C   3)          122.4524         0.434938   
     48. A(C   3,C   2,H   7)          117.3052         0.355462   
     49. A(C   0,C   2,H   7)          120.2166         0.352561   
     50. A(C   4,C   3,H   9)          120.4039         0.356684   
     51. A(C   2,C   3,C   4)          119.6195         0.439381   
     52. A(C   2,C   3,H   9)          119.9758         0.356198   
     53. A(C   5,C   4,H  10)          120.3267         0.356999   
     54. A(C   3,C   4,C   5)          118.9112         0.440383   
     55. A(C   3,C   4,H  10)          120.7599         0.356721   
     56. A(C   1,C   5,C   4)          121.9714         0.437123   
     57. A(C   4,C   5,H   8)          119.2336         0.356575   
     58. A(C   1,C   5,H   8)          118.7947         0.353817   
     59. A(C   1,C  11,C  12)          116.8667         0.365027   
     60. A(H  13,C  11,H  14)          107.2253         0.288528   
     61. A(C  12,C  11,H  14)          108.1375         0.322295   
     62. A(C   1,C  11,H  14)          107.5908         0.325294   
     63. A(C  12,C  11,H  13)          108.6624         0.322078   
     64. A(C   1,C  11,H  13)          107.9752         0.325075   
     65. A(H  16,C  12,H  17)          108.0251         0.287166   
     66. A(C  15,C  12,H  17)          110.8291         0.327855   
     67. A(C  11,C  12,H  17)          108.6239         0.322538   
     68. A(C  15,C  12,H  16)          110.2799         0.325510   
     69. A(C  11,C  12,H  16)          109.2534         0.320246   
     70. A(C  11,C  12,C  15)          109.7825         0.367728   
     71. A(C  12,C  15,C  18)          118.2936         0.400911   
     72. A(C  18,C  15,C  21)          120.5899         0.434106   
     73. A(C  12,C  15,C  21)          121.0322         0.404411   
     74. A(C  15,C  18,C  19)          118.3716         0.433206   
     75. A(C  19,C  18,Pd 27)          127.4914         0.492398   
     76. A(C  15,C  18,Pd 27)          113.9738         0.488965   
     77. A(C  18,C  19,C  20)          120.9471         0.436319   
     78. A(C  20,C  19,H  23)          118.1883         0.354603   
     79. A(C  18,C  19,H  23)          120.8428         0.354481   
     80. A(C  22,C  20,H  24)          120.0025         0.356563   
     81. A(C  19,C  20,H  24)          119.8042         0.355272   
     82. A(C  19,C  20,C  22)          120.1922         0.438162   
     83. A(C  22,C  21,H  25)          119.8278         0.355601   
     84. A(C  15,C  21,H  25)          119.8348         0.355661   
     85. A(C  15,C  21,C  22)          120.3365         0.437899   
     86. A(C  21,C  22,H  26)          120.1397         0.355888   
     87. A(C  20,C  22,H  26)          120.2990         0.356666   
     88. A(C  20,C  22,C  21)          119.5610         0.438836   
     89. A(Br 28,Pd 27,C  31)           87.3327         0.328265   
     90. A(C  18,Pd 27,C  31)          102.1647         0.355508   
     91. A(C   0,Pd 27,C  31)          118.4109         0.355899   
     92. A(Br 28,Pd 27,P  29)           97.8670         0.549021   
     93. A(C  18,Pd 27,P  29)           90.9884         0.601400   
     94. A(C   0,Pd 27,P  29)          168.4601         0.602151   
     95. A(C  18,Pd 27,Br 28)          168.8537         0.509830   
     96. A(C   0,Pd 27,Br 28)           91.0508         0.510447   
     97. A(C   0,Pd 27,C  18)           79.3506         0.558433   
     98. A(P  29,Pd 27,C  31)           69.5715         0.380328   
     99. A(Pd 27,P  29,H  30)          117.6084         0.470773   
    100. A(H  30,P  29,H  36)           92.9701         0.352113   
    101. A(Pd 27,P  29,H  36)          131.7874         0.475026   
    102. A(H  30,P  29,H  35)           93.2117         0.352717   
    103. A(Pd 27,P  29,H  35)          118.2182         0.475912   
    104. A(H  35,P  29,H  36)           94.2299         0.355655   
    105. A(O  32,C  31,O  33)          123.4138         0.491316   
    106. A(Pd 27,C  31,O  33)           94.8431         0.325914   
    107. A(Pd 27,C  31,O  32)          101.3650         0.346312   
    108. A(O  33,C  31,O  34)          113.5778         0.446376   
    109. A(O  32,C  31,O  34)          122.2031         0.477145   
    110. A(Pd 27,C  31,O  34)           81.7200         0.317569   
    111. A(H   6,O  33,C  31)          111.8952         0.370722   
    112. A(C  31,O  34,H  37)          109.9121         0.369735   
    113. D(C  11,C   1,C   0,C   2)    176.9269         0.024752   
    114. D(C   5,C   1,C   0,Pd 27)   -176.6713         0.024752   
    115. D(C   5,C   1,C   0,C   2)     -1.3244         0.024752   
    116. D(C  11,C   1,C   0,Pd 27)      1.5800         0.024752   
    117. D(H   7,C   2,C   0,Pd 27)     -1.2491         0.025572   
    118. D(C   3,C   2,C   0,C   1)      1.1316         0.025572   
    119. D(H   7,C   2,C   0,C   1)   -176.9718         0.025572   
    120. D(C   3,C   2,C   0,Pd 27)    176.8543         0.025572   
    121. D(C   4,C   3,C   2,C   0)     -0.0437         0.028337   
    122. D(H   9,C   3,C   2,C   0)   -179.7241         0.028337   
    123. D(C   4,C   3,C   2,H   7)    178.1119         0.028337   
    124. D(H   9,C   3,C   2,H   7)     -1.5685         0.028337   
    125. D(H  10,C   4,C   3,C   2)    179.6865         0.028828   
    126. D(C   5,C   4,C   3,H   9)    178.8331         0.028828   
    127. D(C   5,C   4,C   3,C   2)     -0.8459         0.028828   
    128. D(H  10,C   4,C   3,H   9)     -0.6346         0.028828   
    129. D(H   8,C   5,C   4,H  10)      0.3310         0.029112   
    130. D(H   8,C   5,C   4,C   3)   -179.1390         0.029112   
    131. D(H   8,C   5,C   1,C   0)   -179.7472         0.026409   
    132. D(C   4,C   5,C   1,C  11)   -177.9484         0.026409   
    133. D(H   8,C   5,C   1,C  11)      1.8251         0.026409   
    134. D(C   4,C   5,C   1,C   0)      0.4793         0.026409   
    135. D(C   1,C   5,C   4,H  10)   -179.8965         0.029112   
    136. D(C   1,C   5,C   4,C   3)      0.6335         0.029112   
    137. D(H  14,C  11,C   1,C   5)    -39.8224         0.011287   
    138. D(H  14,C  11,C   1,C   0)    141.8548         0.011287   
    139. D(H  13,C  11,C   1,C   5)     75.6108         0.011287   
    140. D(C  12,C  11,C   1,C   0)     20.0722         0.011287   
    141. D(C  12,C  11,C   1,C   5)   -161.6049         0.011287   
    142. D(H  13,C  11,C   1,C   0)   -102.7121         0.011287   
    143. D(C  15,C  12,C  11,C   1)     50.4761         0.010839   
    144. D(H  17,C  12,C  11,H  13)    -65.7647         0.010839   
    145. D(H  17,C  12,C  11,C   1)    171.8067         0.010839   
    146. D(H  16,C  12,C  11,H  14)    167.9289         0.010839   
    147. D(H  16,C  12,C  11,H  13)     51.8541         0.010839   
    148. D(H  16,C  12,C  11,C   1)    -70.5745         0.010839   
    149. D(C  15,C  12,C  11,H  14)    -71.0204         0.010839   
    150. D(H  17,C  12,C  11,H  14)     50.3101         0.010839   
    151. D(C  15,C  12,C  11,H  13)    172.9047         0.010839   
    152. D(C  21,C  15,C  12,H  17)    -27.0411         0.012252   
    153. D(C  21,C  15,C  12,H  16)   -146.6139         0.012252   
    154. D(C  21,C  15,C  12,C  11)     92.9557         0.012252   
    155. D(C  18,C  15,C  12,C  11)    -83.7245         0.012252   
    156. D(C  18,C  15,C  12,H  16)     36.7058         0.012252   
    157. D(C  18,C  15,C  12,H  17)    156.2786         0.012252   
    158. D(Pd 27,C  18,C  15,C  21)    176.1942         0.025261   
    159. D(Pd 27,C  18,C  15,C  12)     -7.1103         0.025261   
    160. D(C  19,C  18,C  15,C  21)      0.4887         0.025261   
    161. D(C  19,C  18,C  15,C  12)    177.1842         0.025261   
    162. D(H  23,C  19,C  18,C  15)    177.9906         0.027365   
    163. D(C  20,C  19,C  18,Pd 27)   -175.3354         0.027365   
    164. D(C  20,C  19,C  18,C  15)     -0.2825         0.027365   
    165. D(H  23,C  19,C  18,Pd 27)      2.9377         0.027365   
    166. D(H  24,C  20,C  19,H  23)      1.3439         0.027483   
    167. D(H  24,C  20,C  19,C  18)    179.6617         0.027483   
    168. D(C  22,C  20,C  19,H  23)   -178.2752         0.027483   
    169. D(C  22,C  20,C  19,C  18)      0.0426         0.027483   
    170. D(H  25,C  21,C  15,C  18)    179.8809         0.028046   
    171. D(H  25,C  21,C  15,C  12)      3.2767         0.028046   
    172. D(C  22,C  21,C  15,C  18)     -0.4576         0.028046   
    173. D(C  22,C  21,C  15,C  12)   -177.0618         0.028046   
    174. D(C  21,C  22,C  20,H  24)   -179.6197         0.028764   
    175. D(C  21,C  22,C  20,C  19)     -0.0013         0.028764   
    176. D(H  26,C  22,C  21,H  25)      0.0172         0.027986   
    177. D(H  26,C  22,C  21,C  15)   -179.6443         0.027986   
    178. D(C  20,C  22,C  21,H  25)    179.8698         0.027986   
    179. D(C  20,C  22,C  21,C  15)      0.2082         0.027986   
    180. D(H  26,C  22,C  20,H  24)      0.2326         0.028764   
    181. D(H  26,C  22,C  20,C  19)    179.8510         0.028764   
    182. D(C  31,Pd 27,C  18,C  19)     12.4630         0.003327   
    183. D(C  31,Pd 27,C  18,C  15)   -162.7736         0.003327   
    184. D(P  29,Pd 27,C  18,C  19)     81.7681         0.003327   
    185. D(P  29,Pd 27,C  18,C  15)    -93.4684         0.003327   
    186. D(Br 28,Pd 27,C  18,C  19)   -135.5097         0.003327   
    187. D(Br 28,Pd 27,C  18,C  15)     49.2537         0.003327   
    188. D(C   0,Pd 27,C  18,C  19)   -104.5837         0.003327   
    189. D(C   0,Pd 27,C  18,C  15)     80.1797         0.003327   
    190. D(C  31,Pd 27,C   0,C   2)     18.0576         0.003351   
    191. D(C  31,Pd 27,C   0,C   1)   -166.5881         0.003351   
    192. D(P  29,Pd 27,C   0,C   2)    149.7943         0.003351   
    193. D(P  29,Pd 27,C   0,C   1)    -34.8514         0.003351   
    194. D(Br 28,Pd 27,C   0,C   2)    -69.4782         0.003351   
    195. D(Br 28,Pd 27,C   0,C   1)    105.8762         0.003351   
    196. D(C  18,Pd 27,C   0,C   2)    116.2246         0.003351   
    197. D(C  18,Pd 27,C   0,C   1)    -68.4211         0.003351   
    198. D(H  36,P  29,Pd 27,C  31)    -43.1168         0.002278   
    199. D(H  36,P  29,Pd 27,Br 28)     41.0520         0.002278   
    200. D(H  36,P  29,Pd 27,C   0)   -178.6589         0.002278   
    201. D(H  35,P  29,Pd 27,C  31)     83.1703         0.002278   
    202. D(H  35,P  29,Pd 27,Br 28)    167.3392         0.002278   
    203. D(H  35,P  29,Pd 27,C  18)    -19.4490         0.002278   
    204. D(H  35,P  29,Pd 27,C   0)    -52.3718         0.002278   
    205. D(H  30,P  29,Pd 27,C  31)   -166.1967         0.002278   
    206. D(H  36,P  29,Pd 27,C  18)   -145.7361         0.002278   
    207. D(H  30,P  29,Pd 27,Br 28)    -82.0278         0.002278   
    208. D(H  30,P  29,Pd 27,C  18)     91.1840         0.002278   
    209. D(H  30,P  29,Pd 27,C   0)     58.2612         0.002278   
    210. D(O  34,C  31,Pd 27,P  29)   -171.0717         0.001516   
    211. D(O  34,C  31,Pd 27,Br 28)     89.5142         0.001516   
    212. D(O  34,C  31,Pd 27,C   0)     -0.2378         0.001516   
    213. D(O  33,C  31,Pd 27,P  29)     75.7668         0.001516   
    214. D(O  33,C  31,Pd 27,Br 28)    -23.6474         0.001516   
    215. D(O  33,C  31,Pd 27,C  18)    162.2433         0.001516   
    216. D(O  33,C  31,Pd 27,C   0)   -113.3994         0.001516   
    217. D(O  32,C  31,Pd 27,P  29)    -49.7357         0.001516   
    218. D(O  34,C  31,Pd 27,C  18)    -84.5952         0.001516   
    219. D(O  32,C  31,Pd 27,Br 28)   -149.1499         0.001516   
    220. D(O  32,C  31,Pd 27,C  18)     36.7408         0.001516   
    221. D(O  32,C  31,Pd 27,C   0)    121.0981         0.001516   
    222. D(H   6,O  33,C  31,O  34)    -39.1084         0.047531   
    223. D(H   6,O  33,C  31,O  32)    150.9854         0.047531   
    224. D(H   6,O  33,C  31,Pd 27)     43.9583         0.047531   
    225. D(H  37,O  34,C  31,O  33)    176.9487         0.033554   
    226. D(H  37,O  34,C  31,O  32)    -13.0071         0.033554   
    227. D(H  37,O  34,C  31,Pd 27)     85.2540         0.033554   
    -----------------------------------------------------------------

Number of atoms                         .... 38
Number of degrees of freedom            .... 227

         *************************************************************
         *                GEOMETRY OPTIMIZATION CYCLE   1            *
         *************************************************************
---------------------------------
CARTESIAN COORDINATES (ANGSTROEM)
---------------------------------
  C     -1.440640    0.151750    0.263090
  C     -1.415520    0.857500    1.473510
  C     -2.458980    0.462120   -0.641740
  C     -3.404820    1.440230   -0.388480
  C     -3.356560    2.145880    0.798590
  C     -2.369850    1.843010    1.715450
  H     -1.432490   -3.282600   -1.930010
  H     -2.550830   -0.090970   -1.572430
  H     -2.335630    2.384120    2.655200
  H     -4.180040    1.644960   -1.116800
  H     -4.084310    2.918610    1.013610
  C     -0.434970    0.622000    2.609020
  C      0.868320   -0.107680    2.259420
  H     -0.954420    0.056740    3.393320
  H     -0.175840    1.600060    3.031240
  C      1.516290    0.548460    1.067570
  H      0.644480   -1.169050    2.038540
  H      1.531640   -0.075360    3.130190
  C      1.082080    0.179540   -0.209860
  C      1.635710    0.825640   -1.307070
  C      2.592350    1.817770   -1.143330
  C      2.468130    1.541960    1.229030
  C      3.010390    2.177880    0.123850
  H      1.351700    0.548450   -2.318490
  H      3.016090    2.306030   -2.012780
  H      2.794500    1.819590    2.225080
  H      3.758520    2.950140    0.253520
  Pd    -0.210160   -1.361440   -0.220340
  Br    -2.080170   -3.050930    0.114410
  P      1.515480   -2.858320   -0.531830
  H      2.108860   -3.411770    0.610070
  C     -0.114800   -2.163800   -2.786350
  O      1.055360   -1.995920   -3.045380
  O     -0.640310   -3.340500   -2.553850
  O     -1.032050   -1.179250   -2.924070
  H      2.719110   -2.377730   -1.019530
  H      1.588670   -4.051430   -1.236330
  H     -0.585290   -0.325710   -3.046050

----------------------------
CARTESIAN COORDINATES (A.U.)
----------------------------
  NO LB      ZA    FRAG     MASS         X           Y           Z
   0 C     6.0000    0    12.011   -2.722415    0.286766    0.497168
   1 C     6.0000    0    12.011   -2.674945    1.620440    2.784530
   2 C     6.0000    0    12.011   -4.646799    0.873280   -1.212713
   3 C     6.0000    0    12.011   -6.434177    2.721640   -0.734121
   4 C     6.0000    0    12.011   -6.342979    4.055126    1.509116
   5 C     6.0000    0    12.011   -4.478367    3.482784    3.241731
   6 H     1.0000    0     1.008   -2.707014   -6.203215   -3.647190
   7 H     1.0000    0     1.008   -4.820370   -0.171908   -2.971462
   8 H     1.0000    0     1.008   -4.413701    4.505334    5.017601
   9 H     1.0000    0     1.008   -7.899131    3.108524   -2.110446
  10 H     1.0000    0     1.008   -7.718227    5.515374    1.915445
  11 C     6.0000    0    12.011   -0.821974    1.175410    4.930333
  12 C     6.0000    0    12.011    1.640887   -0.203486    4.269685
  13 H     1.0000    0     1.008   -1.803592    0.107223    6.412445
  14 H     1.0000    0     1.008   -0.332289    3.023675    5.728213
  15 C     6.0000    0    12.011    2.865373    1.036439    2.017415
  16 H     1.0000    0     1.008    1.217891   -2.209184    3.852282
  17 H     1.0000    0     1.008    2.894380   -0.142410    5.915202
  18 C     6.0000    0    12.011    2.044835    0.339281   -0.396578
  19 C     6.0000    0    12.011    3.091044    1.560233   -2.470004
  20 C     6.0000    0    12.011    4.898832    3.435087   -2.160581
  21 C     6.0000    0    12.011    4.664090    2.913882    2.322530
  22 C     6.0000    0    12.011    5.688813    4.115597    0.234043
  23 H     1.0000    0     1.008    2.554343    1.036420   -4.381311
  24 H     1.0000    0     1.008    5.699584    4.357765   -3.803603
  25 H     1.0000    0     1.008    5.280840    3.438527    4.204792
  26 H     1.0000    0     1.008    7.102573    5.574957    0.479083
  27 Pd   18.0000*   0   106.400   -0.397145   -2.572749   -0.416382
  28 Br   35.0000    0    79.900   -3.930952   -5.765422    0.216204
  29 P    15.0000    0    30.974    2.863842   -5.401442   -1.005013
  30 H     1.0000    0     1.008    3.985168   -6.447311    1.152865
  31 C     6.0000    0    12.011   -0.216941   -4.088989   -5.265438
  32 O     8.0000    0    15.999    1.994341   -3.771742   -5.754934
  33 O     8.0000    0    15.999   -1.210011   -6.312630   -4.826077
  34 O     8.0000    0    15.999   -1.950292   -2.228460   -5.525691
  35 H     1.0000    0     1.008    5.138373   -4.493259   -1.926632
  36 H     1.0000    0     1.008    3.002151   -7.656093   -2.336325
  37 H     1.0000    0     1.008   -1.106038   -0.615503   -5.756200
* core charge reduced due to ECP

--------------------------------
INTERNAL COORDINATES (ANGSTROEM)
--------------------------------
 C      0   0   0     0.000000000000     0.00000000     0.00000000
 C      1   0   0     1.401367422663     0.00000000     0.00000000
 C      1   2   0     1.397162560835   117.42369201     0.00000000
 C      3   1   2     1.383998954226   122.45239061     1.13164444
 C      4   3   1     1.381812626589   119.61952339   359.95630011
 C      5   4   3     1.380564783196   118.91119756   359.15409252
 H      1   2   3     4.074863673180   152.78361499   232.04012345
 H      3   1   2     1.086521443277   120.21660728   183.02824882
 H      6   5   4     1.084942903106   119.23355707   180.86103959
 H      4   3   1     1.083203786783   119.97580879   180.27593330
 H      5   4   3     1.083035232945   120.75993183   179.68647044
 C      2   1   3     1.518657799703   125.40153661   176.92693405
 C     12   2   1     1.534020171478   116.86666470    20.07222605
 H     12   2   1     1.097485152565   107.97515316   257.28790499
 H     12   2   1     1.096366475637   107.59076878   141.85476303
 C     13  12   2     1.506947657684   109.78248116    50.47609138
 H     13  12   2     1.106977234138   109.25341720   289.42547364
 H     13  12   2     1.095115700600   108.62392121   171.80668001
 C     16  13  12     1.398737893746   118.29357387   276.27547593
 C     19  16  13     1.388459999784   118.37157280   177.18423666
 C     20  19  16     1.387909512216   120.94711698   359.71749710
 C     16  13  12     1.385319806832   121.03224812    92.95573886
 C     21  20  19     1.382093269682   120.19221231     0.04258433
 H     20  19  16     1.086492702507   120.84281651   177.99055917
 H     21  20  19     1.083465143740   119.80416721   179.66172292
 H     22  16  13     1.084302262425   119.83483641     3.27665352
 H     23  21  20     1.083004299807   120.29904953   179.85099034
 Pd     1   2   3     2.009360488165   125.17583102   184.65311491
 Br     7   1   2     2.157038133112    53.04245758    24.44762130
 P     28   1   2     2.305538801257   168.46014135   325.14859899
 H     30  28   1     1.400836299109   117.60838799    58.26122272
 C      7   1   2     1.929077129536    75.60986384   227.35590589
 O     32   7   1     1.210187861821   146.71428603   113.02982927
 O      7   1   2     1.009989063307   112.47723366   240.46441453
 O     32   7   1     1.352646688311    90.23711260   305.24678872
 H     30  28   1     1.384753846357   118.21818320   307.62823050
 H     30  28   1     1.387511620924   131.78738355   181.34109221
 H     35  32   7     0.971084007489   109.91212290   159.10408030

---------------------------
INTERNAL COORDINATES (A.U.)
---------------------------
 C      0   0   0     0.000000000000     0.00000000     0.00000000
 C      1   0   0     2.648200641831     0.00000000     0.00000000
 C      1   2   0     2.640254604547   117.42369201     0.00000000
 C      3   1   2     2.615378993121   122.45239061     1.13164444
 C      4   3   1     2.611247432647   119.61952339   359.95630011
 C      5   4   3     2.608889350376   118.91119756   359.15409252
 H      1   2   3     7.700376375374   152.78361499   232.04012345
 H      3   1   2     2.053227966426   120.21660728   183.02824882
 H      6   5   4     2.050244957812   119.23355707   180.86103959
 H      4   3   1     2.046958504245   119.97580879   180.27593330
 H      5   4   3     2.046639983653   120.75993183   179.68647044
 C      2   1   3     2.869847332583   125.40153661   176.92693405
 C     12   2   1     2.898878008003   116.86666470    20.07222605
 H     12   2   1     2.073946374392   107.97515316   257.28790499
 H     12   2   1     2.071832381366   107.59076878   141.85476303
 C     13  12   2     2.847718371177   109.78248116    50.47609138
 H     13  12   2     2.091883809007   109.25341720   289.42547364
 H     13  12   2     2.069468759091   108.62392121   171.80668001
 C     16  13  12     2.643231552317   118.29357387   276.27547593
 C     19  16  13     2.623809147496   118.37157280   177.18423666
 C     20  19  16     2.622768876753   120.94711698   359.71749710
 C     16  13  12     2.617875042808   121.03224812    92.95573886
 C     21  20  19     2.611777771235   120.19221231     0.04258433
 H     20  19  16     2.053173654241   120.84281651   177.99055917
 H     21  20  19     2.047452397319   119.80416721   179.66172292
 H     22  16  13     2.049034322374   119.83483641     3.27665352
 H     23  21  20     2.046581528494   120.29904953   179.85099034
 Pd     1   2   3     3.797141026955   125.17583102   184.65311491
 Br     7   1   2     4.076211332007    53.04245758    24.44762130
 P     28   1   2     4.356836925504   168.46014135   325.14859899
 H     30  28   1     2.647196963771   117.60838799    58.26122272
 C      7   1   2     3.645427466035    75.60986384   227.35590589
 O     32   7   1     2.286923629438   146.71428603   113.02982927
 O      7   1   2     1.908602727906   112.47723366   240.46441453
 O     32   7   1     2.556131796864    90.23711260   305.24678872
 H     30  28   1     2.616805532508   118.21818320   307.62823050
 H     30  28   1     2.622016971180   131.78738355   181.34109221
 H     35  32   7     1.835082827184   109.91212290   159.10408030

---------------------
BASIS SET INFORMATION
---------------------
There are 6 groups of distinct atoms

 Group   1 Type C   : 8s4p1d contracted to 4s2p1d pattern {5111/31/1}
 Group   2 Type H   : 4s contracted to 2s pattern {31}
 Group   3 Type Pd  : 7s6p5d1f contracted to 5s3p2d1f pattern {31111/411/41/1}
 Group   4 Type Br  : 14s10p6d contracted to 5s4p3d pattern {63311/5311/411}
 Group   5 Type P   : 10s7p1d contracted to 4s3p1d pattern {5311/511/1}
 Group   6 Type O   : 8s4p1d contracted to 4s2p1d pattern {5111/31/1}

Atom   0C    basis set group =>   1
Atom   1C    basis set group =>   1
Atom   2C    basis set group =>   1
Atom   3C    basis set group =>   1
Atom   4C    basis set group =>   1
Atom   5C    basis set group =>   1
Atom   6H    basis set group =>   2
Atom   7H    basis set group =>   2
Atom   8H    basis set group =>   2
Atom   9H    basis set group =>   2
Atom  10H    basis set group =>   2
Atom  11C    basis set group =>   1
Atom  12C    basis set group =>   1
Atom  13H    basis set group =>   2
Atom  14H    basis set group =>   2
Atom  15C    basis set group =>   1
Atom  16H    basis set group =>   2
Atom  17H    basis set group =>   2
Atom  18C    basis set group =>   1
Atom  19C    basis set group =>   1
Atom  20C    basis set group =>   1
Atom  21C    basis set group =>   1
Atom  22C    basis set group =>   1
Atom  23H    basis set group =>   2
Atom  24H    basis set group =>   2
Atom  25H    basis set group =>   2
Atom  26H    basis set group =>   2
Atom  27Pd   basis set group =>   3
Atom  28Br   basis set group =>   4
Atom  29P    basis set group =>   5
Atom  30H    basis set group =>   2
Atom  31C    basis set group =>   1
Atom  32O    basis set group =>   6
Atom  33O    basis set group =>   6
Atom  34O    basis set group =>   6
Atom  35H    basis set group =>   2
Atom  36H    basis set group =>   2
Atom  37H    basis set group =>   2
---------------------------------
AUXILIARY/J BASIS SET INFORMATION
---------------------------------
There are 6 groups of distinct atoms

 Group   1 Type C   : 12s5p4d2f1g contracted to 6s4p3d1f1g pattern {711111/2111/211/2/1}
 Group   2 Type H   : 5s2p1d contracted to 3s1p1d pattern {311/2/1}
 Group   3 Type Pd  : 11s5p5d3f3g contracted to 8s5p5d2f3g pattern {41111111/11111/11111/21/111}
 Group   4 Type Br  : 19s5p5d3f1g contracted to 8s4p3d2f1g pattern {121111111/2111/311/21/1}
 Group   5 Type P   : 14s5p5d2f1g contracted to 8s4p3d1f1g pattern {71111111/2111/311/2/1}
 Group   6 Type O   : 12s5p4d2f1g contracted to 6s4p3d1f1g pattern {711111/2111/211/2/1}

Atom   0C    basis set group =>   1
Atom   1C    basis set group =>   1
Atom   2C    basis set group =>   1
Atom   3C    basis set group =>   1
Atom   4C    basis set group =>   1
Atom   5C    basis set group =>   1
Atom   6H    basis set group =>   2
Atom   7H    basis set group =>   2
Atom   8H    basis set group =>   2
Atom   9H    basis set group =>   2
Atom  10H    basis set group =>   2
Atom  11C    basis set group =>   1
Atom  12C    basis set group =>   1
Atom  13H    basis set group =>   2
Atom  14H    basis set group =>   2
Atom  15C    basis set group =>   1
Atom  16H    basis set group =>   2
Atom  17H    basis set group =>   2
Atom  18C    basis set group =>   1
Atom  19C    basis set group =>   1
Atom  20C    basis set group =>   1
Atom  21C    basis set group =>   1
Atom  22C    basis set group =>   1
Atom  23H    basis set group =>   2
Atom  24H    basis set group =>   2
Atom  25H    basis set group =>   2
Atom  26H    basis set group =>   2
Atom  27Pd   basis set group =>   3
Atom  28Br   basis set group =>   4
Atom  29P    basis set group =>   5
Atom  30H    basis set group =>   2
Atom  31C    basis set group =>   1
Atom  32O    basis set group =>   6
Atom  33O    basis set group =>   6
Atom  34O    basis set group =>   6
Atom  35H    basis set group =>   2
Atom  36H    basis set group =>   2
Atom  37H    basis set group =>   2
-------------------------
ECP PARAMETER INFORMATION
-------------------------

 Group 1, Type Pd ECP Def2-ECP (replacing 28 core electrons, lmax=3)

Atom  27Pd   ECP group =>   1



           ************************************************************
           *        Program running with 4 parallel MPI-processes     *
           *              working on a common directory               *
           ************************************************************
------------------------------------------------------------------------------
                           ORCA GTO INTEGRAL CALCULATION
                           -- RI-GTO INTEGRALS CHOSEN --
------------------------------------------------------------------------------
------------------------------------------------------------------------------
                   ___                                                        
                  /   \      - P O W E R E D   B Y -                         
                 /     \                                                     
                 |  |  |   _    _      __       _____    __    __             
                 |  |  |  | |  | |    /  \     |  _  \  |  |  /  |          
                  \  \/   | |  | |   /    \    | | | |  |  | /  /          
                 / \  \   | |__| |  /  /\  \   | |_| |  |  |/  /          
                |  |  |   |  __  | /  /__\  \  |    /   |      \           
                |  |  |   | |  | | |   __   |  |    \   |  |\   \          
                \     /   | |  | | |  |  |  |  | |\  \  |  | \   \       
                 \___/    |_|  |_| |__|  |__|  |_| \__\ |__|  \__/        
                                                                              
                      - O R C A' S   B I G   F R I E N D -                    
                                      &                                       
                       - I N T E G R A L  F E E D E R -                       
                                                                              
 v1 FN, 2020, v2 2021                                                         
------------------------------------------------------------------------------


Reading SHARK input file reaction-3-prod-pbeh3c-orca_opt.SHARKINP.tmp ... ok
----------------------
SHARK INTEGRAL PACKAGE
----------------------

Number of atoms                             ...     38
Number of basis functions                   ...    385
Number of shells                            ...    191
Maximum angular momentum                    ...      3
Integral batch strategy                     ... SHARK/LIBINT Hybrid
RI-J (if used) integral strategy            ... SPLIT-RIJ (Revised 2003 algorithm where possible)
Printlevel                                  ...      1
Contraction scheme used                     ... SEGMENTED contraction
Coulomb Range Separation                    ... NOT USED
Exchange Range Separation                   ... NOT USED
Finite Nucleus Model                        ... NOT USED
Auxiliary Coulomb fitting basis             ... AVAILABLE
   # of basis functions in Aux-J            ...   1267
   # of shells in Aux-J                     ...    413
   Maximum angular momentum in Aux-J        ...      4
Auxiliary J/K fitting basis                 ... NOT available
Auxiliary Correlation fitting basis         ... NOT available
Auxiliary 'external' fitting basis          ... NOT available
Integral threshold                          ...     2.500000e-11
Primitive cut-off                           ...     2.500000e-12
Primitive pair pre-selection threshold      ...     2.500000e-12

Calculating pre-screening integrals         ... done (  0.1 sec) Dimension = 191
Organizing shell pair data                  ... done (  0.1 sec)
Shell pair information
Total number of shell pairs                 ...     18336
Shell pairs after pre-screening             ...     13379
Total number of primitive shell pairs       ...     68628
Primitive shell pairs kept                  ...     31051
          la=0 lb=0:   4771 shell pairs
          la=1 lb=0:   4437 shell pairs
          la=1 lb=1:    983 shell pairs
          la=2 lb=0:   1907 shell pairs
          la=2 lb=1:    919 shell pairs
          la=2 lb=2:    205 shell pairs
          la=3 lb=0:     88 shell pairs
          la=3 lb=1:     46 shell pairs
          la=3 lb=2:     22 shell pairs
          la=3 lb=3:      1 shell pairs

Calculating one electron integrals          ... done (  0.0 sec)
Calculating ECP integrals                   ... done (  0.6 sec)
Calculating RI/J V-Matrix + Cholesky decomp.... done (  0.1 sec)
Calculating Nuclear repulsion               ... done (  0.0 sec) ENN=   2715.642469203041 Eh

SHARK setup successfully completed in   1.1 seconds

Maximum memory used throughout the entire GTOINT-calculation: 28.0 MB


           ************************************************************
           *        Program running with 4 parallel MPI-processes     *
           *              working on a common directory               *
           ************************************************************
-------------------------------------------------------------------------------
                                 ORCA SCF
-------------------------------------------------------------------------------

------------
SCF SETTINGS
------------
Hamiltonian:
 Density Functional     Method          .... DFT(GTOs)
 Exchange Functional    Exchange        .... PBE
   PBE kappa parameter   XKappa         ....  1.024500
   PBE mue parameter    XMuePBE         ....  0.123457
 Correlation Functional Correlation     .... PBE
   PBE beta parameter  CBetaPBE         ....  0.030000
 LDA part of GGA corr.  LDAOpt          .... PW91-LDA
 Gradients option       PostSCFGGA      .... off
 Hybrid DFT is turned on
   Fraction HF Exchange ScalHFX         ....  0.420000
   Scaling of DF-GGA-X  ScalDFX         ....  0.580000
   Scaling of DF-GGA-C  ScalDFC         ....  1.000000
   Scaling of DF-LDA-C  ScalLDAC        ....  1.000000
   Perturbative correction              ....  0.000000
   Density functional embedding theory  .... OFF
 RI-approximation to the Coulomb term is turned on
   Number of AuxJ basis functions       .... 1267
   RIJ-ON(X) (HFX calculated with O(N)) .... on
   Number of AuxJ basis functions       .... 1267
   RIJ-COSX (HFX calculated with COS-X)).... on


General Settings:
 Integral files         IntName         .... reaction-3-prod-pbeh3c-orca_opt
 Hartree-Fock type      HFTyp           .... RHF
 Total Charge           Charge          ....   -1
 Multiplicity           Mult            ....    1
 Number of Electrons    NEL             ....  200
 Basis Dimension        Dim             ....  385
 Nuclear Repulsion      ENuc            ....   2715.6424692030 Eh

Convergence Acceleration:
 DIIS                   CNVDIIS         .... on
   Start iteration      DIISMaxIt       ....    12
   Startup error        DIISStart       ....  0.200000
   # of expansion vecs  DIISMaxEq       ....     5
   Bias factor          DIISBfac        ....   1.050
   Max. coefficient     DIISMaxC        ....  10.000
 Trust-Rad. Augm. Hess. CNVTRAH         .... auto
   Auto Start mean grad. ratio tolernc. ....  1.125000
   Auto Start start iteration           ....    20
   Auto Start num. interpolation iter.  ....    10
   Max. Number of Micro iterations      ....    16
   Max. Number of Macro iterations      .... Maxiter - #DIIS iter
   Number of Davidson start vectors     ....     2
   Converg. threshold I  (grad. norm)   ....   1.000e-05
   Converg. threshold II (energy diff.) ....   1.000e-08
   Grad. Scal. Fac. for Micro threshold ....   0.100
   Minimum threshold for Micro iter.    ....   0.010
   NR start threshold (gradient norm)   ....   0.001
   Initial trust radius                 ....   0.400
   Minimum AH scaling param. (alpha)    ....   1.000
   Maximum AH scaling param. (alpha)    .... 1000.000
   Orbital update algorithm             .... Taylor
   White noise on init. David. guess    .... on
   Maximum white noise                  ....   0.010
   Quad. conv. algorithm                .... NR
   COSX micro iterations for RIJONX calc.... off
 SOSCF                  CNVSOSCF        .... off
 Level Shifting         CNVShift        .... on
   Level shift para.    LevelShift      ....    0.2500
   Turn off err/grad.   ShiftErr        ....    0.0010
 Zerner damping         CNVZerner       .... off
 Static damping         CNVDamp         .... on
   Fraction old density DampFac         ....    0.7000
   Max. Damping (<1)    DampMax         ....    0.9800
   Min. Damping (>=0)   DampMin         ....    0.0000
   Turn off err/grad.   DampErr         ....    0.1000
 Fernandez-Rico         CNVRico         .... off

SCF Procedure:
 Maximum # iterations   MaxIter         ....   125
 SCF integral mode      SCFMode         .... Direct
   Integral package                     .... SHARK and LIBINT hybrid scheme
 Reset frequency        DirectResetFreq ....    20
 Integral Threshold     Thresh          ....  2.500e-11 Eh
 Primitive CutOff       TCut            ....  2.500e-12 Eh

Convergence Tolerance:
 Convergence Check Mode ConvCheckMode   .... Total+1el-Energy
 Convergence forced     ConvForced      .... 0
 Energy Change          TolE            ....  1.000e-08 Eh
 1-El. energy change                    ....  1.000e-05 Eh
 DIIS Error             TolErr          ....  5.000e-07


Diagonalization of the overlap matrix:
Smallest eigenvalue                        ... 3.585e-04
Time for diagonalization                   ...    0.039 sec
Threshold for overlap eigenvalues          ... 1.000e-08
Number of eigenvalues below threshold      ... 0
Time for construction of square roots      ...    0.030 sec
Total time needed                          ...    0.085 sec

--------------------------------
INITIAL GUESS: MINIMAL BASIS EHT
--------------------------------
The minimal basis has 147 functions
EHT matrix was diagonalized
Basis set overlap was calculated now projecting the orbitals
Using GuessMode=FMatrix for the initial guess
C*T matrix was formed
Effective Fockian was calculated
Effective Fockian was diagonalized
Initial density was built
                      ------------------
                      INITIAL GUESS DONE
                      ------------------
-------------------
DFT GRID GENERATION
-------------------

General Integration Accuracy     IntAcc      ... 4.159
Radial Grid Type                 RadialGrid  ... OptM3 with GC (2021)
Angular Grid (max. ang.)         AngularGrid ... 3 (Lebedev-194)
Angular grid pruning method      GridPruning ... 4 (adaptive)
Weight generation scheme         WeightScheme... Becke
Basis function cutoff            BFCut       ... 1.0000e-11
Integration weight cutoff        WCut        ... 1.0000e-14
Angular grids for H and He will be reduced by one unit
Partially contracted basis set               ... off
Rotationally invariant grid construction     ... off

Total number of grid points                  ...    96130
Total number of batches                      ...     1521
Average number of points per batch           ...       63
Average number of grid points per atom       ...     2530
Time for grid setup =    0.770 sec

--------------------
COSX GRID GENERATION
--------------------

GRIDX 1
-------
General Integration Accuracy     IntAcc      ... 3.816
Radial Grid Type                 RadialGrid  ... OptM3 with GC (2021)
Angular Grid (max. ang.)         AngularGrid ... 1 (Lebedev-50)
Angular grid pruning method      GridPruning ... 4 (adaptive)
Weight generation scheme         WeightScheme... Becke
Basis function cutoff            BFCut       ... 1.0000e-11
Integration weight cutoff        WCut        ... 1.0000e-14
Angular grids for H and He will be reduced by one unit
Partially contracted basis set               ... on
Rotationally invariant grid construction     ... off

Total number of grid points                  ...    23505
Total number of batches                      ...      385
Average number of points per batch           ...       61
Average number of grid points per atom       ...      619
UseSFitting                                  ... on

GRIDX 2
-------
General Integration Accuracy     IntAcc      ... 4.020
Radial Grid Type                 RadialGrid  ... OptM3 with GC (2021)
Angular Grid (max. ang.)         AngularGrid ... 2 (Lebedev-110)
Angular grid pruning method      GridPruning ... 4 (adaptive)
Weight generation scheme         WeightScheme... Becke
Basis function cutoff            BFCut       ... 1.0000e-11
Integration weight cutoff        WCut        ... 1.0000e-14
Angular grids for H and He will be reduced by one unit
Partially contracted basis set               ... on
Rotationally invariant grid construction     ... off

Total number of grid points                  ...    50798
Total number of batches                      ...      812
Average number of points per batch           ...       62
Average number of grid points per atom       ...     1337
UseSFitting                                  ... on

GRIDX 3
-------
General Integration Accuracy     IntAcc      ... 4.338
Radial Grid Type                 RadialGrid  ... OptM3 with GC (2021)
Angular Grid (max. ang.)         AngularGrid ... 3 (Lebedev-194)
Angular grid pruning method      GridPruning ... 4 (adaptive)
Weight generation scheme         WeightScheme... Becke
Basis function cutoff            BFCut       ... 1.0000e-11
Integration weight cutoff        WCut        ... 1.0000e-14
Angular grids for H and He will be reduced by one unit
Partially contracted basis set               ... on
Rotationally invariant grid construction     ... off

Total number of grid points                  ...   110744
Total number of batches                      ...     1751
Average number of points per batch           ...       63
Average number of grid points per atom       ...     2914
UseSFitting                                  ... on

Time for X-Grid setup             =    2.008 sec

--------------
SCF ITERATIONS
--------------
ITER       Energy         Delta-E        Max-DP      RMS-DP      [F,P]     Damp
               ***  Starting incremental Fock matrix formation  ***
  0  -3832.3668918620   0.000000000000 7.93151387  0.07240177  5.3904012 0.7000
  1  -3828.1419546892   4.224937172780 5.05503625  0.05296321  4.0232285 0.7000
  2  -3828.2781173616  -0.136162672412 2.68760758  0.02470125  2.6879894 0.7000
  3  -3830.9621254196  -2.684008058036 3.51129535  0.02643733  1.9857682 0.7000
  4  -3833.8511310491  -2.889005629499 2.16785589  0.01728301  1.3316352 0.7000
  5  -3837.3755489532  -3.524417904053 1.44315973  0.01256038  1.0038837 0.7000
  6  -3840.4185968295  -3.043047876301 0.99844697  0.00890821  0.7206510 0.7000
  7  -3842.5611760900  -2.142579260555 0.71621650  0.00630990  0.5038955 0.7000
  8  -3844.0852053000  -1.524029209929 0.51613229  0.00445626  0.3486339 0.7000
  9  -3845.1711635160  -1.085958216077 0.36925497  0.00314239  0.2417671 0.7000
                               ***Turning on DIIS***
 10  -3845.9416183439  -0.770454827878 0.26222780  0.00221467  0.1685387 0.7000
 11  -3846.4860586537  -0.544440309811 0.18700475  0.00156945  0.1177744 0.7000
 12  -3846.8698529218  -0.383794268032 0.44075478  0.00369223  0.0820986 0.0000
 13  -3847.7747283858  -0.904875464034 0.00438610  0.00008059  0.0017118 0.0000
 14  -3847.7749447529  -0.000216367137 0.00205355  0.00004869  0.0010627 0.0000
 15  -3847.7750097471  -0.000064994125 0.00230321  0.00004680  0.0005880 0.0000
               *** Restarting incremental Fock matrix formation ***
                                   *** Resetting DIIS ***
 16  -3847.7747097113   0.000300035814 0.00169948  0.00003957  0.0003373 0.0000
 17  -3847.7747114391  -0.000001727818 0.00050866  0.00001121  0.0004732 0.0000
 18  -3847.7747149892  -0.000003550128 0.00030233  0.00000419  0.0001020 0.0000
 19  -3847.7747152829  -0.000000293671 0.00009715  0.00000139  0.0000594 0.0000
 20  -3847.7747153436  -0.000000060765 0.00008344  0.00000078  0.0000196 0.0000
 21  -3847.7747153473  -0.000000003668 0.00003019  0.00000034  0.0000159 0.0000
 22  -3847.7747153568  -0.000000009452 0.00001926  0.00000018  0.0000088 0.0000
 23  -3847.7747153530   0.000000003734 0.00000993  0.00000009  0.0000066 0.0000
 24  -3847.7747153519   0.000000001143 0.00000194  0.00000004  0.0000013 0.0000
                            ***DIIS convergence achieved***

               *****************************************************
               *                     SUCCESS                       *
               *           SCF CONVERGED AFTER  25 CYCLES          *
               *****************************************************

Old exchange energy                            =    -97.819844036 Eh
New exchange energy                            =    -97.820094804 Eh
Exchange energy change after final integration =     -0.000250767 Eh
Total energy after final integration           =  -3847.774966137 Eh
Final COS-X integration done in                =    17.679 sec

----------------
TOTAL SCF ENERGY
----------------

Total Energy       :        -3847.77496614 Eh         -104703.27984 eV

Components:
Nuclear Repulsion  :         2715.64246920 Eh           73896.38841 eV
Electronic Energy  :        -6563.41743534 Eh         -178599.66825 eV
One Electron Energy:       -10816.67008163 Eh         -294336.55670 eV
Two Electron Energy:         4253.25264629 Eh          115736.88846 eV
Max COSX asymmetry :            0.00004964 Eh               0.00135 eV

Virial components:
Potential Energy   :        -7607.38492835 Eh         -207007.46796 eV
Kinetic Energy     :         3759.60996221 Eh          102304.18812 eV
Virial Ratio       :            2.02345057


DFT components:
N(Alpha)           :       99.999958809700 electrons
N(Beta)            :       99.999958809700 electrons
N(Total)           :      199.999917619400 electrons
E(X)               :     -130.926085917769 Eh       
E(C)               :       -9.749158478345 Eh       
E(XC)              :     -140.675244396114 Eh       
DFET-embed. en.    :        0.000000000000 Eh       

---------------
SCF CONVERGENCE
---------------

  Last Energy change         ...   -1.7711e-08  Tolerance :   1.0000e-08
  Last MAX-Density change    ...    0.0000e+00  Tolerance :   1.0000e-07
  Last RMS-Density change    ...    0.0000e+00  Tolerance :   5.0000e-09
  Last DIIS Error            ...    9.0581e-07  Tolerance :   5.0000e-07

             **** THE GBW FILE WAS UPDATED (reaction-3-prod-pbeh3c-orca_opt.gbw) ****
             **** DENSITY reaction-3-prod-pbeh3c-orca_opt.scfp WAS UPDATED ****
             **** ENERGY FILE WAS UPDATED (reaction-3-prod-pbeh3c-orca_opt.en.tmp) ****
             **** THE GBW FILE WAS UPDATED (reaction-3-prod-pbeh3c-orca_opt.gbw) ****
             **** DENSITY reaction-3-prod-pbeh3c-orca_opt.scfp WAS UPDATED ****
----------------
ORBITAL ENERGIES
----------------

  NO   OCC          E(Eh)            E(eV) 
   0   2.0000    -484.327277    -13179.2152 
   1   2.0000     -77.633840     -2112.5242 
   2   2.0000     -62.988944     -1714.0163 
   3   2.0000     -56.692497     -1542.6813 
   4   2.0000     -56.691767     -1542.6614 
   5   2.0000     -56.691460     -1542.6530 
   6   2.0000     -19.435344      -528.8626 
   7   2.0000     -19.416739      -528.3563 
   8   2.0000     -19.367284      -527.0106 
   9   2.0000     -10.517807      -286.2041 
  10   2.0000     -10.325647      -280.9751 
  11   2.0000     -10.325073      -280.9595 
  12   2.0000     -10.324428      -280.9420 
  13   2.0000     -10.322886      -280.9000 
  14   2.0000     -10.322709      -280.8952 
  15   2.0000     -10.320895      -280.8458 
  16   2.0000     -10.319983      -280.8210 
  17   2.0000     -10.318045      -280.7683 
  18   2.0000     -10.317194      -280.7451 
  19   2.0000     -10.314334      -280.6673 
  20   2.0000     -10.313117      -280.6342 
  21   2.0000     -10.312393      -280.6145 
  22   2.0000     -10.307649      -280.4854 
  23   2.0000     -10.302193      -280.3369 
  24   2.0000      -8.816503      -239.9092 
  25   2.0000      -6.710507      -182.6022 
  26   2.0000      -6.584938      -179.1853 
  27   2.0000      -6.582719      -179.1249 
  28   2.0000      -6.580664      -179.0690 
  29   2.0000      -4.801258      -130.6489 
  30   2.0000      -4.801139      -130.6456 
  31   2.0000      -4.799322      -130.5962 
  32   2.0000      -3.502231       -95.3005 
  33   2.0000      -2.599450       -70.7346 
  34   2.0000      -2.599164       -70.7268 
  35   2.0000      -2.597386       -70.6785 
  36   2.0000      -2.595400       -70.6244 
  37   2.0000      -2.595148       -70.6176 
  38   2.0000      -2.148384       -58.4605 
  39   2.0000      -2.143246       -58.3207 
  40   2.0000      -2.119815       -57.6831 
  41   2.0000      -1.145018       -31.1575 
  42   2.0000      -1.042779       -28.3755 
  43   2.0000      -1.013479       -27.5782 
  44   2.0000      -0.836775       -22.7698 
  45   2.0000      -0.821255       -22.3475 
  46   2.0000      -0.768267       -20.9056 
  47   2.0000      -0.718865       -19.5613 
  48   2.0000      -0.707707       -19.2577 
  49   2.0000      -0.693158       -18.8618 
  50   2.0000      -0.670261       -18.2387 
  51   2.0000      -0.648051       -17.6344 
  52   2.0000      -0.623248       -16.9594 
  53   2.0000      -0.609200       -16.5772 
  54   2.0000      -0.594628       -16.1806 
  55   2.0000      -0.556212       -15.1353 
  56   2.0000      -0.545737       -14.8503 
  57   2.0000      -0.539774       -14.6880 
  58   2.0000      -0.533941       -14.5293 
  59   2.0000      -0.506502       -13.7826 
  60   2.0000      -0.457109       -12.4386 
  61   2.0000      -0.452093       -12.3021 
  62   2.0000      -0.445999       -12.1363 
  63   2.0000      -0.436924       -11.8893 
  64   2.0000      -0.412847       -11.2341 
  65   2.0000      -0.395904       -10.7731 
  66   2.0000      -0.385601       -10.4927 
  67   2.0000      -0.380891       -10.3646 
  68   2.0000      -0.377900       -10.2832 
  69   2.0000      -0.366179        -9.9642 
  70   2.0000      -0.352043        -9.5796 
  71   2.0000      -0.348352        -9.4791 
  72   2.0000      -0.343442        -9.3455 
  73   2.0000      -0.340070        -9.2538 
  74   2.0000      -0.335912        -9.1406 
  75   2.0000      -0.327908        -8.9228 
  76   2.0000      -0.319765        -8.7012 
  77   2.0000      -0.315814        -8.5937 
  78   2.0000      -0.298705        -8.1282 
  79   2.0000      -0.295537        -8.0420 
  80   2.0000      -0.291846        -7.9415 
  81   2.0000      -0.280710        -7.6385 
  82   2.0000      -0.275462        -7.4957 
  83   2.0000      -0.268346        -7.3021 
  84   2.0000      -0.261486        -7.1154 
  85   2.0000      -0.252361        -6.8671 
  86   2.0000      -0.249548        -6.7906 
  87   2.0000      -0.241174        -6.5627 
  88   2.0000      -0.235117        -6.3979 
  89   2.0000      -0.207722        -5.6524 
  90   2.0000      -0.204626        -5.5682 
  91   2.0000      -0.184064        -5.0086 
  92   2.0000      -0.172527        -4.6947 
  93   2.0000      -0.165659        -4.5078 
  94   2.0000      -0.155930        -4.2431 
  95   2.0000      -0.152238        -4.1426 
  96   2.0000      -0.151563        -4.1242 
  97   2.0000      -0.141695        -3.8557 
  98   2.0000      -0.127628        -3.4729 
  99   2.0000      -0.125720        -3.4210 
 100   0.0000       0.135705         3.6927 
 101   0.0000       0.142996         3.8911 
 102   0.0000       0.145428         3.9573 
 103   0.0000       0.157892         4.2964 
 104   0.0000       0.167188         4.5494 
 105   0.0000       0.173056         4.7091 
 106   0.0000       0.179217         4.8767 
 107   0.0000       0.187425         5.1001 
 108   0.0000       0.201624         5.4865 
 109   0.0000       0.207886         5.6569 
 110   0.0000       0.216983         5.9044 
 111   0.0000       0.227915         6.2019 
 112   0.0000       0.259363         7.0576 
 113   0.0000       0.270498         7.3606 
 114   0.0000       0.283866         7.7244 
 115   0.0000       0.293744         7.9932 
 116   0.0000       0.304481         8.2853 
 117   0.0000       0.311009         8.4630 
 118   0.0000       0.316708         8.6181 
 119   0.0000       0.323034         8.7902 
 120   0.0000       0.324245         8.8232 
 121   0.0000       0.335519         9.1299 
 122   0.0000       0.343533         9.3480 
 123   0.0000       0.347587         9.4583 
 124   0.0000       0.350585         9.5399 
 125   0.0000       0.358817         9.7639 
 126   0.0000       0.372385        10.1331 
 127   0.0000       0.375682        10.2228 
 128   0.0000       0.380746        10.3606 
 129   0.0000       0.386739        10.5237 
 130   0.0000       0.398956        10.8561 
 131   0.0000       0.402825        10.9614 
 132   0.0000       0.414096        11.2681 
 133   0.0000       0.422422        11.4947 
 134   0.0000       0.434611        11.8264 
 135   0.0000       0.443558        12.0698 
 136   0.0000       0.448689        12.2094 
 137   0.0000       0.459181        12.4949 
 138   0.0000       0.462677        12.5901 
 139   0.0000       0.476824        12.9750 
 140   0.0000       0.493976        13.4418 
 141   0.0000       0.504513        13.7285 
 142   0.0000       0.522865        14.2279 
 143   0.0000       0.540233        14.7005 
 144   0.0000       0.546653        14.8752 
 145   0.0000       0.567939        15.4544 
 146   0.0000       0.572343        15.5742 
 147   0.0000       0.582990        15.8640 
 148   0.0000       0.593418        16.1477 
 149   0.0000       0.612918        16.6784 
 150   0.0000       0.618797        16.8383 
 151   0.0000       0.629742        17.1361 
 152   0.0000       0.635550        17.2942 
 153   0.0000       0.651983        17.7414 
 154   0.0000       0.659144        17.9362 
 155   0.0000       0.662428        18.0256 
 156   0.0000       0.664884        18.0924 
 157   0.0000       0.668920        18.2022 
 158   0.0000       0.676151        18.3990 
 159   0.0000       0.679814        18.4987 
 160   0.0000       0.696819        18.9614 
 161   0.0000       0.697664        18.9844 
 162   0.0000       0.707471        19.2513 
 163   0.0000       0.714307        19.4373 
 164   0.0000       0.722264        19.6538 
 165   0.0000       0.730990        19.8913 
 166   0.0000       0.733730        19.9658 
 167   0.0000       0.739662        20.1272 
 168   0.0000       0.742303        20.1991 
 169   0.0000       0.747068        20.3287 
 170   0.0000       0.748238        20.3606 
 171   0.0000       0.750388        20.4191 
 172   0.0000       0.756929        20.5971 
 173   0.0000       0.764268        20.7968 
 174   0.0000       0.769431        20.9373 
 175   0.0000       0.775294        21.0968 
 176   0.0000       0.780867        21.2485 
 177   0.0000       0.788185        21.4476 
 178   0.0000       0.797129        21.6910 
 179   0.0000       0.799987        21.7688 
 180   0.0000       0.813036        22.1238 
 181   0.0000       0.816757        22.2251 
 182   0.0000       0.823863        22.4184 
 183   0.0000       0.829128        22.5617 
 184   0.0000       0.836838        22.7715 
 185   0.0000       0.840142        22.8614 
 186   0.0000       0.850519        23.1438 
 187   0.0000       0.854754        23.2590 
 188   0.0000       0.863047        23.4847 
 189   0.0000       0.875942        23.8356 
 190   0.0000       0.893816        24.3220 
 191   0.0000       0.904058        24.6007 
 192   0.0000       0.904757        24.6197 
 193   0.0000       0.917299        24.9610 
 194   0.0000       0.920942        25.0601 
 195   0.0000       0.937811        25.5191 
 196   0.0000       0.956359        26.0238 
 197   0.0000       0.960641        26.1404 
 198   0.0000       0.974506        26.5176 
 199   0.0000       0.989468        26.9248 
 200   0.0000       0.993269        27.0282 
 201   0.0000       1.006266        27.3819 
 202   0.0000       1.021673        27.8011 
 203   0.0000       1.027716        27.9656 
 204   0.0000       1.043029        28.3823 
 205   0.0000       1.050757        28.5926 
 206   0.0000       1.055111        28.7110 
 207   0.0000       1.063873        28.9494 
 208   0.0000       1.070748        29.1365 
 209   0.0000       1.079339        29.3703 
 210   0.0000       1.090256        29.6674 
 211   0.0000       1.099497        29.9188 
 212   0.0000       1.103564        30.0295 
 213   0.0000       1.110104        30.2075 
 214   0.0000       1.120984        30.5035 
 215   0.0000       1.124074        30.5876 
 216   0.0000       1.125974        30.6393 
 217   0.0000       1.141100        31.0509 
 218   0.0000       1.151400        31.3312 
 219   0.0000       1.154843        31.4249 
 220   0.0000       1.171226        31.8707 
 221   0.0000       1.173165        31.9234 
 222   0.0000       1.182024        32.1645 
 223   0.0000       1.191850        32.4319 
 224   0.0000       1.203433        32.7471 
 225   0.0000       1.212279        32.9878 
 226   0.0000       1.215247        33.0686 
 227   0.0000       1.225489        33.3472 
 228   0.0000       1.233462        33.5642 
 229   0.0000       1.235312        33.6145 
 230   0.0000       1.240983        33.7689 
 231   0.0000       1.251949        34.0673 
 232   0.0000       1.269295        34.5393 
 233   0.0000       1.274856        34.6906 
 234   0.0000       1.278060        34.7778 
 235   0.0000       1.294894        35.2359 
 236   0.0000       1.301316        35.4106 
 237   0.0000       1.307857        35.5886 
 238   0.0000       1.334081        36.3022 
 239   0.0000       1.339727        36.4558 
 240   0.0000       1.364041        37.1174 
 241   0.0000       1.369076        37.2544 
 242   0.0000       1.383334        37.6424 
 243   0.0000       1.399748        38.0891 
 244   0.0000       1.432900        38.9912 
 245   0.0000       1.440305        39.1927 
 246   0.0000       1.442340        39.2481 
 247   0.0000       1.458376        39.6844 
 248   0.0000       1.465076        39.8668 
 249   0.0000       1.468136        39.9500 
 250   0.0000       1.472365        40.0651 
 251   0.0000       1.493135        40.6303 
 252   0.0000       1.506684        40.9990 
 253   0.0000       1.524637        41.4875 
 254   0.0000       1.531307        41.6690 
 255   0.0000       1.541090        41.9352 
 256   0.0000       1.580604        43.0104 
 257   0.0000       1.598238        43.4903 
 258   0.0000       1.614019        43.9197 
 259   0.0000       1.628491        44.3135 
 260   0.0000       1.636117        44.5210 
 261   0.0000       1.645639        44.7801 
 262   0.0000       1.660421        45.1824 
 263   0.0000       1.679728        45.7077 
 264   0.0000       1.684618        45.8408 
 265   0.0000       1.691193        46.0197 
 266   0.0000       1.694729        46.1159 
 267   0.0000       1.700952        46.2853 
 268   0.0000       1.731627        47.1200 
 269   0.0000       1.759924        47.8900 
 270   0.0000       1.776907        48.3521 
 271   0.0000       1.812719        49.3266 
 272   0.0000       1.819813        49.5196 
 273   0.0000       1.873722        50.9866 
 274   0.0000       1.888170        51.3797 
 275   0.0000       1.890781        51.4508 
 276   0.0000       1.924312        52.3632 
 277   0.0000       1.946507        52.9672 
 278   0.0000       1.966527        53.5119 
 279   0.0000       1.989242        54.1300 
 280   0.0000       1.996027        54.3147 
 281   0.0000       2.005042        54.5600 
 282   0.0000       2.017953        54.9113 
 283   0.0000       2.024212        55.0816 
 284   0.0000       2.038712        55.4762 
 285   0.0000       2.049254        55.7630 
 286   0.0000       2.060491        56.0688 
 287   0.0000       2.096095        57.0376 
 288   0.0000       2.102196        57.2037 
 289   0.0000       2.113703        57.5168 
 290   0.0000       2.117488        57.6198 
 291   0.0000       2.128983        57.9326 
 292   0.0000       2.148237        58.4565 
 293   0.0000       2.165660        58.9306 
 294   0.0000       2.189044        59.5669 
 295   0.0000       2.195675        59.7474 
 296   0.0000       2.204614        59.9906 
 297   0.0000       2.216578        60.3162 
 298   0.0000       2.244889        61.0865 
 299   0.0000       2.267019        61.6887 
 300   0.0000       2.275005        61.9060 
 301   0.0000       2.315917        63.0193 
 302   0.0000       2.317701        63.0678 
 303   0.0000       2.337820        63.6153 
 304   0.0000       2.339925        63.6726 
 305   0.0000       2.343314        63.7648 
 306   0.0000       2.355624        64.0998 
 307   0.0000       2.370666        64.5091 
 308   0.0000       2.383597        64.8610 
 309   0.0000       2.391615        65.0792 
 310   0.0000       2.393670        65.1351 
 311   0.0000       2.402311        65.3702 
 312   0.0000       2.432480        66.1912 
 313   0.0000       2.453467        66.7622 
 314   0.0000       2.469225        67.1910 
 315   0.0000       2.479449        67.4692 
 316   0.0000       2.498638        67.9914 
 317   0.0000       2.516590        68.4799 
 318   0.0000       2.525618        68.7255 
 319   0.0000       2.540946        69.1426 
 320   0.0000       2.561253        69.6952 
 321   0.0000       2.574628        70.0592 
 322   0.0000       2.605451        70.8979 
 323   0.0000       2.620036        71.2948 
 324   0.0000       2.622090        71.3507 
 325   0.0000       2.635811        71.7241 
 326   0.0000       2.650249        72.1169 
 327   0.0000       2.664472        72.5040 
 328   0.0000       2.672184        72.7138 
 329   0.0000       2.679002        72.8994 
 330   0.0000       2.697993        73.4161 
 331   0.0000       2.729820        74.2822 
 332   0.0000       2.762814        75.1800 
 333   0.0000       2.779439        75.6324 
 334   0.0000       2.797498        76.1238 
 335   0.0000       2.816752        76.6477 
 336   0.0000       2.834821        77.1394 
 337   0.0000       2.841336        77.3167 
 338   0.0000       2.864829        77.9560 
 339   0.0000       2.869743        78.0897 
 340   0.0000       2.881864        78.4195 
 341   0.0000       2.893235        78.7289 
 342   0.0000       2.912422        79.2510 
 343   0.0000       2.927401        79.6586 
 344   0.0000       2.943359        80.0929 
 345   0.0000       2.948462        80.2317 
 346   0.0000       2.959699        80.5375 
 347   0.0000       2.976702        81.0002 
 348   0.0000       2.989981        81.3615 
 349   0.0000       3.000342        81.6435 
 350   0.0000       3.024100        82.2900 
 351   0.0000       3.038058        82.6698 
 352   0.0000       3.073678        83.6390 
 353   0.0000       3.085515        83.9611 
 354   0.0000       3.216428        87.5235 
 355   0.0000       3.257118        88.6307 
 356   0.0000       3.286555        89.4317 
 357   0.0000       3.307001        89.9881 
 358   0.0000       3.325730        90.4977 
 359   0.0000       3.601704        98.0073 
 360   0.0000       3.606720        98.1438 
 361   0.0000       3.739423       101.7549 
 362   0.0000       3.787842       103.0724 
 363   0.0000       3.816788       103.8601 
 364   0.0000       3.869815       105.3030 
 365   0.0000       4.085294       111.1665 
 366   0.0000      13.453917       366.0997 
 367   0.0000      13.457730       366.2034 
 368   0.0000      13.764379       374.5478 
 369   0.0000      13.851803       376.9267 
 370   0.0000      13.860458       377.1622 
 371   0.0000      13.911307       378.5459 
 372   0.0000      14.039563       382.0359 
 373   0.0000      14.141236       384.8026 
 374   0.0000      14.224521       387.0689 
 375   0.0000      14.269708       388.2985 
 376   0.0000      14.309196       389.3730 
 377   0.0000      14.316989       389.5851 
 378   0.0000      14.382404       391.3651 
 379   0.0000      14.683429       399.5564 
 380   0.0000      14.738214       401.0472 
 381   0.0000      25.773200       701.3244 
 382   0.0000      25.827065       702.7902 
 383   0.0000      25.923026       705.4014 
 384   0.0000      51.894461      1412.1201 

                    ********************************
                    * MULLIKEN POPULATION ANALYSIS *
                    ********************************

-----------------------
MULLIKEN ATOMIC CHARGES
-----------------------
   0 C :   -0.052795
   1 C :    0.126363
   2 C :   -0.279852
   3 C :   -0.225366
   4 C :   -0.230937
   5 C :   -0.266769
   6 H :    0.464705
   7 H :    0.225488
   8 H :    0.165233
   9 H :    0.170955
  10 H :    0.167006
  11 C :   -0.465802
  12 C :   -0.525057
  13 H :    0.221746
  14 H :    0.199996
  15 C :    0.170845
  16 H :    0.272267
  17 H :    0.195418
  18 C :   -0.120281
  19 C :   -0.277527
  20 C :   -0.235995
  21 C :   -0.300864
  22 C :   -0.223707
  23 H :    0.171877
  24 H :    0.176387
  25 H :    0.170215
  26 H :    0.172016
[...]
      dxy     :     0.019280
 30 H s       :     0.905762  s :     0.905762
 31 C s       :     2.789232  s :     2.789232
      pz      :     0.781849  p :     2.337850
      px      :     0.799426
      py      :     0.756576
      dz2     :     0.023845  d :     0.182087
      dxz     :     0.023168
      dyz     :     0.032621
      dx2y2   :     0.042631
      dxy     :     0.059822
 32 O s       :     3.752571  s :     3.752571
      pz      :     1.467181  p :     4.665878
      px      :     1.421187
      py      :     1.777510
      dz2     :     0.006977  d :     0.030786
      dxz     :     0.008894
      dyz     :     0.002367
      dx2y2   :     0.006868
      dxy     :     0.005680
 33 O s       :     3.792560  s :     3.792560
      pz      :     1.608871  p :     4.779067
      px      :     1.674814
      py      :     1.495382
      dz2     :     0.004606  d :     0.028998
      dxz     :     0.007249
      dyz     :     0.004676
      dx2y2   :     0.007980
      dxy     :     0.004486
 34 O s       :     3.804926  s :     3.804926
      pz      :     1.792774  p :     4.754936
      px      :     1.647489
      py      :     1.314673
      dz2     :     0.005532  d :     0.029897
      dxz     :     0.004945
      dyz     :     0.002023
      dx2y2   :     0.004878
      dxy     :     0.012519
 35 H s       :     0.904017  s :     0.904017
 36 H s       :     0.875676  s :     0.875676
 37 H s       :     0.528777  s :     0.528777


                     *******************************
                     * LOEWDIN POPULATION ANALYSIS *
                     *******************************

----------------------
LOEWDIN ATOMIC CHARGES
----------------------
   0 C :   -0.034058
   1 C :   -0.042272
   2 C :   -0.122346
   3 C :   -0.159941
   4 C :   -0.169406
   5 C :   -0.148349
   6 H :    0.338111
   7 H :    0.148434
   8 H :    0.114318
   9 H :    0.116548
  10 H :    0.114393
  11 C :   -0.211794
  12 C :   -0.211956
  13 H :    0.128196
  14 H :    0.122351
  15 C :   -0.036989
  16 H :    0.157295
  17 H :    0.115930
  18 C :   -0.017016
  19 C :   -0.142916
  20 C :   -0.152346
  21 C :   -0.145203
  22 C :   -0.170523
  23 H :    0.133606
  24 H :    0.119832
  25 H :    0.117690
  26 H :    0.116877
  27 Pd:   -0.943251
  28 Br:   -0.282985
  29 P :    0.352292
  30 H :    0.042563
  31 C :    0.130531
  32 O :   -0.262566
  33 O :   -0.284678
  34 O :   -0.274225
  35 H :    0.038429
  36 H :    0.054223
  37 H :    0.351202

-------------------------------
LOEWDIN REDUCED ORBITAL CHARGES
-------------------------------
  0 C s       :     2.890469  s :     2.890469
      pz      :     0.996827  p :     3.052390
      px      :     1.030123
      py      :     1.025439
      dz2     :     0.016671  d :     0.091199
      dxz     :     0.022497
      dyz     :     0.021009
      dx2y2   :     0.019275
      dxy     :     0.011746
  1 C s       :     2.841441  s :     2.841441
      pz      :     1.040536  p :     3.090479
      px      :     1.010719
      py      :     1.039224
      dz2     :     0.023113  d :     0.110352
      dxz     :     0.025815
      dyz     :     0.020384
      dx2y2   :     0.018756
      dxy     :     0.022284
  2 C s       :     2.879906  s :     2.879906
      pz      :     1.055847  p :     3.148909
      px      :     1.054592
      py      :     1.038470
      dz2     :     0.015935  d :     0.093531
      dxz     :     0.017338
      dyz     :     0.019065
      dx2y2   :     0.019222
      dxy     :     0.021970
  3 C s       :     2.888003  s :     2.888003
      pz      :     1.054340  p :     3.178860
      px      :     1.055818
      py      :     1.068703
      dz2     :     0.015415  d :     0.093078
      dxz     :     0.022204
      dyz     :     0.018803
      dx2y2   :     0.019987
      dxy     :     0.016670
  4 C s       :     2.884681  s :     2.884681
      pz      :     1.077166  p :     3.191829
      px      :     1.060703
      py      :     1.053960
      dz2     :     0.023589  d :     0.092897
      dxz     :     0.019488
      dyz     :     0.017687
      dx2y2   :     0.011563
      dxy     :     0.020569
  5 C s       :     2.886207  s :     2.886207
      pz      :     1.050856  p :     3.169914
      px      :     1.068196
      py      :     1.050863
      dz2     :     0.015140  d :     0.092228
      dxz     :     0.018481
      dyz     :     0.020502
      dx2y2   :     0.019948
      dxy     :     0.018158
  6 H s       :     0.661889  s :     0.661889
  7 H s       :     0.851566  s :     0.851566
  8 H s       :     0.885682  s :     0.885682
  9 H s       :     0.883452  s :     0.883452
 10 H s       :     0.885607  s :     0.885607
 11 C s       :     2.898698  s :     2.898698
      pz      :     1.083156  p :     3.222234
      px      :     1.050943
      py      :     1.088136
      dz2     :     0.017284  d :     0.090861
      dxz     :     0.024924
      dyz     :     0.011345
      dx2y2   :     0.022152
      dxy     :     0.015156
 12 C s       :     2.891166  s :     2.891166
      pz      :     1.062684  p :     3.230132
      px      :     1.060917
      py      :     1.106531
      dz2     :     0.020038  d :     0.090658
      dxz     :     0.026379
      dyz     :     0.008703
      dx2y2   :     0.022402
      dxy     :     0.013137
 13 H s       :     0.871804  s :     0.871804
 14 H s       :     0.877649  s :     0.877649
 15 C s       :     2.835455  s :     2.835455
      pz      :     1.063373  p :     3.089177
      px      :     1.011556
      py      :     1.014248
      dz2     :     0.031533  d :     0.112357
      dxz     :     0.026322
      dyz     :     0.024653
      dx2y2   :     0.013487
      dxy     :     0.016363
 16 H s       :     0.842705  s :     0.842705
 17 H s       :     0.884070  s :     0.884070
 18 C s       :     2.877830  s :     2.877830
      pz      :     1.058803  p :     3.041045
      px      :     0.978808
      py      :     1.003434
      dz2     :     0.025007  d :     0.098141
      dxz     :     0.025972
      dyz     :     0.026173
      dx2y2   :     0.012805
      dxy     :     0.008184
 19 C s       :     2.879211  s :     2.879211
      pz      :     1.079419  p :     3.170624
      px      :     1.047086
      py      :     1.044120
      dz2     :     0.027087  d :     0.093081
      dxz     :     0.017880
      dyz     :     0.020438
      dx2y2   :     0.012126
      dxy     :     0.015550
 20 C s       :     2.888873  s :     2.888873
      pz      :     1.072460  p :     3.170697
      px      :     1.048225
      py      :     1.050012
      dz2     :     0.023241  d :     0.092776
      dxz     :     0.022644
      dyz     :     0.020806
      dx2y2   :     0.013101
      dxy     :     0.012984
 21 C s       :     2.885911  s :     2.885911
      pz      :     1.068670  p :     3.166681
      px      :     1.052190
      py      :     1.045822
      dz2     :     0.023747  d :     0.092611
      dxz     :     0.020341
      dyz     :     0.021381
      dx2y2   :     0.013698
      dxy     :     0.013444
 22 C s       :     2.885128  s :     2.885128
      pz      :     1.095048  p :     3.193497
      px      :     1.049779
      py      :     1.048670
      dz2     :     0.030727  d :     0.091898
      dxz     :     0.022454
      dyz     :     0.022283
      dx2y2   :     0.003609
      dxy     :     0.012825
 23 H s       :     0.866394  s :     0.866394
 24 H s       :     0.880168  s :     0.880168
 25 H s       :     0.882310  s :     0.882310
 26 H s       :     0.883123  s :     0.883123
 27 Pds       :     2.602442  s :     2.602442
      pz      :     2.177117  p :     6.946354
      px      :     2.367008
      py      :     2.402230
      dz2     :     1.974989  d :     9.389762
      dxz     :     1.967562
      dyz     :     1.979749
      dx2y2   :     1.984626
      dxy     :     1.482836
      f0      :     0.000372  f :     0.004693
      f+1     :     0.000463
      f-1     :     0.000603
      f+2     :     0.000049
      f-2     :     0.000654
      f+3     :     0.001343
      f-3     :     0.001210
 28 Brs       :     7.812952  s :     7.812952
      pz      :     5.860213  p :    17.453358
      px      :     5.815396
      py      :     5.777750
      dz2     :     2.003079  d :    10.016675
      dxz     :     2.001883
      dyz     :     2.002383
      dx2y2   :     2.004506
      dxy     :     2.004825
 29 P s       :     5.280898  s :     5.280898
      pz      :     2.954628  p :     9.159297
      px      :     3.108104
      py      :     3.096564
      dz2     :     0.016545  d :     0.207513
      dxz     :     0.031995
      dyz     :     0.077895
      dx2y2   :     0.056872
      dxy     :     0.024207
 30 H s       :     0.957437  s :     0.957437
 31 C s       :     2.772349  s :     2.772349
      pz      :     0.833721  p :     2.693107
      px      :     0.953138
      py      :     0.906248
      dz2     :     0.050636  d :     0.404013
      dxz     :     0.052709
      dyz     :     0.071400
      dx2y2   :     0.094529
      dxy     :     0.134738
 32 O s       :     3.511594  s :     3.511594
      pz      :     1.475133  p :     4.695322
      px      :     1.477314
      py      :     1.742875
      dz2     :     0.009166  d :     0.055650
      dxz     :     0.018841
      dyz     :     0.004139
      dx2y2   :     0.013590
      dxy     :     0.009914
 33 O s       :     3.475481  s :     3.475481
      pz      :     1.577676  p :     4.757187
      px      :     1.648210
      py      :     1.531302
      dz2     :     0.008911  d :     0.052009
      dxz     :     0.010236
      dyz     :     0.008111
      dx2y2   :     0.015622
      dxy     :     0.009129
 34 O s       :     3.483584  s :     3.483584
      pz      :     1.767170  p :     4.737210
      px      :     1.654067
      py      :     1.315973
      dz2     :     0.008302  d :     0.053432
      dxz     :     0.007214
      dyz     :     0.005163
      dx2y2   :     0.010578
      dxy     :     0.022176
 35 H s       :     0.961571  s :     0.961571
 36 H s       :     0.945777  s :     0.945777
 37 H s       :     0.648798  s :     0.648798


                      *****************************
                      * MAYER POPULATION ANALYSIS *
                      *****************************

  NA   - Mulliken gross atomic population
  ZA   - Total nuclear charge
  QA   - Mulliken gross atomic charge
  VA   - Mayer's total valence
  BVA  - Mayer's bonded valence
  FA   - Mayer's free valence

  ATOM       NA         ZA         QA         VA         BVA        FA
  0 C      6.0300     6.0000    -0.0300     3.7500     3.7500     0.0000
  1 C      5.9029     6.0000     0.0971     3.7282     3.7282    -0.0000
  2 C      6.2732     6.0000    -0.2732     3.8333     3.8333    -0.0000
  3 C      6.2263     6.0000    -0.2263     3.8107     3.8107     0.0000
  4 C      6.2352     6.0000    -0.2352     3.8479     3.8479    -0.0000
  5 C      6.2572     6.0000    -0.2572     3.8096     3.8096    -0.0000
  6 H      0.5272     1.0000     0.4728     0.7960     0.7960     0.0000
  7 H      0.7663     1.0000     0.2337     0.9120     0.9120    -0.0000
  8 H      0.8345     1.0000     0.1655     0.9295     0.9295    -0.0000
  9 H      0.8261     1.0000     0.1739     0.9240     0.9240     0.0000
 10 H      0.8305     1.0000     0.1695     0.9249     0.9249    -0.0000
 11 C      6.4659     6.0000    -0.4659     3.7269     3.7269    -0.0000
 12 C      6.5190     6.0000    -0.5190     3.7340     3.7340    -0.0000
 13 H      0.7845     1.0000     0.2155     0.8989     0.8989     0.0000
 14 H      0.8000     1.0000     0.2000     0.9080     0.9080    -0.0000
 15 C      5.8493     6.0000     0.1507     3.6975     3.6975    -0.0000
 16 H      0.7348     1.0000     0.2652     0.8862     0.8862    -0.0000
 17 H      0.8054     1.0000     0.1946     0.9127     0.9127    -0.0000
 18 C      6.1046     6.0000    -0.1046     3.7669     3.7669    -0.0000
 19 C      6.2925     6.0000    -0.2925     3.8365     3.8365    -0.0000
 20 C      6.2337     6.0000    -0.2337     3.8354     3.8354     0.0000
 21 C      6.2963     6.0000    -0.2963     3.8315     3.8315     0.0000
 22 C      6.2271     6.0000    -0.2271     3.8332     3.8332     0.0000
 23 H      0.7996     1.0000     0.2004     0.9292     0.9292     0.0000
 24 H      0.8184     1.0000     0.1816     0.9228     0.9228     0.0000
 25 H      0.8291     1.0000     0.1709     0.9293     0.9293     0.0000
 26 H      0.8250     1.0000     0.1750     0.9239     0.9239     0.0000
 27 Pd    18.0670    18.0000    -0.0670     2.8179     2.8179    -0.0000
 28 Br    35.5245    35.0000    -0.5245     0.8570     0.8570     0.0000
 29 P     15.1507    15.0000    -0.1507     3.4600     3.4600    -0.0000
 30 H      0.9058     1.0000     0.0942     0.9620     0.9620    -0.0000
 31 C      5.3092     6.0000     0.6908     4.3016     4.3016     0.0000
 32 O      8.4492     8.0000    -0.4492     2.1633     2.1633     0.0000
 33 O      8.6006     8.0000    -0.6006     1.9677     1.9677    -0.0000
 34 O      8.5898     8.0000    -0.5898     1.9968     1.9968     0.0000
 35 H      0.9040     1.0000     0.0960     0.9613     0.9613     0.0000
 36 H      0.8757     1.0000     0.1243     0.9614     0.9614    -0.0000
 37 H      0.5288     1.0000     0.4712     0.7637     0.7637     0.0000

  Mayer bond orders larger than 0.100000
B(  0-C ,  1-C ) :   1.3839 B(  0-C ,  2-C ) :   1.3837 B(  0-C , 27-Pd) :   0.7546 
B(  1-C ,  5-C ) :   1.3684 B(  1-C , 11-C ) :   0.9622 B(  2-C ,  3-C ) :   1.4308 
B(  2-C ,  7-H ) :   0.8974 B(  3-C ,  4-C ) :   1.4099 B(  3-C ,  9-H ) :   0.9293 
B(  4-C ,  5-C ) :   1.4495 B(  4-C , 10-H ) :   0.9308 B(  5-C ,  8-H ) :   0.9310 
B(  6-H , 28-Br) :   0.1263 B(  6-H , 33-O ) :   0.6462 B( 11-C , 12-C ) :   0.9869 
B( 11-C , 13-H ) :   0.9092 B( 11-C , 14-H ) :   0.9216 B( 12-C , 15-C ) :   0.9611 
B( 12-C , 16-H ) :   0.8829 B( 12-C , 17-H ) :   0.9265 B( 15-C , 18-C ) :   1.3517 
B( 15-C , 21-C ) :   1.4095 B( 18-C , 19-C ) :   1.4046 B( 18-C , 27-Pd) :   0.7889 
B( 19-C , 20-C ) :   1.4194 B( 19-C , 23-H ) :   0.9108 B( 20-C , 22-C ) :   1.4358 
B( 20-C , 24-H ) :   0.9272 B( 21-C , 22-C ) :   1.4184 B( 21-C , 25-H ) :   0.9297 
B( 22-C , 26-H ) :   0.9301 B( 27-Pd, 28-Br) :   0.5428 B( 27-Pd, 29-P ) :   0.4710 
B( 29-P , 30-H ) :   0.9429 B( 29-P , 35-H ) :   0.9298 B( 29-P , 36-H ) :   0.9351 
B( 31-C , 32-O ) :   1.9829 B( 31-C , 33-O ) :   1.1853 B( 31-C , 34-O ) :   1.1102 
B( 34-O , 37-H ) :   0.7294 

-------
TIMINGS
-------

Total SCF time: 0 days 0 hours 1 min 12 sec 

Total time                  ....      72.846 sec
Sum of individual times     ....      72.315 sec  ( 99.3%)

Fock matrix formation       ....      68.134 sec  ( 93.5%)
  Split-RI-J                ....       5.145 sec  (  7.6% of F)
  Chain of spheres X        ....      60.180 sec  ( 88.3% of F)
  XC integration            ....       2.761 sec  (  4.1% of F)
    Basis function eval.    ....       0.968 sec  ( 35.1% of XC)
    Density eval.           ....       1.067 sec  ( 38.6% of XC)
    XC-Functional eval.     ....       0.177 sec  (  6.4% of XC)
    XC-Potential eval.      ....       0.369 sec  ( 13.4% of XC)
Diagonalization             ....       0.648 sec  (  0.9%)
Density matrix formation    ....       0.014 sec  (  0.0%)
Population analysis         ....       0.116 sec  (  0.2%)
Initial guess               ....       0.089 sec  (  0.1%)
Orbital Transformation      ....       0.000 sec  (  0.0%)
Orbital Orthonormalization  ....       0.078 sec  (  0.1%)
DIIS solution               ....       0.286 sec  (  0.4%)
Grid generation             ....       3.028 sec  (  4.2%)

Maximum memory used throughout the entire SCF-calculation: 98.9 MB


-------------------------------------------------------------------------------
                          DFT DISPERSION CORRECTION                            
                                                                               
                              DFTD3 V3.1  Rev 1                                
                          USING Becke-Johnson damping                          
-------------------------------------------------------------------------------
The PBEh-3c composite method is recognized
Using three-body term ABC
Active option DFTDOPT                   ...         4   

molecular C6(AA) [au] = 23917.338894 


            DFT-D V3
 parameters
 s6 scaling factor         :     1.0000 
 a1 scaling factor         :     0.4860 
 s8 scaling factor         :     0.0000 
 a2 scaling factor         :     4.5000 
 Damping factor alpha9(ATM):    16.0000 
 ad hoc parameters k1-k3   :    16.0000     1.3333    -4.0000 

 Edisp/kcal,au: -20.647642059067  -0.032904108559 
 E6   /kcal   : -20.957909617 
 E8   /kcal   :  -0.000000000 
 E6(ABC)      :   0.310267558 
 % E8         :   0.000000000 
 % E6(ABC)    :  -1.502677919 

-------------------------   ----------------
Dispersion correction           -0.032904109
-------------------------   ----------------

 ** NOTE ** -> element pd will be treated as ni
------------------   -----------------
gCP correction             0.068422468
------------------   -----------------

-------------------------   --------------------
FINAL SINGLE POINT ENERGY     -3847.763004294366
-------------------------   --------------------

                                *** OPTIMIZATION RUN DONE ***

                            ***************************************
                            *     ORCA property calculations      *
                            ***************************************

                                    ---------------------
                                    Active property flags
                                    ---------------------
   (+) Dipole Moment


------------------------------------------------------------------------------
                       ORCA ELECTRIC PROPERTIES CALCULATION
------------------------------------------------------------------------------

Dipole Moment Calculation                       ... on
Quadrupole Moment Calculation                   ... off
Polarizability Calculation                      ... off
GBWName                                         ... reaction-3-prod-pbeh3c-orca_opt.gbw
Electron density                                ... reaction-3-prod-pbeh3c-orca_opt.scfp
The origin for moment calculation is the CENTER OF MASS  = (-0.596759, -1.865374 -0.439401)

-------------
DIPOLE MOMENT
-------------
                                X             Y             Z
Electronic contribution:     -7.92803     -66.31662      10.21935
Nuclear contribution   :      8.97712      66.72901      -9.74961
                        -----------------------------------------
Total Dipole Moment    :      1.04909       0.41239       0.46975
                        -----------------------------------------
Magnitude (a.u.)       :      1.22120
Magnitude (Debye)      :      3.10404



--------------------
Rotational spectrum 
--------------------
 
Rotational constants in cm-1:     0.008242     0.006306     0.005081 
Rotational constants in MHz :   247.090818   189.053093   152.319684 

 Dipole components along the rotational axes: 
x,y,z [a.u.] :     0.836845     0.770222     0.444718 
x,y,z [Debye]:     2.127090     1.957750     1.130383 

 

Timings for individual modules:

Sum of individual times         ...     3931.277 sec (=  65.521 min)
GTO integral calculation        ...       60.863 sec (=   1.014 min)   1.5 %
SCF iterations                  ...     2884.480 sec (=  48.075 min)  73.4 %
SCF Gradient evaluation         ...      968.063 sec (=  16.134 min)  24.6 %
Geometry relaxation             ...       17.871 sec (=   0.298 min)   0.5 %
                             ****ORCA TERMINATED NORMALLY****
TOTAL RUN TIME: 0 days 1 hours 6 minutes 23 seconds 997 msec
