
                                 *****************
                                 * O   R   C   A *
                                 *****************

                                            #,                                       
                                            ###                                      
                                            ####                                     
                                            #####                                    
                                            ######                                   
                                           ########,                                 
                                     ,,################,,,,,                         
                               ,,#################################,,                 
                          ,,##########################################,,             
                       ,#########################################, ''#####,          
                    ,#############################################,,   '####,        
                  ,##################################################,,,,####,       
                ,###########''''           ''''###############################       
              ,#####''   ,,,,##########,,,,          '''####'''          '####       
            ,##' ,,,,###########################,,,                        '##       
           ' ,,###''''                  '''############,,,                           
         ,,##''                                '''############,,,,        ,,,,,,###''
      ,#''                                            '''#######################'''  
     '                                                          ''''####''''         
             ,#######,   #######,   ,#######,      ##                                
            ,#'     '#,  ##    ##  ,#'     '#,    #''#        ######   ,####,        
            ##       ##  ##   ,#'  ##            #'  '#       #        #'  '#        
            ##       ##  #######   ##           ,######,      #####,   #    #        
            '#,     ,#'  ##    ##  '#,     ,#' ,#      #,         ##   #,  ,#        
             '#######'   ##     ##  '#######'  #'      '#     #####' # '####'        



                  #######################################################
                  #                        -***-                        #
                  #          Department of theory and spectroscopy      #
                  #    Directorship and core code : Frank Neese         #
                  #        Max Planck Institute fuer Kohlenforschung    #
                  #                Kaiser Wilhelm Platz 1               #
                  #                 D-45470 Muelheim/Ruhr               #
                  #                      Germany                        #
                  #                                                     #
                  #                  All rights reserved                #
                  #                        -***-                        #
                  #######################################################


                         Program Version 5.0.4 -  RELEASE  -


 With contributions from (in alphabetic order):
   Daniel Aravena         : Magnetic Suceptibility
   Michael Atanasov       : Ab Initio Ligand Field Theory (pilot matlab implementation)
   Alexander A. Auer      : GIAO ZORA, VPT2 properties, NMR spectrum
   Ute Becker             : Parallelization
   Giovanni Bistoni       : ED, misc. LED, open-shell LED, HFLD
   Martin Brehm           : Molecular dynamics
   Dmytro Bykov           : SCF Hessian
   Vijay G. Chilkuri      : MRCI spin determinant printing, contributions to CSF-ICE
   Dipayan Datta          : RHF DLPNO-CCSD density
   Achintya Kumar Dutta   : EOM-CC, STEOM-CC
   Dmitry Ganyushin       : Spin-Orbit,Spin-Spin,Magnetic field MRCI
   Miquel Garcia          : C-PCM and meta-GGA Hessian, CC/C-PCM, Gaussian charge scheme
   Yang Guo               : DLPNO-NEVPT2, F12-NEVPT2, CIM, IAO-localization
   Andreas Hansen         : Spin unrestricted coupled pair/coupled cluster methods
   Benjamin Helmich-Paris : MC-RPA, TRAH-SCF, COSX integrals
   Lee Huntington         : MR-EOM, pCC
   Robert Izsak           : Overlap fitted RIJCOSX, COSX-SCS-MP3, EOM
   Marcus Kettner         : VPT2
   Christian Kollmar      : KDIIS, OOCD, Brueckner-CCSD(T), CCSD density, CASPT2, CASPT2-K
   Simone Kossmann        : Meta GGA functionals, TD-DFT gradient, OOMP2, MP2 Hessian
   Martin Krupicka        : Initial AUTO-CI
   Lucas Lang             : DCDCAS
   Marvin Lechner         : AUTO-CI (C++ implementation), FIC-MRCC
   Dagmar Lenk            : GEPOL surface, SMD
   Dimitrios Liakos       : Extrapolation schemes; Compound Job, initial MDCI parallelization
   Dimitrios Manganas     : Further ROCIS development; embedding schemes
   Dimitrios Pantazis     : SARC Basis sets
   Anastasios Papadopoulos: AUTO-CI, single reference methods and gradients
   Taras Petrenko         : DFT Hessian,TD-DFT gradient, ASA, ECA, R-Raman, ABS, FL, XAS/XES, NRVS
   Peter Pinski           : DLPNO-MP2, DLPNO-MP2 Gradient
   Christoph Reimann      : Effective Core Potentials
   Marius Retegan         : Local ZFS, SOC
   Christoph Riplinger    : Optimizer, TS searches, QM/MM, DLPNO-CCSD(T), (RO)-DLPNO pert. Triples
   Tobias Risthaus        : Range-separated hybrids, TD-DFT gradient, RPA, STAB
   Michael Roemelt        : Original ROCIS implementation
   Masaaki Saitow         : Open-shell DLPNO-CCSD energy and density
   Barbara Sandhoefer     : DKH picture change effects
   Avijit Sen             : IP-ROCIS
   Kantharuban Sivalingam : CASSCF convergence, NEVPT2, FIC-MRCI
   Bernardo de Souza      : ESD, SOC TD-DFT
   Georgi Stoychev        : AutoAux, RI-MP2 NMR, DLPNO-MP2 response
   Willem Van den Heuvel  : Paramagnetic NMR
   Boris Wezisla          : Elementary symmetry handling
   Frank Wennmohs         : Technical directorship


 We gratefully acknowledge several colleagues who have allowed us to
 interface, adapt or use parts of their codes:
   Stefan Grimme, W. Hujo, H. Kruse, P. Pracht,  : VdW corrections, initial TS optimization,
                  C. Bannwarth, S. Ehlert          DFT functionals, gCP, sTDA/sTD-DF
   Ed Valeev, F. Pavosevic, A. Kumar             : LibInt (2-el integral package), F12 methods
   Garnet Chan, S. Sharma, J. Yang, R. Olivares  : DMRG
   Ulf Ekstrom                                   : XCFun DFT Library
   Mihaly Kallay                                 : mrcc  (arbitrary order and MRCC methods)
   Jiri Pittner, Ondrej Demel                    : Mk-CCSD
   Frank Weinhold                                : gennbo (NPA and NBO analysis)
   Christopher J. Cramer and Donald G. Truhlar   : smd solvation model
   Lars Goerigk                                  : TD-DFT with DH, B97 family of functionals
   V. Asgeirsson, H. Jonsson                     : NEB implementation
   FAccTs GmbH                                   : IRC, NEB, NEB-TS, DLPNO-Multilevel, CI-OPT
                                                   MM, QMMM, 2- and 3-layer-ONIOM, Crystal-QMMM,
                                                   LR-CPCM, SF, NACMEs, symmetry and pop. for TD-DFT,
                                                   nearIR, NL-DFT gradient (VV10), updates on ESD,
                                                   ML-optimized integration grids
   S Lehtola, MJT Oliveira, MAL Marques          : LibXC Library
   Liviu Ungur et al                             : ANISO software


 Your calculation uses the libint2 library for the computation of 2-el integrals
 For citations please refer to: http://libint.valeyev.net

 Your ORCA version has been built with support for libXC version: 5.1.0
 For citations please refer to: https://tddft.org/programs/libxc/

 This ORCA versions uses:
   CBLAS   interface :  Fast vector & matrix operations
   LAPACKE interface :  Fast linear algebra routines
   SCALAPACK package :  Parallel linear algebra routines
   Shared memory     :  Shared parallel matrices
   BLAS/LAPACK       :  OpenBLAS 0.3.15  USE64BITINT DYNAMIC_ARCH NO_AFFINITY SkylakeX SINGLE_THREADED
        Core in use  :  SkylakeX
   Copyright (c) 2011-2014, The OpenBLAS Project




***************************************
The coordinates will be read from file: reaction-3-rct-xtb.xyz
***************************************


Your calculation utilizes the geometrical counterpoise correction gCP
Please cite in your paper:
H.Kruse, S. Grimme J.Chem.Phys., 136, (2012), 154101 
   

Your calculation utilizes the atom-pairwise dispersion correction
with the Becke-Johnson damping scheme (D3BJ)
Cite in your paper:
S.Grimme, S.Ehrlich, L.Goerigk, J Comput Chem, (2011), 32, 1456–1465 
S.Grimme, J.Antony, S.Ehrlich and H.Krieg, J.Chem.Phys., 132, (2010), 154104 
   

Your calculation employs the composite approach PBEh-3c.
Please cite in your paper:
S. Grimme, J. G. Brandenburg, C. Bannwarth, A. Hansen J.Chem.Phys., 143, (2015), 054107 
   

================================================================================

cite the ECPs for Pd [Def2-ECP] as follows:
Ce-Yb(ecp-28): M. Dolg, H. Stoll, H.Preuss, J. Chem. Phys., 1989, 90, 1730-1734.
Y-Cd(ecp-28), Hf-Hg(ecp-46): D. Andrae,U. Haeussermann, M. Dolg, H. Stoll, H. Preuss, Theor. Chim. Acta, 1990, 77, 123-141.
In-Sb(ecp-28), Tl-Bi(ecp-46): B. Metz, H. Stoll, M. Dolg, J. Chem. Phys., 2000, 113, 2563-2569.
Te-Xe(ecp-28), Po-Rn(ecp-46): K. A. Peterson, D. Figgen, E. Goll, H. Stoll, M. Dolg, J. Chem. Phys., 2003, 119, 11113-11123.
Rb(ecp-28), Cs(ecp-46): T. Leininger, A. Nicklass, W. Kuechle, H. Stoll, M. Dolg, A. Bergner, Chem. Phys. Lett., 1996, 255, 274-280.
Sr(ecp-28), Ba(ecp-46): M. Kaupp, P. V. Schleyer, H. Stoll and H. Preuss, J. Chem. Phys., 1991, 94, 1360-1366.
La(ecp-46): M. Dolg, H. Stoll, A. Savin, H. Preuss, Theor. Chim. Acta, 1989, 75, 173-194.
Lu(ecp-28): X. Cao, M. Dolg, J. Chem. Phys., 2001, 115, 7348-7355.

ECP parameters for Pd [Def2-ECP] have been obtained from:
TURBOMOLE (7.0.2)

----- Orbital basis set information -----
Your calculation utilizes the basis: def2-mSVP

----- AuxJ basis set information -----
Your calculation utilizes the auxiliary basis: def2/J
   F. Weigend, Phys. Chem. Chem. Phys. 8, 1057 (2006).

================================================================================
                                        WARNINGS
                       Please study these warnings very carefully!
================================================================================


WARNING: Geometry Optimization
  ===> : Switching off AutoStart
         For restart on a previous wavefunction, please use MOREAD

INFO   : the flag for use of the SHARK integral package has been found!

================================================================================
                                       INPUT FILE
================================================================================
NAME = reaction-3-rct-pbeh3c-orca_opt.inp
|  1> ! PBEh-3c OPT pal4
|  2> 
|  3> %geom
|  4>  maxiter 600
|  5> end 
|  6> 
|  7> *xyzfile -1 1 reaction-3-rct-xtb.xyz
|  8> 
|  9>                          ****END OF INPUT****
================================================================================

                       *****************************
                       * Geometry Optimization Run *
                       *****************************

Geometry optimization settings:
Update method            Update   .... BFGS
Choice of coordinates    CoordSys .... Z-matrix Internals
Initial Hessian          InHess   .... Almoef's Model

Convergence Tolerances:
Energy Change            TolE     ....  5.0000e-06 Eh
Max. Gradient            TolMAXG  ....  3.0000e-04 Eh/bohr
RMS Gradient             TolRMSG  ....  1.0000e-04 Eh/bohr
Max. Displacement        TolMAXD  ....  4.0000e-03 bohr
RMS Displacement         TolRMSD  ....  2.0000e-03 bohr
Strict Convergence                ....  False
------------------------------------------------------------------------------
                        ORCA OPTIMIZATION COORDINATE SETUP
------------------------------------------------------------------------------

The optimization will be done in new redundant internal coordinates
Making redundant internal coordinates   ...  (new redundants) done
Evaluating the initial hessian          ...  (Almloef) done
Evaluating the coordinates              ...  done
Calculating the B-matrix                .... done
Calculating the G-matrix                .... done
Diagonalizing the G-matrix              .... done
Small eigenvalue found = 2.303e-03
Small eigenvalue found = 4.037e-03
Small eigenvalue found = 1.373e-02
Small eigenvalue found = 1.778e-02
Small eigenvalue found = 2.373e-02
The first mode is                       ....  133
The number of degrees of freedom        ....  108

    -----------------------------------------------------------------
                    Redundant Internal Coordinates


    -----------------------------------------------------------------
         Definition                    Initial Value    Approx d2E/dq
    -----------------------------------------------------------------
      1. B(C   1,C   0)                  1.3909         0.622751   
      2. B(C   2,C   0)                  1.3814         0.644789   
      3. B(C   3,C   2)                  1.3867         0.632499   
      4. B(C   4,C   3)                  1.3840         0.638611   
      5. B(C   5,C   1)                  1.3877         0.630158   
      6. B(C   5,C   4)                  1.3855         0.635250   
      7. B(H   6,C   0)                  1.0944         0.354323   
      8. B(H   7,C   2)                  1.0803         0.373180   
      9. B(H   8,C   5)                  1.0824         0.370253   
     10. B(H   9,C   3)                  1.0816         0.371338   
     11. B(H  10,C   4)                  1.0824         0.370292   
     12. B(C  11,C   1)                  1.4984         0.419484   
     13. B(C  12,C  11)                  1.5447         0.353944   
     14. B(H  13,C  11)                  1.0920         0.357418   
     15. B(H  14,C  11)                  1.0962         0.352003   
     16. B(C  15,C  12)                  1.5055         0.408771   
     17. B(H  16,C  12)                  1.1019         0.344645   
     18. B(H  17,C  12)                  1.0931         0.356013   
     19. B(C  18,C  15)                  1.3987         0.605150   
     20. B(C  19,C  18)                  1.3897         0.625383   
     21. B(C  20,C  19)                  1.3872         0.631250   
     22. B(C  21,C  15)                  1.3880         0.629462   
     23. B(C  22,C  21)                  1.3846         0.637345   
     24. B(C  22,C  20)                  1.3832         0.640501   
     25. B(H  23,C  19)                  1.0880         0.362701   
     26. B(H  24,C  20)                  1.0830         0.369483   
     27. B(H  25,C  21)                  1.0838         0.368392   
     28. B(H  26,C  22)                  1.0827         0.369841   
     29. B(Pd 27,C  18)                  2.0143         0.638116   
     30. B(Br 28,Pd 27)                  2.5454         0.304801   
     31. B(P  29,Pd 27)                  2.1725         1.199247   
     32. B(H  30,P  29)                  1.3879         0.405167   
     33. B(C  31,Pd 27)                  2.5522         0.088444   
     34. B(O  32,C  31)                  1.2295         1.009120   
     35. B(O  32,Pd 27)                  2.5198         0.089211   
     36. B(O  33,C  31)                  1.2444         0.955534   
     37. B(O  33,Pd 27)                  2.0785         0.451308   
     38. B(O  34,C  31)                  1.3804         0.579719   
     39. B(H  35,P  29)                  1.4133         0.369005   
     40. B(H  36,P  29)                  1.3891         0.403440   
     41. B(H  37,O  34)                  0.9655         0.509554   
     42. A(C   2,C   0,H   6)          120.3644         0.354288   
     43. A(C   1,C   0,C   2)          120.9820         0.437491   
     44. A(C   1,C   0,H   6)          118.6428         0.352208   
     45. A(C   0,C   1,C   5)          118.8560         0.435685   
     46. A(C   0,C   1,C  11)          118.5372         0.405179   
     47. A(C   5,C   1,C  11)          122.5363         0.406026   
     48. A(C   0,C   2,C   3)          119.6948         0.438718   
     49. A(C   3,C   2,H   7)          120.6634         0.356253   
     50. A(C   0,C   2,H   7)          119.6417         0.357420   
     51. A(C   2,C   3,H   9)          120.1719         0.355954   
     52. A(C   4,C   3,H   9)          119.9851         0.356536   
     53. A(C   2,C   3,C   4)          119.8426         0.437957   
     54. A(C   3,C   4,H  10)          119.9812         0.356365   
     55. A(C   3,C   4,C   5)          120.2418         0.438300   
     56. A(C   5,C   4,H  10)          119.7768         0.356046   
     57. A(C   1,C   5,C   4)          120.3805         0.437248   
     58. A(C   4,C   5,H   8)          119.8461         0.356040   
     59. A(C   1,C   5,H   8)          119.7733         0.355554   
     60. A(H  13,C  11,H  14)          108.5731         0.289464   
     61. A(C  12,C  11,H  14)          108.1964         0.320268   
     62. A(C   1,C  11,H  14)          108.7774         0.329334   
     63. A(C  12,C  11,H  13)          109.7626         0.321068   
     64. A(C   1,C  11,H  13)          111.4506         0.330166   
     65. A(C   1,C  11,C  12)          110.0043         0.367224   
     66. A(H  16,C  12,H  17)          108.0654         0.288330   
     67. A(C  11,C  12,H  17)          110.0543         0.320861   
     68. A(C  15,C  12,H  16)          108.2815         0.326791   
     69. A(C  15,C  12,H  17)          110.8986         0.328544   
     70. A(C  11,C  12,H  16)          108.1522         0.319165   
     71. A(C  11,C  12,C  15)          111.2753         0.365600   
     72. A(C  12,C  15,C  18)          119.5093         0.401300   
     73. A(C  18,C  15,C  21)          119.7294         0.433356   
     74. A(C  12,C  15,C  21)          120.7595         0.404097   
     75. A(C  19,C  18,Pd 27)          116.9082         0.490918   
     76. A(C  15,C  18,Pd 27)          124.1337         0.487937   
     77. A(C  15,C  18,C  19)          118.9580         0.432850   
     78. A(C  20,C  19,H  23)          119.2870         0.354417   
     79. A(C  18,C  19,H  23)          119.8044         0.353857   
     80. A(C  18,C  19,C  20)          120.9076         0.436152   
     81. A(C  22,C  20,H  24)          120.0419         0.356412   
     82. A(C  19,C  20,H  24)          120.0339         0.355532   
     83. A(C  19,C  20,C  22)          119.9241         0.438034   
     84. A(C  22,C  21,H  25)          119.7517         0.355934   
     85. A(C  15,C  21,H  25)          119.4306         0.355183   
     86. A(C  15,C  21,C  22)          120.8170         0.437420   
     87. A(C  21,C  22,H  26)          120.0231         0.356171   
     88. A(C  20,C  22,H  26)          120.3320         0.356470   
     89. A(C  20,C  22,C  21)          119.6444         0.438794   
     90. A(Br 28,Pd 27,O  33)           99.8513         0.473840   
     91. A(C  18,Pd 27,O  33)           89.2599         0.517634   
     92. A(P  29,Pd 27,O  32)          126.2088         0.452557   
     93. A(Br 28,Pd 27,O  32)           89.1130         0.355641   
     94. A(C  18,Pd 27,O  32)           95.3168         0.385984   
     95. A(P  29,Pd 27,C  31)          153.5541         0.453975   
     96. A(Br 28,Pd 27,C  31)           93.5377         0.356681   
     97. A(C  18,Pd 27,C  31)           94.1207         0.387142   
     98. A(Br 28,Pd 27,P  29)           75.3944         0.601515   
     99. A(C  31,Pd 27,O  32)           28.0481         0.278882   
    100. A(C  18,Pd 27,P  29)           95.5677         0.659838   
    101. A(C  18,Pd 27,Br 28)          170.8587         0.507665   
    102. A(O  32,Pd 27,O  33)           56.9087         0.361990   
    103. A(C  31,Pd 27,O  33)           28.9312         0.363054   
    104. A(P  29,Pd 27,O  33)          173.7968         0.613719   
    105. A(Pd 27,P  29,H  30)          119.4532         0.520035   
    106. A(H  35,P  29,H  36)           93.6818         0.349053   
    107. A(H  30,P  29,H  36)           94.7017         0.354615   
    108. A(H  30,P  29,H  35)           93.8305         0.349305   
    109. A(Pd 27,P  29,H  35)          126.9154         0.511010   
    110. A(Pd 27,P  29,H  36)          120.5175         0.519619   
    111. A(Pd 27,C  31,O  32)           74.5132         0.373009   
    112. A(O  33,C  31,O  34)          114.6269         0.457672   
    113. A(O  32,C  31,O  34)          117.1963         0.462254   
    114. A(Pd 27,C  31,O  34)          167.6765         0.339522   
    115. A(O  32,C  31,O  33)          128.1620         0.506951   
    116. A(Pd 27,C  31,O  33)           53.9071         0.369523   
    117. A(Pd 27,O  32,C  31)           77.4387         0.371905   
    118. A(Pd 27,O  33,C  31)           97.1616         0.492303   
    119. A(C  31,O  34,H  37)          106.9996         0.364611   
    120. D(C  11,C   1,C   0,C   2)    176.6597         0.026850   
    121. D(C   5,C   1,C   0,C   2)     -0.3660         0.026850   
    122. D(C   5,C   1,C   0,H   6)    178.4475         0.026850   
    123. D(C  11,C   1,C   0,H   6)     -4.5268         0.026850   
    124. D(C   3,C   2,C   0,H   6)   -178.5071         0.028915   
    125. D(H   7,C   2,C   0,C   1)   -179.8316         0.028915   
    126. D(H   7,C   2,C   0,H   6)      1.3753         0.028915   
    127. D(C   3,C   2,C   0,C   1)      0.2860         0.028915   
    128. D(H   9,C   3,C   2,H   7)      0.0012         0.027752   
    129. D(H   9,C   3,C   2,C   0)    179.8824         0.027752   
    130. D(C   4,C   3,C   2,C   0)      0.1299         0.027752   
    131. D(C   4,C   3,C   2,H   7)   -179.7513         0.027752   
    132. D(H  10,C   4,C   3,C   2)    179.7155         0.028327   
    133. D(C   5,C   4,C   3,H   9)    179.7864         0.028327   
    134. D(C   5,C   4,C   3,C   2)     -0.4606         0.028327   
    135. D(H  10,C   4,C   3,H   9)     -0.0375         0.028327   
    136. D(C   1,C   5,C   4,C   3)      0.3791         0.028010   
    137. D(H   8,C   5,C   4,H  10)      0.0768         0.028010   
    138. D(H   8,C   5,C   4,C   3)   -179.7475         0.028010   
    139. D(C   1,C   5,C   4,H  10)   -179.7966         0.028010   
    140. D(H   8,C   5,C   1,C   0)   -179.8410         0.027534   
    141. D(C   4,C   5,C   1,C  11)   -176.8680         0.027534   
    142. D(C   4,C   5,C   1,C   0)      0.0325         0.027534   
    143. D(H   8,C   5,C   1,C  11)      3.2585         0.027534   
    144. D(H  13,C  11,C   1,C   5)    -27.6220         0.013013   
    145. D(H  14,C  11,C   1,C   0)     35.7955         0.013013   
    146. D(H  14,C  11,C   1,C   5)   -147.2946         0.013013   
    147. D(H  13,C  11,C   1,C   0)    155.4681         0.013013   
    148. D(C  12,C  11,C   1,C   5)     94.3603         0.013013   
    149. D(C  12,C  11,C   1,C   0)    -82.5496         0.013013   
    150. D(C  15,C  12,C  11,C   1)    151.9737         0.010076   
    151. D(H  17,C  12,C  11,C   1)    -84.6830         0.010076   
    152. D(H  17,C  12,C  11,H  14)    156.6144         0.010076   
    153. D(H  16,C  12,C  11,H  14)    -85.5399         0.010076   
    154. D(H  16,C  12,C  11,H  13)    156.1420         0.010076   
    155. D(H  16,C  12,C  11,C   1)     33.1626         0.010076   
    156. D(H  17,C  12,C  11,H  13)     38.2963         0.010076   
    157. D(C  15,C  12,C  11,H  14)     33.2711         0.010076   
    158. D(C  15,C  12,C  11,H  13)    -85.0470         0.010076   
    159. D(C  21,C  15,C  12,C  11)    104.1500         0.012378   
    160. D(C  21,C  15,C  12,H  16)   -137.1164         0.012378   
    161. D(C  21,C  15,C  12,H  17)    -18.7097         0.012378   
    162. D(C  18,C  15,C  12,H  17)    161.7772         0.012378   
    163. D(C  18,C  15,C  12,H  16)     43.3704         0.012378   
    164. D(C  18,C  15,C  12,C  11)    -75.3631         0.012378   
    165. D(Pd 27,C  18,C  15,C  21)   -178.2006         0.025269   
    166. D(Pd 27,C  18,C  15,C  12)      1.3176         0.025269   
    167. D(C  19,C  18,C  15,C  12)   -178.8235         0.025269   
    168. D(C  19,C  18,C  15,C  21)      1.6582         0.025269   
    169. D(H  23,C  19,C  18,C  15)    179.0172         0.027092   
    170. D(C  20,C  19,C  18,Pd 27)    178.5352         0.027092   
    171. D(C  20,C  19,C  18,C  15)     -1.3338         0.027092   
    172. D(H  23,C  19,C  18,Pd 27)     -1.1138         0.027092   
    173. D(H  24,C  20,C  19,H  23)     -0.2094         0.027636   
    174. D(H  24,C  20,C  19,C  18)   -179.8602         0.027636   
    175. D(C  22,C  20,C  19,H  23)    179.8931         0.027636   
    176. D(C  22,C  20,C  19,C  18)      0.2422         0.027636   
    177. D(H  25,C  21,C  15,C  18)    179.3720         0.027469   
    178. D(H  25,C  21,C  15,C  12)     -0.1400         0.027469   
    179. D(C  22,C  21,C  15,C  18)     -0.9166         0.027469   
    180. D(C  22,C  21,C  15,C  12)    179.5714         0.027469   
    181. D(C  21,C  22,C  20,H  24)   -179.3691         0.028506   
    182. D(C  21,C  22,C  20,C  19)      0.5284         0.028506   
    183. D(H  26,C  22,C  21,H  25)     -0.2299         0.028207   
    184. D(H  26,C  22,C  21,C  15)   -179.9404         0.028207   
    185. D(C  20,C  22,C  21,H  25)    179.5229         0.028207   
    186. D(C  20,C  22,C  21,C  15)     -0.1876         0.028207   
    187. D(H  26,C  22,C  20,H  24)      0.3829         0.028506   
    188. D(H  26,C  22,C  20,C  19)   -179.7196         0.028506   
    189. D(O  33,Pd 27,C  18,C  15)     97.3356         0.003409   
    190. D(O  32,Pd 27,C  18,C  19)    -25.8642         0.003409   
    191. D(O  32,Pd 27,C  18,C  15)    153.9973         0.003409   
    192. D(C  31,Pd 27,C  18,C  19)    -53.9846         0.003409   
    193. D(C  31,Pd 27,C  18,C  15)    125.8769         0.003409   
    194. D(P  29,Pd 27,C  18,C  19)    101.3766         0.003409   
    195. D(P  29,Pd 27,C  18,C  15)    -78.7619         0.003409   
    196. D(Br 28,Pd 27,C  18,C  19)     92.8531         0.003409   
    197. D(O  33,Pd 27,C  18,C  19)    -82.5259         0.003409   
    198. D(Br 28,Pd 27,C  18,C  15)    -87.2855         0.003409   
    199. D(H  36,P  29,Pd 27,O  33)     98.9173         0.003644   
    200. D(H  36,P  29,Pd 27,O  32)    -19.3540         0.003644   
    201. D(H  36,P  29,Pd 27,C  31)     -9.1342         0.003644   
    202. D(H  36,P  29,Pd 27,C  18)   -120.1176         0.003644   
    203. D(H  35,P  29,Pd 27,O  33)   -138.6671         0.003644   
    204. D(H  35,P  29,Pd 27,O  32)    103.0615         0.003644   
    205. D(H  35,P  29,Pd 27,C  31)    113.2813         0.003644   
    206. D(H  35,P  29,Pd 27,Br 28)   -179.0963         0.003644   
    207. D(H  35,P  29,Pd 27,C  18)      2.2980         0.003644   
    208. D(H  30,P  29,Pd 27,O  33)    -17.3228         0.003644   
    209. D(H  36,P  29,Pd 27,Br 28)     58.4881         0.003644   
    210. D(H  30,P  29,Pd 27,O  32)   -135.5941         0.003644   
    211. D(H  30,P  29,Pd 27,C  31)   -125.3743         0.003644   
    212. D(H  30,P  29,Pd 27,Br 28)    -57.7520         0.003644   
    213. D(H  30,P  29,Pd 27,C  18)    123.6423         0.003644   
    214. D(O  34,C  31,Pd 27,O  32)    162.5132         0.001543   
    215. D(O  34,C  31,Pd 27,P  29)    144.7879         0.001543   
    216. D(O  34,C  31,Pd 27,Br 28)     81.0834         0.001543   
    217. D(O  34,C  31,Pd 27,C  18)   -103.9117         0.001543   
    218. D(O  33,C  31,Pd 27,O  32)   -174.5360         0.001543   
    219. D(O  33,C  31,Pd 27,P  29)    167.7387         0.001543   
    220. D(O  33,C  31,Pd 27,Br 28)    104.0342         0.001543   
    221. D(O  33,C  31,Pd 27,C  18)    -80.9609         0.001543   
    222. D(O  32,C  31,Pd 27,O  33)    174.5360         0.001543   
    223. D(O  32,C  31,Pd 27,P  29)    -17.7254         0.001543   
    224. D(O  32,C  31,Pd 27,Br 28)    -81.4299         0.001543   
    225. D(O  34,C  31,Pd 27,O  33)    -22.9508         0.001543   
    226. D(O  32,C  31,Pd 27,C  18)     93.5751         0.001543   
    227. D(Pd 27,O  32,C  31,O  34)   -175.8651         0.092648   
    228. D(Pd 27,O  32,C  31,O  33)      5.6160         0.092648   
    229. D(C  31,O  32,Pd 27,O  33)     -3.1518         0.001543   
    230. D(C  31,O  32,Pd 27,P  29)    170.3259         0.001543   
    231. D(C  31,O  32,Pd 27,Br 28)     99.2243         0.001543   
    232. D(C  31,O  32,Pd 27,C  18)    -88.7856         0.001543   
    233. D(Pd 27,O  33,C  31,O  34)    174.7470         0.081695   
    234. D(Pd 27,O  33,C  31,O  32)     -6.7022         0.081695   
    235. D(C  31,O  33,Pd 27,O  32)      3.0635         0.002502   
    236. D(C  31,O  33,Pd 27,P  29)   -118.9203         0.002502   
    237. D(C  31,O  33,Pd 27,Br 28)    -79.3560         0.002502   
    238. D(C  31,O  33,Pd 27,C  18)     99.8996         0.002502   
    239. D(H  37,O  34,C  31,O  33)   -177.8700         0.026953   
    240. D(H  37,O  34,C  31,O  32)      3.4111         0.026953   
    241. D(H  37,O  34,C  31,Pd 27)   -157.5889         0.026953   
    -----------------------------------------------------------------

Number of atoms                         .... 38
Number of degrees of freedom            .... 241

         *************************************************************
         *                GEOMETRY OPTIMIZATION CYCLE   1            *
         *************************************************************
---------------------------------
CARTESIAN COORDINATES (ANGSTROEM)
---------------------------------
  C     -2.463140   -0.347250    0.177630
  C     -2.081300    0.593680    1.128120
  C     -3.649850   -1.043240    0.302750
  C     -4.478390   -0.798950    1.387500
  C     -4.113050    0.141210    2.335240
  C     -2.918570    0.831720    2.208840
  H     -1.812660   -0.513680   -0.686600
  H     -3.923880   -1.771230   -0.446890
  H     -2.637230    1.562680    2.955970
  H     -5.410220   -1.338100    1.492110
  H     -4.760290    0.336990    3.180430
  C     -0.748320    1.261690    0.978870
  C      0.363470    0.357240    1.555040
  H     -0.730120    2.232740    1.478140
  H     -0.547330    1.413780   -0.087950
  C      1.680250    0.605820    0.868890
  H      0.076230   -0.692430    1.381950
  H      0.450640    0.511370    2.633710
  C      1.890580    0.105690   -0.420290
  C      3.119180    0.320630   -1.033260
  C      4.117180    1.042630   -0.395260
  C      2.681800    1.333110    1.496920
  C      3.896500    1.554940    0.870520
  H      3.303280   -0.076140   -2.029510
  H      5.068580    1.203550   -0.887020
  H      2.509850    1.727110    2.491820
  H      4.669200    2.123300    1.372730
  Pd     0.513320   -0.919530   -1.473530
  Br    -1.079660   -2.542880   -2.616390
  P      0.820260   -2.806380   -0.441350
  H     -0.256040   -3.431090    0.173130
  C      0.647330    0.623810   -3.501780
  O      1.433630   -0.292440   -3.733920
  O      0.000210    0.836360   -2.460400
  O      0.462680    1.563750   -4.495700
  H      1.699750   -3.050420    0.637770
  H      1.222940   -3.936250   -1.141880
  H      0.983190    1.276220   -5.256350

----------------------------
CARTESIAN COORDINATES (A.U.)
----------------------------
  NO LB      ZA    FRAG     MASS         X           Y           Z
   0 C     6.0000    0    12.011   -4.654660   -0.656207    0.335672
   1 C     6.0000    0    12.011   -3.933087    1.121893    2.131838
   2 C     6.0000    0    12.011   -6.897217   -1.971438    0.572115
   3 C     6.0000    0    12.011   -8.462931   -1.509797    2.621995
   4 C     6.0000    0    12.011   -7.772538    0.266848    4.412964
   5 C     6.0000    0    12.011   -5.515298    1.571723    4.174103
   6 H     1.0000    0     1.008   -3.425431   -0.970715   -1.297486
   7 H     1.0000    0     1.008   -7.415059   -3.347140   -0.844500
   8 H     1.0000    0     1.008   -4.983642    2.953037    5.585974
   9 H     1.0000    0     1.008  -10.223834   -2.528643    2.819679
  10 H     1.0000    0     1.008   -8.995644    0.636819    6.010142
  11 C     6.0000    0    12.011   -1.414120    2.384249    1.849796
  12 C     6.0000    0    12.011    0.686859    0.675086    2.938600
  13 H     1.0000    0     1.008   -1.379727    4.219267    2.793280
  14 H     1.0000    0     1.008   -1.034304    2.671657   -0.166201
  15 C     6.0000    0    12.011    3.175212    1.144834    1.641964
  16 H     1.0000    0     1.008    0.144054   -1.308503    2.611507
  17 H     1.0000    0     1.008    0.851586    0.966349    4.976991
  18 C     6.0000    0    12.011    3.572678    0.199725   -0.794233
  19 C     6.0000    0    12.011    5.894396    0.605903   -1.952578
  20 C     6.0000    0    12.011    7.780343    1.970285   -0.746933
  21 C     6.0000    0    12.011    5.067868    2.519213    2.828769
  22 C     6.0000    0    12.011    7.363318    2.938411    1.645044
  23 H     1.0000    0     1.008    6.242295   -0.143884   -3.835218
  24 H     1.0000    0     1.008    9.578228    2.274380   -1.676225
  25 H     1.0000    0     1.008    4.742929    3.263765    4.708857
  26 H     1.0000    0     1.008    8.823509    4.012456    2.594084
  27 Pd   18.0000*   0   106.400    0.970034   -1.737660   -2.784568
  28 Br   35.0000    0    79.900   -2.040262   -4.805347   -4.944261
  29 P    15.0000    0    30.974    1.550067   -5.303290   -0.834031
  30 H     1.0000    0     1.008   -0.483845   -6.483820    0.327168
  31 C     6.0000    0    12.011    1.223276    1.178830   -6.617405
  32 O     8.0000    0    15.999    2.709168   -0.552632   -7.056086
  33 O     8.0000    0    15.999    0.000397    1.580491   -4.649482
  34 O     8.0000    0    15.999    0.874338    2.955059   -8.495642
  35 H     1.0000    0     1.008    3.212062   -5.764458    1.205211
  36 H     1.0000    0     1.008    2.311022   -7.438434   -2.157840
  37 H     1.0000    0     1.008    1.857960    2.411706   -9.933062
* core charge reduced due to ECP

--------------------------------
INTERNAL COORDINATES (ANGSTROEM)
--------------------------------
 C      0   0   0     0.000000000000     0.00000000     0.00000000
 C      1   0   0     1.390892623677     0.00000000     0.00000000
 C      1   2   0     1.381425972899   120.98204820     0.00000000
 C      3   1   2     1.386664594702   119.69480892     0.28598287
 C      4   3   1     1.384046693143   119.84257174     0.12989733
 C      5   4   3     1.385483125303   120.24181386   359.53940310
 H      1   2   3     1.094402425162   118.64282479   178.81345171
 H      3   1   2     1.080287929489   119.64172817   180.16839979
 H      6   5   4     1.082431500881   119.84605371   180.25254930
 H      4   3   1     1.081634468524   120.17187321   179.88242989
 H      5   4   3     1.082402680198   119.98120224   179.71549926
 C      2   1   3     1.498448732189   118.53722352   176.65972261
 C     12   2   1     1.544693715757   110.00431566   277.45037199
 H     12   2   1     1.092034740931   111.45063633   155.46813649
 H     12   2   1     1.096190339585   108.77742779    35.79552787
 C     13  12   2     1.505491085095   111.27532059   151.97367681
 H     13  12   2     1.101941048605   108.15216317    33.16264098
 H     13  12   2     1.093107329909   110.05427084   275.31702531
 C     16  13  12     1.398697178878   119.50930790   284.63690809
 C     19  16  13     1.389744359406   118.95801493   181.17645549
 C     20  19  16     1.387202941173   120.90763008   358.66622117
 C     16  13  12     1.387975081729   120.75951031   104.15003909
 C     21  20  19     1.383242642091   119.92409571     0.24224565
 H     20  19  16     1.088041040311   119.80441468   179.01720431
 H     21  20  19     1.082998201291   120.03388902   180.13977925
 H     22  16  13     1.083802939883   119.43062743   359.85997401
 H     23  21  20     1.082734161140   120.33197281   180.28040445
 Pd    19  16  13     2.014258090117   124.13367998     1.31763176
 Br    28  19  16     2.545383955811   170.85871071   272.71454312
 P     28  19  16     2.172512517455    95.56769050   281.23805272
 H     30  28  19     1.387901273326   119.45321909   123.64233513
 C     28  19  16     2.552186336888    94.12070610   125.87687763
 O     32  28  19     1.229500196055    74.51318152    93.57506358
 O     32  28  19     1.244352884555    53.90712718   279.03910845
 O     32  28  19     1.380383929383   167.67648266   256.08830587
 H     30  28  19     1.413349976510   126.91542534     2.29798088
 H     30  28  19     1.389064318237   120.51745295   239.88244696
 H     35  32  33     0.965501208440   106.99955619     3.41107379

---------------------------
INTERNAL COORDINATES (A.U.)
---------------------------
 C      0   0   0     0.000000000000     0.00000000     0.00000000
 C      1   0   0     2.628406140441     0.00000000     0.00000000
 C      1   2   0     2.610516763065   120.98204820     0.00000000
 C      3   1   2     2.620416323592   119.69480892     0.28598287
 C      4   3   1     2.615469206600   119.84257174     0.12989733
 C      5   4   3     2.618183669992   120.24181386   359.53940310
 H      1   2   3     2.068120863855   118.64282479   178.81345171
 H      3   1   2     2.041448332515   119.64172817   180.16839979
 H      6   5   4     2.045499095395   119.84605371   180.25254930
 H      4   3   1     2.043992922521   120.17187321   179.88242989
 H      5   4   3     2.045444632197   119.98120224   179.71549926
 C      2   1   3     2.831657729559   118.53722352   176.65972261
 C     12   2   1     2.919048083570   110.00431566   277.45037199
 H     12   2   1     2.063646589087   111.45063633   155.46813649
 H     12   2   1     2.071499532466   108.77742779    35.79552787
 C     13  12   2     2.844965847889   111.27532059   151.97367681
 H     13  12   2     2.082366797589   108.15216317    33.16264098
 H     13  12   2     2.065673488509   110.05427084   275.31702531
 C     16  13  12     2.643154612367   119.50930790   284.63690809
 C     19  16  13     2.626236235439   118.95801493   181.17645549
 C     20  19  16     2.621433650988   120.90763008   358.66622117
 C     16  13  12     2.622892785174   120.75951031   104.15003909
 C     21  20  19     2.613949770314   119.92409571     0.24224565
 H     20  19  16     2.056099588654   119.80441468   179.01720431
 H     21  20  19     2.046570003970   120.03388902   180.13977925
 H     22  16  13     2.048090739518   119.43062743   359.85997401
 H     23  21  20     2.046071040396   120.33197281   180.28040445
 Pd    19  16  13     3.806396153356   124.13367998     1.31763176
 Br    28  19  16     4.810078582160   170.85871071   272.71454312
 P     28  19  16     4.105453680506    95.56769050   281.23805272
 H     30  28  19     2.622753307507   119.45321909   123.64233513
 C     28  19  16     4.822933219455    94.12070610   125.87687763
 O     32  28  19     2.323418652147    74.51318152    93.57506358
 O     32  28  19     2.351486165764    53.90712718   279.03910845
 O     32  28  19     2.608547586201   167.67648266   256.08830587
 H     30  28  19     2.670844386987   126.91542534     2.29798088
 H     30  28  19     2.624951143870   120.51745295   239.88244696
 H     35  32  33     1.824532865922   106.99955619     3.41107379

---------------------
BASIS SET INFORMATION
---------------------
There are 6 groups of distinct atoms

 Group   1 Type C   : 8s4p1d contracted to 4s2p1d pattern {5111/31/1}
 Group   2 Type H   : 4s contracted to 2s pattern {31}
 Group   3 Type Pd  : 7s6p5d1f contracted to 5s3p2d1f pattern {31111/411/41/1}
 Group   4 Type Br  : 14s10p6d contracted to 5s4p3d pattern {63311/5311/411}
 Group   5 Type P   : 10s7p1d contracted to 4s3p1d pattern {5311/511/1}
 Group   6 Type O   : 8s4p1d contracted to 4s2p1d pattern {5111/31/1}

Atom   0C    basis set group =>   1
Atom   1C    basis set group =>   1
Atom   2C    basis set group =>   1
Atom   3C    basis set group =>   1
Atom   4C    basis set group =>   1
Atom   5C    basis set group =>   1
Atom   6H    basis set group =>   2
Atom   7H    basis set group =>   2
Atom   8H    basis set group =>   2
Atom   9H    basis set group =>   2
Atom  10H    basis set group =>   2
Atom  11C    basis set group =>   1
Atom  12C    basis set group =>   1
Atom  13H    basis set group =>   2
Atom  14H    basis set group =>   2
Atom  15C    basis set group =>   1
Atom  16H    basis set group =>   2
Atom  17H    basis set group =>   2
Atom  18C    basis set group =>   1
Atom  19C    basis set group =>   1
Atom  20C    basis set group =>   1
Atom  21C    basis set group =>   1
Atom  22C    basis set group =>   1
Atom  23H    basis set group =>   2
Atom  24H    basis set group =>   2
Atom  25H    basis set group =>   2
Atom  26H    basis set group =>   2
Atom  27Pd   basis set group =>   3
Atom  28Br   basis set group =>   4
Atom  29P    basis set group =>   5
Atom  30H    basis set group =>   2
Atom  31C    basis set group =>   1
Atom  32O    basis set group =>   6
Atom  33O    basis set group =>   6
Atom  34O    basis set group =>   6
Atom  35H    basis set group =>   2
Atom  36H    basis set group =>   2
Atom  37H    basis set group =>   2
---------------------------------
AUXILIARY/J BASIS SET INFORMATION
---------------------------------
There are 6 groups of distinct atoms

 Group   1 Type C   : 12s5p4d2f1g contracted to 6s4p3d1f1g pattern {711111/2111/211/2/1}
 Group   2 Type H   : 5s2p1d contracted to 3s1p1d pattern {311/2/1}
 Group   3 Type Pd  : 11s5p5d3f3g contracted to 8s5p5d2f3g pattern {41111111/11111/11111/21/111}
 Group   4 Type Br  : 19s5p5d3f1g contracted to 8s4p3d2f1g pattern {121111111/2111/311/21/1}
 Group   5 Type P   : 14s5p5d2f1g contracted to 8s4p3d1f1g pattern {71111111/2111/311/2/1}
 Group   6 Type O   : 12s5p4d2f1g contracted to 6s4p3d1f1g pattern {711111/2111/211/2/1}

Atom   0C    basis set group =>   1
Atom   1C    basis set group =>   1
Atom   2C    basis set group =>   1
Atom   3C    basis set group =>   1
Atom   4C    basis set group =>   1
Atom   5C    basis set group =>   1
Atom   6H    basis set group =>   2
Atom   7H    basis set group =>   2
Atom   8H    basis set group =>   2
Atom   9H    basis set group =>   2
Atom  10H    basis set group =>   2
Atom  11C    basis set group =>   1
Atom  12C    basis set group =>   1
Atom  13H    basis set group =>   2
Atom  14H    basis set group =>   2
Atom  15C    basis set group =>   1
Atom  16H    basis set group =>   2
Atom  17H    basis set group =>   2
Atom  18C    basis set group =>   1
Atom  19C    basis set group =>   1
Atom  20C    basis set group =>   1
Atom  21C    basis set group =>   1
Atom  22C    basis set group =>   1
Atom  23H    basis set group =>   2
Atom  24H    basis set group =>   2
Atom  25H    basis set group =>   2
Atom  26H    basis set group =>   2
Atom  27Pd   basis set group =>   3
Atom  28Br   basis set group =>   4
Atom  29P    basis set group =>   5
Atom  30H    basis set group =>   2
Atom  31C    basis set group =>   1
Atom  32O    basis set group =>   6
Atom  33O    basis set group =>   6
Atom  34O    basis set group =>   6
Atom  35H    basis set group =>   2
Atom  36H    basis set group =>   2
Atom  37H    basis set group =>   2
-------------------------
ECP PARAMETER INFORMATION
-------------------------

 Group 1, Type Pd ECP Def2-ECP (replacing 28 core electrons, lmax=3)

Atom  27Pd   ECP group =>   1



           ************************************************************
           *        Program running with 4 parallel MPI-processes     *
           *              working on a common directory               *
           ************************************************************
------------------------------------------------------------------------------
                           ORCA GTO INTEGRAL CALCULATION
                           -- RI-GTO INTEGRALS CHOSEN --
------------------------------------------------------------------------------
------------------------------------------------------------------------------
                   ___                                                        
                  /   \      - P O W E R E D   B Y -                         
                 /     \                                                     
                 |  |  |   _    _      __       _____    __    __             
                 |  |  |  | |  | |    /  \     |  _  \  |  |  /  |          
                  \  \/   | |  | |   /    \    | | | |  |  | /  /          
                 / \  \   | |__| |  /  /\  \   | |_| |  |  |/  /          
                |  |  |   |  __  | /  /__\  \  |    /   |      \           
                |  |  |   | |  | | |   __   |  |    \   |  |\   \          
                \     /   | |  | | |  |  |  |  | |\  \  |  | \   \       
                 \___/    |_|  |_| |__|  |__|  |_| \__\ |__|  \__/        
                                                                              
                      - O R C A' S   B I G   F R I E N D -                    
                                      &                                       
                       - I N T E G R A L  F E E D E R -                       
                                                                              
 v1 FN, 2020, v2 2021                                                         
------------------------------------------------------------------------------


Reading SHARK input file reaction-3-rct-pbeh3c-orca_opt.SHARKINP.tmp ... ok
----------------------
SHARK INTEGRAL PACKAGE
----------------------

Number of atoms                             ...     38
Number of basis functions                   ...    385
Number of shells                            ...    191
Maximum angular momentum                    ...      3
Integral batch strategy                     ... SHARK/LIBINT Hybrid
RI-J (if used) integral strategy            ... SPLIT-RIJ (Revised 2003 algorithm where possible)
Printlevel                                  ...      1
Contraction scheme used                     ... SEGMENTED contraction
Coulomb Range Separation                    ... NOT USED
Exchange Range Separation                   ... NOT USED
Finite Nucleus Model                        ... NOT USED
Auxiliary Coulomb fitting basis             ... AVAILABLE
   # of basis functions in Aux-J            ...   1267
   # of shells in Aux-J                     ...    413
   Maximum angular momentum in Aux-J        ...      4
Auxiliary J/K fitting basis                 ... NOT available
Auxiliary Correlation fitting basis         ... NOT available
Auxiliary 'external' fitting basis          ... NOT available
Integral threshold                          ...     2.500000e-11
Primitive cut-off                           ...     2.500000e-12
Primitive pair pre-selection threshold      ...     2.500000e-12

Calculating pre-screening integrals         ... done (  0.1 sec) Dimension = 191
Organizing shell pair data                  ... done (  0.1 sec)
Shell pair information
Total number of shell pairs                 ...     18336
Shell pairs after pre-screening             ...     12527
Total number of primitive shell pairs       ...     68628
Primitive shell pairs kept                  ...     28985
          la=0 lb=0:   4442 shell pairs
          la=1 lb=0:   4186 shell pairs
          la=1 lb=1:    946 shell pairs
          la=2 lb=0:   1764 shell pairs
          la=2 lb=1:    853 shell pairs
          la=2 lb=2:    192 shell pairs
          la=3 lb=0:     81 shell pairs
          la=3 lb=1:     43 shell pairs
          la=3 lb=2:     19 shell pairs
          la=3 lb=3:      1 shell pairs

Calculating one electron integrals          ... done (  0.0 sec)
Calculating ECP integrals                   ... done (  0.5 sec)
Calculating RI/J V-Matrix + Cholesky decomp.... done (  0.1 sec)
Calculating Nuclear repulsion               ... done (  0.0 sec) ENN=   2609.015180257045 Eh

SHARK setup successfully completed in   1.0 seconds

Maximum memory used throughout the entire GTOINT-calculation: 27.3 MB


           ************************************************************
           *        Program running with 4 parallel MPI-processes     *
           *              working on a common directory               *
           ************************************************************
-------------------------------------------------------------------------------
                                 ORCA SCF
-------------------------------------------------------------------------------

------------
SCF SETTINGS
------------
Hamiltonian:
 Density Functional     Method          .... DFT(GTOs)
 Exchange Functional    Exchange        .... PBE
   PBE kappa parameter   XKappa         ....  1.024500
   PBE mue parameter    XMuePBE         ....  0.123457
 Correlation Functional Correlation     .... PBE
   PBE beta parameter  CBetaPBE         ....  0.030000
 LDA part of GGA corr.  LDAOpt          .... PW91-LDA
 Gradients option       PostSCFGGA      .... off
 Hybrid DFT is turned on
   Fraction HF Exchange ScalHFX         ....  0.420000
   Scaling of DF-GGA-X  ScalDFX         ....  0.580000
   Scaling of DF-GGA-C  ScalDFC         ....  1.000000
   Scaling of DF-LDA-C  ScalLDAC        ....  1.000000
   Perturbative correction              ....  0.000000
   Density functional embedding theory  .... OFF
 RI-approximation to the Coulomb term is turned on
   Number of AuxJ basis functions       .... 1267
   RIJ-ON(X) (HFX calculated with O(N)) .... on
   Number of AuxJ basis functions       .... 1267
   RIJ-COSX (HFX calculated with COS-X)).... on


General Settings:
 Integral files         IntName         .... reaction-3-rct-pbeh3c-orca_opt
 Hartree-Fock type      HFTyp           .... RHF
 Total Charge           Charge          ....   -1
 Multiplicity           Mult            ....    1
 Number of Electrons    NEL             ....  200
 Basis Dimension        Dim             ....  385
 Nuclear Repulsion      ENuc            ....   2609.0151802570 Eh

Convergence Acceleration:
 DIIS                   CNVDIIS         .... on
   Start iteration      DIISMaxIt       ....    12
   Startup error        DIISStart       ....  0.200000
   # of expansion vecs  DIISMaxEq       ....     5
   Bias factor          DIISBfac        ....   1.050
   Max. coefficient     DIISMaxC        ....  10.000
 Trust-Rad. Augm. Hess. CNVTRAH         .... auto
   Auto Start mean grad. ratio tolernc. ....  1.125000
   Auto Start start iteration           ....    20
   Auto Start num. interpolation iter.  ....    10
   Max. Number of Micro iterations      ....    16
   Max. Number of Macro iterations      .... Maxiter - #DIIS iter
   Number of Davidson start vectors     ....     2
   Converg. threshold I  (grad. norm)   ....   1.000e-05
   Converg. threshold II (energy diff.) ....   1.000e-08
   Grad. Scal. Fac. for Micro threshold ....   0.100
   Minimum threshold for Micro iter.    ....   0.010
   NR start threshold (gradient norm)   ....   0.001
   Initial trust radius                 ....   0.400
   Minimum AH scaling param. (alpha)    ....   1.000
   Maximum AH scaling param. (alpha)    .... 1000.000
   Orbital update algorithm             .... Taylor
   White noise on init. David. guess    .... on
   Maximum white noise                  ....   0.010
   Quad. conv. algorithm                .... NR
   COSX micro iterations for RIJONX calc.... off
 SOSCF                  CNVSOSCF        .... off
 Level Shifting         CNVShift        .... on
   Level shift para.    LevelShift      ....    0.2500
   Turn off err/grad.   ShiftErr        ....    0.0010
 Zerner damping         CNVZerner       .... off
 Static damping         CNVDamp         .... on
   Fraction old density DampFac         ....    0.7000
   Max. Damping (<1)    DampMax         ....    0.9800
   Min. Damping (>=0)   DampMin         ....    0.0000
   Turn off err/grad.   DampErr         ....    0.1000
 Fernandez-Rico         CNVRico         .... off

SCF Procedure:
 Maximum # iterations   MaxIter         ....   125
 SCF integral mode      SCFMode         .... Direct
   Integral package                     .... SHARK and LIBINT hybrid scheme
 Reset frequency        DirectResetFreq ....    20
 Integral Threshold     Thresh          ....  2.500e-11 Eh
 Primitive CutOff       TCut            ....  2.500e-12 Eh

Convergence Tolerance:
 Convergence Check Mode ConvCheckMode   .... Total+1el-Energy
 Convergence forced     ConvForced      .... 0
 Energy Change          TolE            ....  1.000e-08 Eh
 1-El. energy change                    ....  1.000e-05 Eh
 DIIS Error             TolErr          ....  5.000e-07


Diagonalization of the overlap matrix:
Smallest eigenvalue                        ... 3.650e-04
Time for diagonalization                   ...    0.031 sec
Threshold for overlap eigenvalues          ... 1.000e-08
Number of eigenvalues below threshold      ... 0
Time for construction of square roots      ...    0.014 sec
Total time needed                          ...    0.047 sec

--------------------------------
INITIAL GUESS: MINIMAL BASIS EHT
--------------------------------
The minimal basis has 147 functions
EHT matrix was diagonalized
Basis set overlap was calculated now projecting the orbitals
Using GuessMode=FMatrix for the initial guess
C*T matrix was formed
Effective Fockian was calculated
Effective Fockian was diagonalized
Initial density was built
                      ------------------
                      INITIAL GUESS DONE
                      ------------------
-------------------
DFT GRID GENERATION
-------------------

General Integration Accuracy     IntAcc      ... 4.159
Radial Grid Type                 RadialGrid  ... OptM3 with GC (2021)
Angular Grid (max. ang.)         AngularGrid ... 3 (Lebedev-194)
Angular grid pruning method      GridPruning ... 4 (adaptive)
Weight generation scheme         WeightScheme... Becke
Basis function cutoff            BFCut       ... 1.0000e-11
Integration weight cutoff        WCut        ... 1.0000e-14
Angular grids for H and He will be reduced by one unit
Partially contracted basis set               ... off
Rotationally invariant grid construction     ... off

Total number of grid points                  ...    96524
Total number of batches                      ...     1527
Average number of points per batch           ...       63
Average number of grid points per atom       ...     2540
Time for grid setup =    0.693 sec

--------------------
COSX GRID GENERATION
--------------------

GRIDX 1
-------
General Integration Accuracy     IntAcc      ... 3.816
Radial Grid Type                 RadialGrid  ... OptM3 with GC (2021)
Angular Grid (max. ang.)         AngularGrid ... 1 (Lebedev-50)
Angular grid pruning method      GridPruning ... 4 (adaptive)
Weight generation scheme         WeightScheme... Becke
Basis function cutoff            BFCut       ... 1.0000e-11
Integration weight cutoff        WCut        ... 1.0000e-14
Angular grids for H and He will be reduced by one unit
Partially contracted basis set               ... on
Rotationally invariant grid construction     ... off

Total number of grid points                  ...    23642
Total number of batches                      ...      384
Average number of points per batch           ...       61
Average number of grid points per atom       ...      622
UseSFitting                                  ... on

GRIDX 2
-------
General Integration Accuracy     IntAcc      ... 4.020
Radial Grid Type                 RadialGrid  ... OptM3 with GC (2021)
Angular Grid (max. ang.)         AngularGrid ... 2 (Lebedev-110)
Angular grid pruning method      GridPruning ... 4 (adaptive)
Weight generation scheme         WeightScheme... Becke
Basis function cutoff            BFCut       ... 1.0000e-11
Integration weight cutoff        WCut        ... 1.0000e-14
Angular grids for H and He will be reduced by one unit
Partially contracted basis set               ... on
Rotationally invariant grid construction     ... off

Total number of grid points                  ...    51220
Total number of batches                      ...      816
Average number of points per batch           ...       62
Average number of grid points per atom       ...     1348
UseSFitting                                  ... on

GRIDX 3
-------
General Integration Accuracy     IntAcc      ... 4.338
Radial Grid Type                 RadialGrid  ... OptM3 with GC (2021)
Angular Grid (max. ang.)         AngularGrid ... 3 (Lebedev-194)
Angular grid pruning method      GridPruning ... 4 (adaptive)
Weight generation scheme         WeightScheme... Becke
Basis function cutoff            BFCut       ... 1.0000e-11
Integration weight cutoff        WCut        ... 1.0000e-14
Angular grids for H and He will be reduced by one unit
Partially contracted basis set               ... on
Rotationally invariant grid construction     ... off

Total number of grid points                  ...   111643
Total number of batches                      ...     1765
Average number of points per batch           ...       63
Average number of grid points per atom       ...     2938
UseSFitting                                  ... on

Time for X-Grid setup             =    1.693 sec

--------------
SCF ITERATIONS
--------------
ITER       Energy         Delta-E        Max-DP      RMS-DP      [F,P]     Damp
               ***  Starting incremental Fock matrix formation  ***
  0  -3833.0035793176   0.000000000000 4.92226515  0.04810347  5.4007447 0.7000
  1  -3830.5069546151   2.496624702588 5.48323941  0.04866923  3.9939237 0.7000
  2  -3825.1750455651   5.331909049970 3.28339251  0.02286307  2.6717207 0.7000
  3  -3826.5532067839  -1.378161218861 3.83794934  0.03825199  1.9883490 0.7000
  4  -3818.2080777683   8.345129015602 3.63896074  0.03705674  1.2751366 0.7000
  5  -3821.1742222226  -2.966144454206 3.82346279  0.04168515  0.9971523 0.7000
  6  -3812.2663107038   8.907911518758 2.91768314  0.03701103  0.5932735 0.7000
  7  -3817.4095207653  -5.143210061519 3.29663889  0.03767894  0.5123673 0.7000
  8  -3810.7196509396   6.689869825735 2.82639825  0.03589543  0.3461389 0.7000
  9  -3815.6896699997  -4.970019060094 3.07904703  0.03553170  0.2783128 0.7000
 10  -3809.3756500857   6.314019913956 2.84678838  0.03526188  0.3289631 0.7000
 11  -3814.8972807654  -5.521630679655 2.92029042  0.03573378  0.2972352 0.7000
                               ***Turning on DIIS***
 12  -3808.9247856686   5.972495096819 2.85394807  0.03534234  0.3210530 0.7000
 13  -3814.4761841901  -5.551398521515 2.07929359  0.02746114  0.3057827 0.7000
 14  -3820.5127795175  -6.036595327417 1.50850366  0.01999572  0.2794884 0.7000
 15  -3828.2052300336  -7.692450516124 1.05206725  0.01420806  0.2841227 0.7000
 16  -3833.7632691385  -5.558039104887 0.83235162  0.01006625  0.2648159 0.7000
 17  -3837.9423548027  -4.179085664206 0.68176522  0.00848520  0.2542314 0.7000
 18  -3841.0354625668  -3.093107764054 0.37824797  0.00544298  0.1350070 0.7000
 19  -3842.4762112688  -1.440748702015 0.92441396  0.01344688  0.0898088 0.0000
               *** Restarting incremental Fock matrix formation ***
                                   *** Resetting DIIS ***

 WARNING: the maximum gradient error descreased on average only by a factor   1.1
          during the last 20 iterations

                      *** Initiating the TRAH-SCF procedure ***


TRAH GRIDX
----------

General Integration Accuracy     IntAcc      ... 3.067
Radial Grid Type                 RadialGrid  ... OptM3 with GC (2021)
Angular Grid (max. ang.)         AngularGrid ... 1 (Lebedev-50)
Angular grid pruning method      GridPruning ... 4 (adaptive)
Weight generation scheme         WeightScheme... Becke
Basis function cutoff            BFCut       ... 1.0000e-11
Integration weight cutoff        WCut        ... 1.0000e-14
Angular grids for H and He will be reduced by one unit
Partially contracted basis set               ... on
Rotationally invariant grid construction     ... off

Total number of grid points                  ...    12918
Total number of batches                      ...      225
Average number of points per batch           ...       57
Average number of grid points per atom       ...      340


TRAH GRID
---------

General Integration Accuracy     IntAcc      ... 3.467
Radial Grid Type                 RadialGrid  ... OptM3 with GC (2021)
Angular Grid (max. ang.)         AngularGrid ... 1 (Lebedev-50)
Angular grid pruning method      GridPruning ... 4 (adaptive)
Weight generation scheme         WeightScheme... Becke
Basis function cutoff            BFCut       ... 1.0000e-11
Integration weight cutoff        WCut        ... 1.0000e-14
Angular grids for H and He will be reduced by one unit
Partially contracted basis set               ... off
Rotationally invariant grid construction     ... off

Total number of grid points                  ...    32806
Total number of batches                      ...      531
Average number of points per batch           ...       61
Average number of grid points per atom       ...      863

 --------------------------------------------------------------------------------------------
   Iter.        energy            ||Error||_2        Shift      TRadius  Mac/Mic        Rej.
 --------------------------------------------------------------------------------------------
WARNING: 38 diagonal Hessian elements are negative!
    0      -3846.989840705055     2.614919e+00                     0.400 (TRAH MAcro)   No
WARNING : negative HOMO - LUMO gap : -0.214239
    0     dE    -4.280764e-01     2.952019e+00    -7.8532e-01      0.300 (TRAH MIcro)
    0     dE    -6.171298e-01     7.754142e-01    -2.1726e+00      0.400 (TRAH MIcro)
    0     dE    -6.284720e-01     2.653886e-01    -2.3121e+00      0.400 (TRAH MIcro)
    0     dE    -6.297393e-01     4.078236e-02    -2.2916e+00      0.400 (TRAH MIcro)
    0     dE    -6.298331e-01     1.476436e-02    -2.2858e+00      0.400 (TRAH MIcro)
    0     dE    -6.298375e-01     4.629513e-03    -2.2856e+00      0.400 (TRAH MIcro)
    1      -3847.604533691038     8.784036e-01                     0.480 (TRAH MAcro)   No
    1     dE    -1.030266e-01     7.511694e-01    -1.9626e-01      0.223 (TRAH MIcro)
    1     dE    -1.589870e-01     2.262546e-01    -2.8130e-01      0.361 (TRAH MIcro)
    1     dE    -1.641899e-01     9.912104e-02    -2.8749e-01      0.377 (TRAH MIcro)
    1     dE    -1.655268e-01     3.452614e-02    -2.8869e-01      0.383 (TRAH MIcro)
    1     dE    -1.656914e-01     1.409084e-02    -2.8882e-01      0.384 (TRAH MIcro)
    1     dE    -1.657220e-01     5.727304e-03    -2.8883e-01      0.384 (TRAH MIcro)
    2      -3847.781596305622     3.144217e-01                     0.576 (TRAH MAcro)   No
    2     dE    -9.830556e-03     5.449291e-01    -1.9585e-02      0.062 (TRAH MIcro)
    2     dE    -2.323836e-02     1.808342e-01    -4.5147e-02      0.172 (TRAH MIcro)
    2     dE    -2.434638e-02     4.258684e-02    -4.7141e-02      0.181 (TRAH MIcro)
    2     dE    -2.447388e-02     1.643479e-02    -4.7354e-02      0.183 (TRAH MIcro)
    2     dE    -2.449644e-02     6.684830e-03    -4.7389e-02      0.184 (TRAH MIcro)
    3      -3847.808461302667     7.921839e-02                     0.691 (TRAH MAcro)   No
    3     dE    -2.787571e-04     6.060204e-01    -5.5749e-04      0.007 (TRAH MIcro)
    3     dE    -1.259160e-03     1.493680e-01    -2.5141e-03      0.041 (TRAH MIcro)
    3     dE    -1.321256e-03     3.903884e-02    -2.6371e-03      0.045 (TRAH MIcro)
    3     dE    -1.329353e-03     2.538554e-03    -2.6530e-03      0.046 (TRAH MIcro)
    4      -3847.809837282835     5.687541e-03                     0.829 (TRAH MAcro)   No
    4     dE    -4.145642e-07     3.451773e-02    -8.2915e-07      0.000 (TRAH MIcro)
    4     dE    -4.245307e-06     8.642551e-03    -8.4906e-06      0.002 (TRAH MIcro)
    4     dE    -5.087385e-06     3.338077e-03    -1.0175e-05      0.003 (TRAH MIcro)
    4     dE    -5.202884e-06     2.836679e-04    -1.0406e-05      0.003 (TRAH MIcro)
    5      -3847.809842508063     2.800901e-04                           (NR   MAcro)
    5     dE    -5.768797e-09     1.213002e-04                           (NR   MIcro)
    5     dE    -8.584548e-09     8.461865e-05                           (NR   MIcro)
    5     dE    -9.063177e-09     3.337469e-05                           (NR   MIcro)
    5     dE    -9.150740e-09     1.536010e-05                           (NR   MIcro)
    5     dE    -9.175264e-09     6.490941e-06                           (NR   MIcro)
    5     dE    -9.177804e-09     2.854548e-06                           (NR   MIcro)
    5     dE    -9.178208e-09     8.065271e-07                           (NR   MIcro)
    6      -3847.809842516423     9.411006e-07                           (NR   MAcro)

               *****************************************************
               *                     SUCCESS                       *
               *           SCF CONVERGED AFTER  59 CYCLES          *
               *****************************************************

Old exchange energy                            =    -97.843911082 Eh
New exchange energy                            =    -97.843972524 Eh
Exchange energy change after final integration =     -0.000061441 Eh
Total energy after final integration           =  -3847.809903958 Eh
Final COS-X integration done in                =    15.633 sec

----------------
TOTAL SCF ENERGY
----------------

Total Energy       :        -3847.80990396 Eh         -104704.23055 eV

Components:
Nuclear Repulsion  :         2609.01518026 Eh           70994.91237 eV
Electronic Energy  :        -6456.82508421 Eh         -175699.14291 eV
One Electron Energy:       -10603.18186389 Eh         -288527.24696 eV
Two Electron Energy:         4146.35677967 Eh          112828.10404 eV
Max COSX asymmetry :            0.00003404 Eh               0.00093 eV

Virial components:
Potential Energy   :        -7607.51585323 Eh         -207011.03060 eV
Kinetic Energy     :         3759.70594927 Eh          102306.80006 eV
Virial Ratio       :            2.02343374


DFT components:
N(Alpha)           :       99.999625351143 electrons
N(Beta)            :       99.999625351143 electrons
N(Total)           :      199.999250702287 electrons
E(X)               :     -130.946637949612 Eh       
E(C)               :       -9.732963377419 Eh       
E(XC)              :     -140.679601327030 Eh       
DFET-embed. en.    :        0.000000000000 Eh       

---------------
SCF CONVERGENCE
---------------

  Last Energy change         ...   -8.3601e-09  Tolerance :   1.0000e-08
  Last Orbital Gradient      ...    9.4110e-07  Tolerance :   1.0000e-05
  Last Orbital Rotation      ...    1.2906e-04

             **** THE GBW FILE WAS UPDATED (reaction-3-rct-pbeh3c-orca_opt.gbw) ****
             **** DENSITY reaction-3-rct-pbeh3c-orca_opt.scfp WAS UPDATED ****
             **** ENERGY FILE WAS UPDATED (reaction-3-rct-pbeh3c-orca_opt.en.tmp) ****
             **** THE GBW FILE WAS UPDATED (reaction-3-rct-pbeh3c-orca_opt.gbw) ****
             **** DENSITY reaction-3-rct-pbeh3c-orca_opt.scfp WAS UPDATED ****
----------------
ORBITAL ENERGIES
----------------

  NO   OCC          E(Eh)            E(eV) 
   0   2.0000    -484.326672    -13179.1988 
   1   2.0000     -77.662933     -2113.3158 
   2   2.0000     -62.988654     -1714.0084 
   3   2.0000     -56.692287     -1542.6755 
   4   2.0000     -56.691353     -1542.6501 
   5   2.0000     -56.691205     -1542.6461 
   6   2.0000     -19.379881      -527.3534 
   7   2.0000     -19.341893      -526.3197 
   8   2.0000     -19.310364      -525.4617 
   9   2.0000     -10.450024      -284.3596 
  10   2.0000     -10.348341      -281.5927 
  11   2.0000     -10.345787      -281.5232 
  12   2.0000     -10.344635      -281.4918 
  13   2.0000     -10.343338      -281.4565 
  14   2.0000     -10.339317      -281.3471 
  15   2.0000     -10.331569      -281.1363 
  16   2.0000     -10.331300      -281.1290 
  17   2.0000     -10.330318      -281.1023 
  18   2.0000     -10.329694      -281.0853 
  19   2.0000     -10.328739      -281.0593 
  20   2.0000     -10.328147      -281.0432 
  21   2.0000     -10.326943      -281.0104 
  22   2.0000     -10.325377      -280.9678 
  23   2.0000     -10.317408      -280.7509 
  24   2.0000      -8.816278      -239.9031 
  25   2.0000      -6.737202      -183.3286 
  26   2.0000      -6.585745      -179.2072 
  27   2.0000      -6.581237      -179.0846 
  28   2.0000      -6.580601      -179.0673 
  29   2.0000      -4.828303      -131.3848 
  30   2.0000      -4.828025      -131.3772 
  31   2.0000      -4.826595      -131.3383 
  32   2.0000      -3.519044       -95.7581 
  33   2.0000      -2.599812       -70.7445 
  34   2.0000      -2.598726       -70.7149 
  35   2.0000      -2.598207       -70.7008 
  36   2.0000      -2.594325       -70.5952 
  37   2.0000      -2.594221       -70.5923 
  38   2.0000      -2.167207       -58.9727 
  39   2.0000      -2.162106       -58.8339 
  40   2.0000      -2.132452       -58.0270 
  41   2.0000      -1.081554       -29.4306 
  42   2.0000      -0.977206       -26.5911 
  43   2.0000      -0.941377       -25.6162 
  44   2.0000      -0.858299       -23.3555 
  45   2.0000      -0.838944       -22.8288 
  46   2.0000      -0.782602       -21.2957 
  47   2.0000      -0.738926       -20.1072 
  48   2.0000      -0.733101       -19.9487 
  49   2.0000      -0.711079       -19.3494 
  50   2.0000      -0.681441       -18.5430 
  51   2.0000      -0.658852       -17.9283 
  52   2.0000      -0.626381       -17.0447 
  53   2.0000      -0.609707       -16.5910 
  54   2.0000      -0.579845       -15.7784 
  55   2.0000      -0.556276       -15.1370 
  56   2.0000      -0.550589       -14.9823 
  57   2.0000      -0.534418       -14.5423 
  58   2.0000      -0.529879       -14.4188 
  59   2.0000      -0.477721       -12.9995 
  60   2.0000      -0.455796       -12.4028 
  61   2.0000      -0.432469       -11.7681 
  62   2.0000      -0.417879       -11.3711 
  63   2.0000      -0.410701       -11.1757 
  64   2.0000      -0.407086       -11.0774 
  65   2.0000      -0.398297       -10.8382 
  66   2.0000      -0.391450       -10.6519 
  67   2.0000      -0.383448       -10.4342 
  68   2.0000      -0.377971       -10.2851 
  69   2.0000      -0.372785       -10.1440 
  70   2.0000      -0.358765        -9.7625 
  71   2.0000      -0.357400        -9.7253 
  72   2.0000      -0.355020        -9.6606 
  73   2.0000      -0.351886        -9.5753 
  74   2.0000      -0.348368        -9.4796 
  75   2.0000      -0.338846        -9.2205 
  76   2.0000      -0.321854        -8.7581 
  77   2.0000      -0.318860        -8.6766 
  78   2.0000      -0.310283        -8.4432 
  79   2.0000      -0.299969        -8.1626 
  80   2.0000      -0.292018        -7.9462 
  81   2.0000      -0.289571        -7.8796 
  82   2.0000      -0.278942        -7.5904 
  83   2.0000      -0.267713        -7.2848 
  84   2.0000      -0.263600        -7.1729 
  85   2.0000      -0.257902        -7.0179 
  86   2.0000      -0.236473        -6.4348 
  87   2.0000      -0.227413        -6.1882 
  88   2.0000      -0.216702        -5.8968 
  89   2.0000      -0.214653        -5.8410 
  90   2.0000      -0.196773        -5.3545 
  91   2.0000      -0.190827        -5.1927 
  92   2.0000      -0.185440        -5.0461 
  93   2.0000      -0.180662        -4.9161 
  94   2.0000      -0.167749        -4.5647 
  95   2.0000      -0.161585        -4.3970 
  96   2.0000      -0.158538        -4.3140 
  97   2.0000      -0.148939        -4.0528 
  98   2.0000      -0.144102        -3.9212 
  99   2.0000      -0.132635        -3.6092 
 100   0.0000       0.112918         3.0727 
 101   0.0000       0.121185         3.2976 
 102   0.0000       0.123743         3.3672 
 103   0.0000       0.140789         3.8311 
 104   0.0000       0.144398         3.9293 
 105   0.0000       0.160861         4.3772 
 106   0.0000       0.167941         4.5699 
 107   0.0000       0.203786         5.5453 
 108   0.0000       0.217586         5.9208 
 109   0.0000       0.222256         6.0479 
 110   0.0000       0.233976         6.3668 
 111   0.0000       0.241512         6.5719 
 112   0.0000       0.255065         6.9407 
 113   0.0000       0.261441         7.1142 
 114   0.0000       0.276946         7.5361 
 115   0.0000       0.284461         7.7406 
 116   0.0000       0.292164         7.9502 
 117   0.0000       0.295594         8.0435 
 118   0.0000       0.302047         8.2191 
 119   0.0000       0.313685         8.5358 
 120   0.0000       0.317222         8.6320 
 121   0.0000       0.324023         8.8171 
 122   0.0000       0.327497         8.9116 
 123   0.0000       0.338022         9.1980 
 124   0.0000       0.344953         9.3866 
 125   0.0000       0.351156         9.5554 
 126   0.0000       0.353239         9.6121 
 127   0.0000       0.370346        10.0776 
 128   0.0000       0.378728        10.3057 
 129   0.0000       0.383840        10.4448 
 130   0.0000       0.394584        10.7372 
 131   0.0000       0.399076        10.8594 
 132   0.0000       0.411022        11.1845 
 133   0.0000       0.425452        11.5771 
 134   0.0000       0.430008        11.7011 
 135   0.0000       0.443049        12.0560 
 136   0.0000       0.451651        12.2900 
 137   0.0000       0.458817        12.4850 
 138   0.0000       0.464686        12.6447 
 139   0.0000       0.473020        12.8715 
 140   0.0000       0.486815        13.2469 
 141   0.0000       0.497988        13.5509 
 142   0.0000       0.511708        13.9243 
 143   0.0000       0.524313        14.2673 
 144   0.0000       0.545890        14.8544 
 145   0.0000       0.552663        15.0387 
 146   0.0000       0.571135        15.5414 
 147   0.0000       0.582537        15.8516 
 148   0.0000       0.594243        16.1702 
 149   0.0000       0.600564        16.3422 
 150   0.0000       0.607986        16.5441 
 151   0.0000       0.616208        16.7679 
 152   0.0000       0.630350        17.1527 
 153   0.0000       0.635113        17.2823 
 154   0.0000       0.640688        17.4340 
 155   0.0000       0.646041        17.5797 
 156   0.0000       0.652244        17.7485 
 157   0.0000       0.664698        18.0874 
 158   0.0000       0.669530        18.2188 
 159   0.0000       0.674826        18.3629 
 160   0.0000       0.683843        18.6083 
 161   0.0000       0.694141        18.8885 
 162   0.0000       0.696250        18.9459 
 163   0.0000       0.703073        19.1316 
 164   0.0000       0.705393        19.1947 
 165   0.0000       0.713793        19.4233 
 166   0.0000       0.715488        19.4694 
 167   0.0000       0.724208        19.7067 
 168   0.0000       0.734369        19.9832 
 169   0.0000       0.737072        20.0568 
 170   0.0000       0.738514        20.0960 
 171   0.0000       0.743104        20.2209 
 172   0.0000       0.746218        20.3056 
 173   0.0000       0.751167        20.4403 
 174   0.0000       0.752897        20.4874 
 175   0.0000       0.764174        20.7942 
 176   0.0000       0.766791        20.8654 
 177   0.0000       0.771061        20.9816 
 178   0.0000       0.773817        21.0566 
 179   0.0000       0.783457        21.3189 
 180   0.0000       0.788257        21.4496 
 181   0.0000       0.792815        21.5736 
 182   0.0000       0.803896        21.8751 
 183   0.0000       0.812074        22.0976 
 184   0.0000       0.817043        22.2329 
 185   0.0000       0.823593        22.4111 
 186   0.0000       0.827660        22.5218 
 187   0.0000       0.842382        22.9224 
 188   0.0000       0.851545        23.1717 
 189   0.0000       0.856077        23.2950 
 190   0.0000       0.861324        23.4378 
 191   0.0000       0.872234        23.7347 
 192   0.0000       0.877723        23.8841 
 193   0.0000       0.887628        24.1536 
 194   0.0000       0.894978        24.3536 
 195   0.0000       0.909184        24.7402 
 196   0.0000       0.917813        24.9750 
 197   0.0000       0.930892        25.3309 
 198   0.0000       0.936984        25.4966 
 199   0.0000       0.958816        26.0907 
 200   0.0000       0.976902        26.5829 
 201   0.0000       0.991514        26.9805 
 202   0.0000       0.998443        27.1690 
 203   0.0000       1.006134        27.3783 
 204   0.0000       1.026896        27.9433 
 205   0.0000       1.032679        28.1006 
 206   0.0000       1.040048        28.3011 
 207   0.0000       1.047088        28.4927 
 208   0.0000       1.057529        28.7768 
 209   0.0000       1.061974        28.8978 
 210   0.0000       1.075312        29.2607 
 211   0.0000       1.083967        29.4962 
 212   0.0000       1.095402        29.8074 
 213   0.0000       1.096909        29.8484 
 214   0.0000       1.109996        30.2045 
 215   0.0000       1.111837        30.2546 
 216   0.0000       1.120351        30.4863 
 217   0.0000       1.126883        30.6641 
 218   0.0000       1.149579        31.2816 
 219   0.0000       1.154955        31.4279 
 220   0.0000       1.159607        31.5545 
 221   0.0000       1.165103        31.7041 
 222   0.0000       1.175799        31.9951 
 223   0.0000       1.186913        32.2975 
 224   0.0000       1.191574        32.4244 
 225   0.0000       1.201799        32.7026 
 226   0.0000       1.206586        32.8329 
 227   0.0000       1.211616        32.9697 
 228   0.0000       1.219461        33.1832 
 229   0.0000       1.223329        33.2885 
 230   0.0000       1.227644        33.4059 
 231   0.0000       1.243832        33.8464 
 232   0.0000       1.249308        33.9954 
 233   0.0000       1.251396        34.0522 
 234   0.0000       1.262401        34.3517 
 235   0.0000       1.276828        34.7443 
 236   0.0000       1.289379        35.0858 
 237   0.0000       1.304022        35.4842 
 238   0.0000       1.320597        35.9353 
 239   0.0000       1.331961        36.2445 
 240   0.0000       1.345155        36.6035 
 241   0.0000       1.357178        36.9307 
 242   0.0000       1.373641        37.3787 
 243   0.0000       1.385446        37.6999 
 244   0.0000       1.397899        38.0388 
 245   0.0000       1.408368        38.3237 
 246   0.0000       1.415045        38.5053 
 247   0.0000       1.420311        38.6486 
 248   0.0000       1.424094        38.7516 
 249   0.0000       1.436291        39.0835 
 250   0.0000       1.441984        39.2384 
 251   0.0000       1.463513        39.8242 
 252   0.0000       1.466226        39.8980 
 253   0.0000       1.485355        40.4186 
 254   0.0000       1.531586        41.6766 
 255   0.0000       1.552959        42.2582 
 256   0.0000       1.576599        42.9014 
 257   0.0000       1.586066        43.1591 
 258   0.0000       1.609030        43.7839 
 259   0.0000       1.616709        43.9929 
 260   0.0000       1.624560        44.2065 
 261   0.0000       1.630727        44.3743 
 262   0.0000       1.644812        44.7576 
 263   0.0000       1.648355        44.8540 
 264   0.0000       1.663742        45.2727 
 265   0.0000       1.672902        45.5220 
 266   0.0000       1.679477        45.7009 
[...]
      dxy     :     0.045992
 30 H s       :     0.878103  s :     0.878103
 31 C s       :     2.789431  s :     2.789431
      pz      :     0.751861  p :     2.312023
      px      :     0.816308
      py      :     0.743854
      dz2     :     0.034986  d :     0.182957
      dxz     :     0.037406
      dyz     :     0.040522
      dx2y2   :     0.041714
      dxy     :     0.028328
 32 O s       :     3.766895  s :     3.766895
      pz      :     1.714326  p :     4.738312
      px      :     1.470123
      py      :     1.553863
      dz2     :     0.003266  d :     0.027916
      dxz     :     0.004187
      dyz     :     0.004279
      dx2y2   :     0.008598
      dxy     :     0.007586
 33 O s       :     3.797498  s :     3.797498
      pz      :     1.423307  p :     4.711803
      px      :     1.598114
      py      :     1.690382
      dz2     :     0.006772  d :     0.025253
      dxz     :     0.007545
      dyz     :     0.003521
      dx2y2   :     0.004073
      dxy     :     0.003343
 34 O s       :     3.804515  s :     3.804515
      pz      :     1.439345  p :     4.787257
      px      :     1.710690
      py      :     1.637222
      dz2     :     0.002716  d :     0.030220
      dxz     :     0.010706
      dyz     :     0.004874
      dx2y2   :     0.007429
      dxy     :     0.004495
 35 H s       :     0.907385  s :     0.907385
 36 H s       :     0.880696  s :     0.880696
 37 H s       :     0.591256  s :     0.591256


                     *******************************
                     * LOEWDIN POPULATION ANALYSIS *
                     *******************************

----------------------
LOEWDIN ATOMIC CHARGES
----------------------
   0 C :   -0.122460
   1 C :   -0.035474
   2 C :   -0.135572
   3 C :   -0.156901
   4 C :   -0.146646
   5 C :   -0.144213
   6 H :    0.170021
   7 H :    0.133236
   8 H :    0.126639
   9 H :    0.123951
  10 H :    0.123720
  11 C :   -0.211416
  12 C :   -0.202866
  13 H :    0.127884
  14 H :    0.177708
  15 C :   -0.048483
  16 H :    0.135889
  17 H :    0.119835
  18 C :   -0.018573
  19 C :   -0.118531
  20 C :   -0.149555
  21 C :   -0.147001
  22 C :   -0.166713
  23 H :    0.161910
  24 H :    0.120991
  25 H :    0.118293
  26 H :    0.117899
  27 Pd:   -0.843068
  28 Br:   -0.271185
  29 P :    0.426537
  30 H :    0.053744
  31 C :    0.135822
  32 O :   -0.325573
  33 O :   -0.197166
  34 O :   -0.334648
  35 H :    0.032983
  36 H :    0.056015
  37 H :    0.312969

-------------------------------
LOEWDIN REDUCED ORBITAL CHARGES
-------------------------------
  0 C s       :     2.891725  s :     2.891725
      pz      :     1.054933  p :     3.141450
      px      :     1.053036
      py      :     1.033480
      dz2     :     0.014674  d :     0.089284
      dxz     :     0.019661
      dyz     :     0.015315
      dx2y2   :     0.018656
      dxy     :     0.020978
  1 C s       :     2.849408  s :     2.849408
      pz      :     1.030574  p :     3.074611
      px      :     1.025690
      py      :     1.018347
      dz2     :     0.023020  d :     0.111455
      dxz     :     0.024326
      dyz     :     0.020107
      dx2y2   :     0.021851
      dxy     :     0.022151
  2 C s       :     2.890546  s :     2.890546
      pz      :     1.048854  p :     3.153318
      px      :     1.066719
      py      :     1.037746
      dz2     :     0.017540  d :     0.091708
      dxz     :     0.023016
      dyz     :     0.016709
      dx2y2   :     0.015710
      dxy     :     0.018733
  3 C s       :     2.889127  s :     2.889127
      pz      :     1.064971  p :     3.176517
      px      :     1.055849
      py      :     1.055698
      dz2     :     0.019593  d :     0.091257
      dxz     :     0.018754
      dyz     :     0.019409
      dx2y2   :     0.016446
      dxy     :     0.017055
  4 C s       :     2.888984  s :     2.888984
      pz      :     1.046632  p :     3.165619
      px      :     1.067631
      py      :     1.051356
      dz2     :     0.014487  d :     0.092042
      dxz     :     0.020403
      dyz     :     0.015810
      dx2y2   :     0.020304
      dxy     :     0.021039
  5 C s       :     2.887879  s :     2.887879
      pz      :     1.055439  p :     3.165547
      px      :     1.062873
      py      :     1.047235
      dz2     :     0.016539  d :     0.090788
      dxz     :     0.022883
      dyz     :     0.016712
      dx2y2   :     0.016465
      dxy     :     0.018188
  6 H s       :     0.829979  s :     0.829979
  7 H s       :     0.866764  s :     0.866764
  8 H s       :     0.873361  s :     0.873361
  9 H s       :     0.876049  s :     0.876049
 10 H s       :     0.876280  s :     0.876280
 11 C s       :     2.899011  s :     2.899011
      pz      :     1.123650  p :     3.224211
      px      :     1.017094
      py      :     1.083467
      dz2     :     0.024703  d :     0.088194
      dxz     :     0.013463
      dyz     :     0.007153
      dx2y2   :     0.025190
      dxy     :     0.017684
 12 C s       :     2.898505  s :     2.898505
      pz      :     1.087373  p :     3.214117
      px      :     1.038021
      py      :     1.088723
      dz2     :     0.027418  d :     0.090244
      dxz     :     0.014543
      dyz     :     0.004950
      dx2y2   :     0.025193
      dxy     :     0.018140
 13 H s       :     0.872116  s :     0.872116
 14 H s       :     0.822292  s :     0.822292
 15 C s       :     2.837299  s :     2.837299
      pz      :     1.066130  p :     3.100137
      px      :     1.028411
      py      :     1.005596
      dz2     :     0.025589  d :     0.111046
      dxz     :     0.033437
      dyz     :     0.018295
      dx2y2   :     0.017599
      dxy     :     0.016126
 16 H s       :     0.864111  s :     0.864111
 17 H s       :     0.880165  s :     0.880165
 18 C s       :     2.878976  s :     2.878976
      pz      :     1.042404  p :     3.042607
      px      :     1.055186
      py      :     0.945017
      dz2     :     0.026692  d :     0.096990
      dxz     :     0.024556
      dyz     :     0.014375
      dx2y2   :     0.017001
      dxy     :     0.014365
 19 C s       :     2.880432  s :     2.880432
      pz      :     1.068110  p :     3.145483
      px      :     1.072853
      py      :     1.004521
      dz2     :     0.020839  d :     0.092616
      dxz     :     0.026835
      dyz     :     0.010457
      dx2y2   :     0.016260
      dxy     :     0.018225
 20 C s       :     2.888955  s :     2.888955
      pz      :     1.076547  p :     3.167968
      px      :     1.061729
      py      :     1.029692
      dz2     :     0.025023  d :     0.092631
      dxz     :     0.025002
      dyz     :     0.017461
      dx2y2   :     0.014512
      dxy     :     0.010633
 21 C s       :     2.885928  s :     2.885928
      pz      :     1.056433  p :     3.168469
      px      :     1.076106
      py      :     1.035929
      dz2     :     0.020770  d :     0.092605
      dxz     :     0.024500
      dyz     :     0.010601
      dx2y2   :     0.018477
      dxy     :     0.018256
 22 C s       :     2.885413  s :     2.885413
      pz      :     1.076174  p :     3.189177
      px      :     1.074583
      py      :     1.038420
      dz2     :     0.020574  d :     0.092123
      dxz     :     0.028906
      dyz     :     0.015281
      dx2y2   :     0.011648
      dxy     :     0.015714
 23 H s       :     0.838090  s :     0.838090
 24 H s       :     0.879009  s :     0.879009
 25 H s       :     0.881707  s :     0.881707
 26 H s       :     0.882101  s :     0.882101
 27 Pds       :     2.566275  s :     2.566275
      pz      :     2.318551  p :     6.945742
      px      :     2.255926
      py      :     2.371265
      dz2     :     1.992681  d :     9.325413
      dxz     :     1.911490
      dyz     :     1.630410
      dx2y2   :     1.913229
      dxy     :     1.877602
      f0      :     0.000738  f :     0.005638
      f+1     :     0.000292
      f-1     :     0.000638
      f+2     :     0.001508
      f-2     :     0.001232
      f+3     :     0.000451
      f-3     :     0.000780
 28 Brs       :     7.809271  s :     7.809271
      pz      :     5.831747  p :    17.445297
      px      :     5.772346
      py      :     5.841204
      dz2     :     2.002367  d :    10.016616
      dxz     :     2.005022
      dyz     :     2.002962
      dx2y2   :     2.003200
      dxy     :     2.003065
 29 P s       :     5.220338  s :     5.220338
      pz      :     3.008962  p :     9.104442
      px      :     2.951016
      py      :     3.144463
      dz2     :     0.030551  d :     0.248684
      dxz     :     0.080278
      dyz     :     0.047352
      dx2y2   :     0.035281
      dxy     :     0.055221
 30 H s       :     0.946256  s :     0.946256
 31 C s       :     2.759073  s :     2.759073
      pz      :     0.885431  p :     2.697393
      px      :     0.926516
      py      :     0.885447
      dz2     :     0.074993  d :     0.407712
      dxz     :     0.086272
      dyz     :     0.091040
      dx2y2   :     0.091187
      dxy     :     0.064220
 32 O s       :     3.509774  s :     3.509774
      pz      :     1.685996  p :     4.763818
      px      :     1.506973
      py      :     1.570850
      dz2     :     0.006664  d :     0.051981
      dxz     :     0.008154
      dyz     :     0.007033
      dx2y2   :     0.012131
      dxy     :     0.018000
 33 O s       :     3.444434  s :     3.444434
      pz      :     1.451087  p :     4.699533
      px      :     1.597063
      py      :     1.651383
      dz2     :     0.013474  d :     0.053199
      dxz     :     0.018417
      dyz     :     0.008215
      dx2y2   :     0.007571
      dxy     :     0.005521
 34 O s       :     3.505518  s :     3.505518
      pz      :     1.439999  p :     4.776976
      px      :     1.694956
      py      :     1.642021
      dz2     :     0.006424  d :     0.052154
      dxz     :     0.016199
      dyz     :     0.011300
      dx2y2   :     0.011263
      dxy     :     0.006967
 35 H s       :     0.967017  s :     0.967017
 36 H s       :     0.943985  s :     0.943985
 37 H s       :     0.687031  s :     0.687031


                      *****************************
                      * MAYER POPULATION ANALYSIS *
                      *****************************

  NA   - Mulliken gross atomic population
  ZA   - Total nuclear charge
  QA   - Mulliken gross atomic charge
  VA   - Mayer's total valence
  BVA  - Mayer's bonded valence
  FA   - Mayer's free valence

  ATOM       NA         ZA         QA         VA         BVA        FA
  0 C      6.3045     6.0000    -0.3045     3.7676     3.7676     0.0000
  1 C      5.8476     6.0000     0.1524     3.7013     3.7013    -0.0000
  2 C      6.2125     6.0000    -0.2125     3.8131     3.8131    -0.0000
  3 C      6.2395     6.0000    -0.2395     3.8263     3.8263    -0.0000
  4 C      6.2059     6.0000    -0.2059     3.8238     3.8238    -0.0000
  5 C      6.2850     6.0000    -0.2850     3.8353     3.8353    -0.0000
  6 H      0.7052     1.0000     0.2948     0.8929     0.8929    -0.0000
  7 H      0.7869     1.0000     0.2131     0.9138     0.9138     0.0000
  8 H      0.8065     1.0000     0.1935     0.9239     0.9239     0.0000
  9 H      0.8066     1.0000     0.1934     0.9197     0.9197     0.0000
 10 H      0.8085     1.0000     0.1915     0.9194     0.9194    -0.0000
 11 C      6.5169     6.0000    -0.5169     3.6279     3.6279    -0.0000
 12 C      6.5034     6.0000    -0.5034     3.6996     3.6996     0.0000
 13 H      0.7832     1.0000     0.2168     0.9112     0.9112    -0.0000
 14 H      0.6805     1.0000     0.3195     0.8646     0.8646    -0.0000
 15 C      5.8576     6.0000     0.1424     3.6924     3.6924    -0.0000
 16 H      0.7636     1.0000     0.2364     0.8914     0.8914    -0.0000
 17 H      0.7891     1.0000     0.2109     0.9107     0.9107     0.0000
 18 C      6.1380     6.0000    -0.1380     3.8102     3.8102     0.0000
 19 C      6.2610     6.0000    -0.2610     3.8097     3.8097    -0.0000
 20 C      6.2356     6.0000    -0.2356     3.8105     3.8105    -0.0000
 21 C      6.2885     6.0000    -0.2885     3.8467     3.8467    -0.0000
 22 C      6.2234     6.0000    -0.2234     3.8311     3.8311    -0.0000
 23 H      0.7427     1.0000     0.2573     0.9123     0.9123    -0.0000
 24 H      0.8167     1.0000     0.1833     0.9223     0.9223    -0.0000
 25 H      0.8264     1.0000     0.1736     0.9286     0.9286    -0.0000
 26 H      0.8227     1.0000     0.1773     0.9233     0.9233     0.0000
 27 Pd    17.8956    18.0000     0.1044     2.9322     2.9322    -0.0000
 28 Br    35.4959    35.0000    -0.4959     0.8581     0.8581    -0.0000
 29 P     15.1192    15.0000    -0.1192     3.7445     3.7445    -0.0000
 30 H      0.8781     1.0000     0.1219     0.9560     0.9560    -0.0000
 31 C      5.2844     6.0000     0.7156     4.2342     4.2342    -0.0000
 32 O      8.5331     8.0000    -0.5331     2.0662     2.0662     0.0000
 33 O      8.5346     8.0000    -0.5346     2.0902     2.0902    -0.0000
 34 O      8.6220     8.0000    -0.6220     1.9439     1.9439    -0.0000
 35 H      0.9074     1.0000     0.0926     0.9577     0.9577    -0.0000
 36 H      0.8807     1.0000     0.1193     0.9574     0.9574     0.0000
 37 H      0.5913     1.0000     0.4087     0.8222     0.8222    -0.0000

  Mayer bond orders larger than 0.100000
B(  0-C ,  1-C ) :   1.3839 B(  0-C ,  2-C ) :   1.4326 B(  0-C ,  6-H ) :   0.8702 
B(  1-C ,  5-C ) :   1.4077 B(  1-C , 11-C ) :   0.9455 B(  2-C ,  3-C ) :   1.4148 
B(  2-C ,  7-H ) :   0.9222 B(  3-C ,  4-C ) :   1.4314 B(  3-C ,  9-H ) :   0.9274 
B(  4-C ,  5-C ) :   1.4248 B(  4-C , 10-H ) :   0.9277 B(  5-C ,  8-H ) :   0.9279 
B( 11-C , 12-C ) :   0.9356 B( 11-C , 13-H ) :   0.9246 B( 11-C , 14-H ) :   0.8682 
B( 12-C , 15-C ) :   0.9667 B( 12-C , 16-H ) :   0.8953 B( 12-C , 17-H ) :   0.9255 
B( 15-C , 18-C ) :   1.3492 B( 15-C , 21-C ) :   1.4037 B( 18-C , 19-C ) :   1.4243 
B( 18-C , 27-Pd) :   0.7919 B( 18-C , 28-Br) :   0.1080 B( 19-C , 20-C ) :   1.4059 
B( 19-C , 23-H ) :   0.8858 B( 20-C , 22-C ) :   1.4257 B( 20-C , 24-H ) :   0.9279 
B( 21-C , 22-C ) :   1.4300 B( 21-C , 25-H ) :   0.9277 B( 22-C , 26-H ) :   0.9300 
B( 27-Pd, 28-Br) :   0.6064 B( 27-Pd, 29-P ) :   0.7516 B( 27-Pd, 33-O ) :   0.5124 
B( 29-P , 30-H ) :   0.9261 B( 29-P , 35-H ) :   0.9104 B( 29-P , 36-H ) :   0.9338 
B( 31-C , 32-O ) :   1.7909 B( 31-C , 33-O ) :   1.3600 B( 31-C , 34-O ) :   1.0662 
B( 34-O , 37-H ) :   0.7878 

-------
TIMINGS
-------

Total SCF time: 0 days 0 hours 1 min 7 sec 

Total time                  ....      67.868 sec
Sum of individual times     ....      67.141 sec  ( 98.9%)

Fock matrix formation       ....      64.180 sec  ( 94.6%)
  Split-RI-J                ....       4.952 sec  (  7.7% of F)
  Chain of spheres X        ....      55.254 sec  ( 86.1% of F)
  XC integration            ....       3.165 sec  (  4.9% of F)
    Basis function eval.    ....       1.381 sec  ( 43.6% of XC)
    Density eval.           ....       0.818 sec  ( 25.8% of XC)
    XC-Functional eval.     ....       0.247 sec  (  7.8% of XC)
    XC-Potential eval.      ....       0.477 sec  ( 15.1% of XC)
Diagonalization             ....       0.289 sec  (  0.4%)
Density matrix formation    ....       0.019 sec  (  0.0%)
Population analysis         ....       0.084 sec  (  0.1%)
Initial guess               ....       0.041 sec  (  0.1%)
Orbital Transformation      ....       0.000 sec  (  0.0%)
Orbital Orthonormalization  ....       0.030 sec  (  0.0%)
DIIS solution               ....       0.147 sec  (  0.2%)
Grid generation             ....       2.381 sec  (  3.5%)

Maximum memory used throughout the entire SCF-calculation: 97.2 MB


-------------------------------------------------------------------------------
                          DFT DISPERSION CORRECTION                            
                                                                               
                              DFTD3 V3.1  Rev 1                                
                          USING Becke-Johnson damping                          
-------------------------------------------------------------------------------
The PBEh-3c composite method is recognized
Using three-body term ABC
Active option DFTDOPT                   ...         4   

molecular C6(AA) [au] = 23926.938941 


            DFT-D V3
 parameters
 s6 scaling factor         :     1.0000 
 a1 scaling factor         :     0.4860 
 s8 scaling factor         :     0.0000 
 a2 scaling factor         :     4.5000 
 Damping factor alpha9(ATM):    16.0000 
 ad hoc parameters k1-k3   :    16.0000     1.3333    -4.0000 

 Edisp/kcal,au: -19.429998071454  -0.030963669557 
 E6   /kcal   : -19.618034076 
 E8   /kcal   :  -0.000000000 
 E6(ABC)      :   0.188036004 
 % E8         :   0.000000000 
 % E6(ABC)    :  -0.967761313 

-------------------------   ----------------
Dispersion correction           -0.030963670
-------------------------   ----------------

 ** NOTE ** -> element pd will be treated as ni
------------------   -----------------
gCP correction             0.065199848
------------------   -----------------

-------------------------   --------------------
FINAL SINGLE POINT ENERGY     -3847.791031026756
-------------------------   --------------------

                                *** OPTIMIZATION RUN DONE ***

                            ***************************************
                            *     ORCA property calculations      *
                            ***************************************

                                    ---------------------
                                    Active property flags
                                    ---------------------
   (+) Dipole Moment


------------------------------------------------------------------------------
                       ORCA ELECTRIC PROPERTIES CALCULATION
------------------------------------------------------------------------------

Dipole Moment Calculation                       ... on
Quadrupole Moment Calculation                   ... off
Polarizability Calculation                      ... off
GBWName                                         ... reaction-3-rct-pbeh3c-orca_opt.gbw
Electron density                                ... reaction-3-rct-pbeh3c-orca_opt.scfp
The origin for moment calculation is the CENTER OF MASS  = ( 0.193041, -1.142732 -2.119240)

-------------
DIPOLE MOMENT
-------------
                                X             Y             Z
Electronic contribution:     35.06775     -54.04648     -82.03964
Nuclear contribution   :    -35.00509      53.36028      84.96249
                        -----------------------------------------
Total Dipole Moment    :      0.06267      -0.68621       2.92284
                        -----------------------------------------
Magnitude (a.u.)       :      3.00297
Magnitude (Debye)      :      7.63294



--------------------
Rotational spectrum 
--------------------
 
Rotational constants in cm-1:     0.007546     0.005427     0.004021 
Rotational constants in MHz :   226.218070   162.701159   120.544904 

 Dipole components along the rotational axes: 
x,y,z [a.u.] :    -1.864682     1.469879     1.838542 
x,y,z [Debye]:    -4.739646     3.736134     4.673203 

 

Timings for individual modules:

Sum of individual times         ...     6771.670 sec (= 112.861 min)
GTO integral calculation        ...       70.421 sec (=   1.174 min)   1.0 %
SCF iterations                  ...     5136.289 sec (=  85.605 min)  75.8 %
SCF Gradient evaluation         ...     1554.391 sec (=  25.907 min)  23.0 %
Geometry relaxation             ...       10.569 sec (=   0.176 min)   0.2 %
                             ****ORCA TERMINATED NORMALLY****
TOTAL RUN TIME: 0 days 1 hours 53 minutes 23 seconds 143 msec
