
                                 *****************
                                 * O   R   C   A *
                                 *****************

                                            #,                                       
                                            ###                                      
                                            ####                                     
                                            #####                                    
                                            ######                                   
                                           ########,                                 
                                     ,,################,,,,,                         
                               ,,#################################,,                 
                          ,,##########################################,,             
                       ,#########################################, ''#####,          
                    ,#############################################,,   '####,        
                  ,##################################################,,,,####,       
                ,###########''''           ''''###############################       
              ,#####''   ,,,,##########,,,,          '''####'''          '####       
            ,##' ,,,,###########################,,,                        '##       
           ' ,,###''''                  '''############,,,                           
         ,,##''                                '''############,,,,        ,,,,,,###''
      ,#''                                            '''#######################'''  
     '                                                          ''''####''''         
             ,#######,   #######,   ,#######,      ##                                
            ,#'     '#,  ##    ##  ,#'     '#,    #''#        ######   ,####,        
            ##       ##  ##   ,#'  ##            #'  '#       #        #'  '#        
            ##       ##  #######   ##           ,######,      #####,   #    #        
            '#,     ,#'  ##    ##  '#,     ,#' ,#      #,         ##   #,  ,#        
             '#######'   ##     ##  '#######'  #'      '#     #####' # '####'        



                  #######################################################
                  #                        -***-                        #
                  #          Department of theory and spectroscopy      #
                  #    Directorship and core code : Frank Neese         #
                  #        Max Planck Institute fuer Kohlenforschung    #
                  #                Kaiser Wilhelm Platz 1               #
                  #                 D-45470 Muelheim/Ruhr               #
                  #                      Germany                        #
                  #                                                     #
                  #                  All rights reserved                #
                  #                        -***-                        #
                  #######################################################


                         Program Version 5.0.4 -  RELEASE  -


 With contributions from (in alphabetic order):
   Daniel Aravena         : Magnetic Suceptibility
   Michael Atanasov       : Ab Initio Ligand Field Theory (pilot matlab implementation)
   Alexander A. Auer      : GIAO ZORA, VPT2 properties, NMR spectrum
   Ute Becker             : Parallelization
   Giovanni Bistoni       : ED, misc. LED, open-shell LED, HFLD
   Martin Brehm           : Molecular dynamics
   Dmytro Bykov           : SCF Hessian
   Vijay G. Chilkuri      : MRCI spin determinant printing, contributions to CSF-ICE
   Dipayan Datta          : RHF DLPNO-CCSD density
   Achintya Kumar Dutta   : EOM-CC, STEOM-CC
   Dmitry Ganyushin       : Spin-Orbit,Spin-Spin,Magnetic field MRCI
   Miquel Garcia          : C-PCM and meta-GGA Hessian, CC/C-PCM, Gaussian charge scheme
   Yang Guo               : DLPNO-NEVPT2, F12-NEVPT2, CIM, IAO-localization
   Andreas Hansen         : Spin unrestricted coupled pair/coupled cluster methods
   Benjamin Helmich-Paris : MC-RPA, TRAH-SCF, COSX integrals
   Lee Huntington         : MR-EOM, pCC
   Robert Izsak           : Overlap fitted RIJCOSX, COSX-SCS-MP3, EOM
   Marcus Kettner         : VPT2
   Christian Kollmar      : KDIIS, OOCD, Brueckner-CCSD(T), CCSD density, CASPT2, CASPT2-K
   Simone Kossmann        : Meta GGA functionals, TD-DFT gradient, OOMP2, MP2 Hessian
   Martin Krupicka        : Initial AUTO-CI
   Lucas Lang             : DCDCAS
   Marvin Lechner         : AUTO-CI (C++ implementation), FIC-MRCC
   Dagmar Lenk            : GEPOL surface, SMD
   Dimitrios Liakos       : Extrapolation schemes; Compound Job, initial MDCI parallelization
   Dimitrios Manganas     : Further ROCIS development; embedding schemes
   Dimitrios Pantazis     : SARC Basis sets
   Anastasios Papadopoulos: AUTO-CI, single reference methods and gradients
   Taras Petrenko         : DFT Hessian,TD-DFT gradient, ASA, ECA, R-Raman, ABS, FL, XAS/XES, NRVS
   Peter Pinski           : DLPNO-MP2, DLPNO-MP2 Gradient
   Christoph Reimann      : Effective Core Potentials
   Marius Retegan         : Local ZFS, SOC
   Christoph Riplinger    : Optimizer, TS searches, QM/MM, DLPNO-CCSD(T), (RO)-DLPNO pert. Triples
   Tobias Risthaus        : Range-separated hybrids, TD-DFT gradient, RPA, STAB
   Michael Roemelt        : Original ROCIS implementation
   Masaaki Saitow         : Open-shell DLPNO-CCSD energy and density
   Barbara Sandhoefer     : DKH picture change effects
   Avijit Sen             : IP-ROCIS
   Kantharuban Sivalingam : CASSCF convergence, NEVPT2, FIC-MRCI
   Bernardo de Souza      : ESD, SOC TD-DFT
   Georgi Stoychev        : AutoAux, RI-MP2 NMR, DLPNO-MP2 response
   Willem Van den Heuvel  : Paramagnetic NMR
   Boris Wezisla          : Elementary symmetry handling
   Frank Wennmohs         : Technical directorship


 We gratefully acknowledge several colleagues who have allowed us to
 interface, adapt or use parts of their codes:
   Stefan Grimme, W. Hujo, H. Kruse, P. Pracht,  : VdW corrections, initial TS optimization,
                  C. Bannwarth, S. Ehlert          DFT functionals, gCP, sTDA/sTD-DF
   Ed Valeev, F. Pavosevic, A. Kumar             : LibInt (2-el integral package), F12 methods
   Garnet Chan, S. Sharma, J. Yang, R. Olivares  : DMRG
   Ulf Ekstrom                                   : XCFun DFT Library
   Mihaly Kallay                                 : mrcc  (arbitrary order and MRCC methods)
   Jiri Pittner, Ondrej Demel                    : Mk-CCSD
   Frank Weinhold                                : gennbo (NPA and NBO analysis)
   Christopher J. Cramer and Donald G. Truhlar   : smd solvation model
   Lars Goerigk                                  : TD-DFT with DH, B97 family of functionals
   V. Asgeirsson, H. Jonsson                     : NEB implementation
   FAccTs GmbH                                   : IRC, NEB, NEB-TS, DLPNO-Multilevel, CI-OPT
                                                   MM, QMMM, 2- and 3-layer-ONIOM, Crystal-QMMM,
                                                   LR-CPCM, SF, NACMEs, symmetry and pop. for TD-DFT,
                                                   nearIR, NL-DFT gradient (VV10), updates on ESD,
                                                   ML-optimized integration grids
   S Lehtola, MJT Oliveira, MAL Marques          : LibXC Library
   Liviu Ungur et al                             : ANISO software


 Your calculation uses the libint2 library for the computation of 2-el integrals
 For citations please refer to: http://libint.valeyev.net

 Your ORCA version has been built with support for libXC version: 5.1.0
 For citations please refer to: https://tddft.org/programs/libxc/

 This ORCA versions uses:
   CBLAS   interface :  Fast vector & matrix operations
   LAPACKE interface :  Fast linear algebra routines
   SCALAPACK package :  Parallel linear algebra routines
   Shared memory     :  Shared parallel matrices
   BLAS/LAPACK       :  OpenBLAS 0.3.15  USE64BITINT DYNAMIC_ARCH NO_AFFINITY SkylakeX SINGLE_THREADED
        Core in use  :  SkylakeX
   Copyright (c) 2011-2014, The OpenBLAS Project




***************************************
The coordinates will be read from file: IEIP_ts_guess.xyz
***************************************




################################################################################


                                COMPOUND JOB MainJOB 
Basename: reaction-6-ieip_optts_Compound_0

################################################################################

================================================================================
                                       INPUT FILE
================================================================================
NAME = reaction-6-ieip_optts_Compound_0.inp
|  1> %pal nprocs 8 end 
|  2>   
|  3>  *xyzfile -1 1 IEIP_ts_guess.xyz 
|  4>   
|  5> 
|  6>                          ****END OF INPUT****
================================================================================


***************************************
The coordinates will be read from file: IEIP_ts_guess.xyz
***************************************


================================================================================

cite the ECPs for Pt [Def2-ECP] as follows:
Ce-Yb(ecp-28): M. Dolg, H. Stoll, H.Preuss, J. Chem. Phys., 1989, 90, 1730-1734.
Y-Cd(ecp-28), Hf-Hg(ecp-46): D. Andrae,U. Haeussermann, M. Dolg, H. Stoll, H. Preuss, Theor. Chim. Acta, 1990, 77, 123-141.
In-Sb(ecp-28), Tl-Bi(ecp-46): B. Metz, H. Stoll, M. Dolg, J. Chem. Phys., 2000, 113, 2563-2569.
Te-Xe(ecp-28), Po-Rn(ecp-46): K. A. Peterson, D. Figgen, E. Goll, H. Stoll, M. Dolg, J. Chem. Phys., 2003, 119, 11113-11123.
Rb(ecp-28), Cs(ecp-46): T. Leininger, A. Nicklass, W. Kuechle, H. Stoll, M. Dolg, A. Bergner, Chem. Phys. Lett., 1996, 255, 274-280.
Sr(ecp-28), Ba(ecp-46): M. Kaupp, P. V. Schleyer, H. Stoll and H. Preuss, J. Chem. Phys., 1991, 94, 1360-1366.
La(ecp-46): M. Dolg, H. Stoll, A. Savin, H. Preuss, Theor. Chim. Acta, 1989, 75, 173-194.
Lu(ecp-28): X. Cao, M. Dolg, J. Chem. Phys., 2001, 115, 7348-7355.

ECP parameters for Pt [Def2-ECP] have been obtained from:
TURBOMOLE (7.0.2)

----- Orbital basis set information -----
Your calculation utilizes the basis: def2-SVP
   F. Weigend and R. Ahlrichs, Phys. Chem. Chem. Phys. 7, 3297 (2005).



################################################################################


                                COMPOUND JOB  1 
Basename: reaction-6-ieip_optts_Compound_1
NOTE: please remember that MaxCore and PAL settings will be ignored.

################################################################################

================================================================================
                                       INPUT FILE
================================================================================
NAME = reaction-6-ieip_optts_Compound_1.inp
|  1>   
|  2>    
|  3>   ! PBEh-3c OptTS Freq pal8 
|  4>    
|  5>   %geom 
|  6>    calc_hess true 
|  7>    recalc_hess 20 
|  8>    maxiter 600 
|  9>   end  
| 10>    
| 11> 
| 12>                          ****END OF INPUT****
================================================================================
Your calculation utilizes the geometrical counterpoise correction gCP
Please cite in your paper:
H.Kruse, S. Grimme J.Chem.Phys., 136, (2012), 154101 
   

Your calculation utilizes the atom-pairwise dispersion correction
with the Becke-Johnson damping scheme (D3BJ)
Cite in your paper:
S.Grimme, S.Ehrlich, L.Goerigk, J Comput Chem, (2011), 32, 1456–1465 
S.Grimme, J.Antony, S.Ehrlich and H.Krieg, J.Chem.Phys., 132, (2010), 154104 
   

Your calculation employs the composite approach PBEh-3c.
Please cite in your paper:
S. Grimme, J. G. Brandenburg, C. Bannwarth, A. Hansen J.Chem.Phys., 143, (2015), 054107 
   

================================================================================

cite the ECPs for Pt [Def2-ECP] as follows:
Ce-Yb(ecp-28): M. Dolg, H. Stoll, H.Preuss, J. Chem. Phys., 1989, 90, 1730-1734.
Y-Cd(ecp-28), Hf-Hg(ecp-46): D. Andrae,U. Haeussermann, M. Dolg, H. Stoll, H. Preuss, Theor. Chim. Acta, 1990, 77, 123-141.
In-Sb(ecp-28), Tl-Bi(ecp-46): B. Metz, H. Stoll, M. Dolg, J. Chem. Phys., 2000, 113, 2563-2569.
Te-Xe(ecp-28), Po-Rn(ecp-46): K. A. Peterson, D. Figgen, E. Goll, H. Stoll, M. Dolg, J. Chem. Phys., 2003, 119, 11113-11123.
Rb(ecp-28), Cs(ecp-46): T. Leininger, A. Nicklass, W. Kuechle, H. Stoll, M. Dolg, A. Bergner, Chem. Phys. Lett., 1996, 255, 274-280.
Sr(ecp-28), Ba(ecp-46): M. Kaupp, P. V. Schleyer, H. Stoll and H. Preuss, J. Chem. Phys., 1991, 94, 1360-1366.
La(ecp-46): M. Dolg, H. Stoll, A. Savin, H. Preuss, Theor. Chim. Acta, 1989, 75, 173-194.
Lu(ecp-28): X. Cao, M. Dolg, J. Chem. Phys., 2001, 115, 7348-7355.

ECP parameters for Pt [Def2-ECP] have been obtained from:
TURBOMOLE (7.0.2)

----- Orbital basis set information -----
Your calculation utilizes the basis: def2-mSVP

----- AuxJ basis set information -----
Your calculation utilizes the auxiliary basis: def2/J
   F. Weigend, Phys. Chem. Chem. Phys. 8, 1057 (2006).

================================================================================
                                        WARNINGS
                       Please study these warnings very carefully!
================================================================================


WARNING: Geometry Optimization
  ===> : Switching off AutoStart
         For restart on a previous wavefunction, please use MOREAD

WARNING: No Hueckel Guess possible with ECP basis!
  ===> : Switching to HCORE guess!

INFO   : the flag for use of the SHARK integral package has been found!


                       *****************************
                       * Geometry Optimization Run *
                       *****************************

Geometry optimization settings:
Update method            Update   .... Bofill
Choice of coordinates    CoordSys .... Z-matrix Internals
Initial Hessian          InHess   .... Almoef's Model

Convergence Tolerances:
Energy Change            TolE     ....  5.0000e-06 Eh
Max. Gradient            TolMAXG  ....  3.0000e-04 Eh/bohr
RMS Gradient             TolRMSG  ....  1.0000e-04 Eh/bohr
Max. Displacement        TolMAXD  ....  4.0000e-03 bohr
RMS Displacement         TolRMSD  ....  2.0000e-03 bohr
Strict Convergence                ....  False
------------------------------------------------------------------------------
                        ORCA OPTIMIZATION COORDINATE SETUP
------------------------------------------------------------------------------

The optimization will be done in new redundant internal coordinates
Making redundant internal coordinates   ...  (new redundants) done
Following TS mode number                ...     0
Evaluating the initial hessian          ...  (Is done on the fly) done
Evaluating the coordinates              ...  done
Calculating the B-matrix                .... done
Calculating the G-matrix                .... done
Diagonalizing the G-matrix              .... done
The first mode is                       ....   32
The number of degrees of freedom        ....   21

    -----------------------------------------------------------------
                    Redundant Internal Coordinates


    -----------------------------------------------------------------
         Definition                    Initial Value    d2E/dq (diagonal element)
    -----------------------------------------------------------------
      1. B(Cl  1,Pt  0)                  2.3263         0.000000   
      2. B(Cl  2,Pt  0)                  2.3312         0.000000   
      3. B(Cl  3,Pt  0)                  2.3314         0.000000   
      4. B(H   5,C   4)                  1.0872         0.000000   
      5. B(H   6,Pt  0)                  1.5356         0.000000   
      6. B(H   6,C   4)                  1.5838         0.000000   
      7. B(H   6,H   5)                  2.0496         0.000000   
      8. B(H   7,H   6)                  1.8728         0.000000   
      9. B(H   7,C   4)                  1.0900         0.000000   
     10. B(H   8,C   4)                  1.0912         0.000000   
     11. A(Cl  1,Pt  0,Cl  2)           90.4318         0.000000   
     12. A(Cl  3,Pt  0,H   6)           90.6308         0.000000   
     13. A(Cl  1,Pt  0,H   6)           87.8765         0.000000   
     14. A(Cl  2,Pt  0,Cl  3)           91.2625         0.000000   
     15. A(Cl  2,Pt  0,H   6)          151.4473         0.000000   
     16. A(H   5,C   4,H   7)          110.2016         0.000000   
     17. A(H   7,C   4,H   8)          106.9035         0.000000   
     18. A(H   5,C   4,H   6)           98.5203         0.000000   
     19. A(H   6,C   4,H   7)           86.8585         0.000000   
     20. A(H   6,C   4,H   8)          141.4187         0.000000   
     21. A(H   5,C   4,H   8)          109.3946         0.000000   
     22. A(C   4,H   5,H   6)           49.8380         0.000000   
     23. A(C   4,H   6,H   5)           31.6417         0.000000   
     24. A(Pt  0,H   6,H   5)           99.1809         0.000000   
     25. A(Pt  0,H   6,C   4)           86.3166         0.000000   
     26. A(H   5,H   6,H   7)           53.9336         0.000000   
     27. A(C   4,H   6,H   7)           35.5307         0.000000   
     28. A(Pt  0,H   6,H   7)          111.3471         0.000000   
     29. A(C   4,H   7,H   6)           57.6109         0.000000   
     30. D(H   6,H   5,C   4,H   8)    152.9667         0.000000   
     31. D(H   6,H   5,C   4,H   7)    -89.7753         0.000000   
     32. D(C   4,H   6,Pt  0,Cl  1)    -93.7382         0.000000   
     33. D(Pt  0,H   6,C   4,H   5)    114.1570         0.000000   
     34. D(H   5,H   6,Pt  0,Cl  1)    -64.7339         0.000000   
     35. D(H   5,H   6,Pt  0,Cl  2)   -151.7323         0.000000   
     36. D(H   7,H   6,Pt  0,Cl  1)   -119.4854         0.000000   
     37. D(H   5,H   6,C   4,H   8)   -136.5707         0.000000   
     38. D(C   4,H   6,Pt  0,Cl  3)     85.4599         0.000000   
     39. D(H   7,H   6,Pt  0,Cl  3)     59.7128         0.000000   
     40. D(H   5,H   6,Pt  0,Cl  3)    114.4642         0.000000   
     41. D(Pt  0,H   6,C   4,H   7)   -135.8759         0.000000   
     42. D(Pt  0,H   6,C   4,H   8)    -22.4137         0.000000   
     43. D(H   5,H   6,C   4,H   7)    109.9671         0.000000   
     44. D(C   4,H   6,Pt  0,Cl  2)    179.2634         0.000000   
     45. D(H   7,H   6,C   4,H   5)   -109.9671         0.000000   
     46. D(H   7,H   6,C   4,H   8)    113.4622         0.000000   
     47. D(Pt  0,H   6,H   5,C   4)    -67.2734         0.000000   
     48. D(H   7,H   6,H   5,C   4)     42.5098         0.000000   
     49. D(H   7,H   6,Pt  0,Cl  2)    153.5163         0.000000   
     50. D(C   4,H   7,H   6,H   5)    -37.5882         0.000000   
     51. D(C   4,H   7,H   6,Pt  0)     48.2412         0.000000   
     52. D(H   6,H   7,C   4,H   8)   -143.2806         0.000000   
     53. D(H   6,H   7,C   4,H   5)     97.9272         0.000000   
    -----------------------------------------------------------------

Number of atoms                         .... 9
Number of degrees of freedom            .... 53

         *************************************************************
         *                GEOMETRY OPTIMIZATION CYCLE   1            *
         *************************************************************
---------------------------------
CARTESIAN COORDINATES (ANGSTROEM)
---------------------------------
  Pt    -0.545340   -0.653320    0.413600
  Cl     0.153110    0.007310    2.531970
  Cl    -2.395760   -1.727230    1.339320
  Cl    -1.190290   -1.283770   -1.736320
  C      0.662150    0.846220   -0.506910
  H      1.307110    1.367630    0.196100
  H      0.928940   -0.635630   -0.015520
  H      1.219560    0.584490   -1.406290
  H     -0.147000    1.509470   -0.816890

----------------------------
CARTESIAN COORDINATES (A.U.)
----------------------------
  NO LB      ZA    FRAG     MASS         X           Y           Z
   0 Pt   18.0000*   0   195.090   -1.030543   -1.234596    0.781591
   1 Cl   17.0000    0    35.453    0.289336    0.013814    4.784730
   2 Cl   17.0000    0    35.453   -4.527330   -3.263992    2.530948
   3 Cl   17.0000    0    35.453   -2.249322   -2.425974   -3.281169
   4 C     6.0000    0    12.011    1.251282    1.599124   -0.957921
   5 H     1.0000    0     1.008    2.470080    2.584446    0.370575
   6 H     1.0000    0     1.008    1.755442   -1.201167   -0.029329
   7 H     1.0000    0     1.008    2.304634    1.104526   -2.657503
   8 H     1.0000    0     1.008   -0.277790    2.852485   -1.543698
* core charge reduced due to ECP

--------------------------------
INTERNAL COORDINATES (ANGSTROEM)
--------------------------------
 Pt     0   0   0     0.000000000000     0.00000000     0.00000000
 Cl     1   0   0     2.326318090094     0.00000000     0.00000000
 Cl     1   2   0     2.331157305482    90.43176085     0.00000000
 Cl     1   2   3     2.331433831658   178.30571090   180.26195392
 C      1   2   3     2.134008193939    91.33855472   160.84077691
 H      5   1   2     1.087228057861   113.18722334     6.90737592
 H      1   2   3     1.535564531011    87.87651218   208.51078643
 H      5   1   2     1.089996736417   118.46020216   138.16859754
 H      5   1   2     1.091197454817    97.47326258   252.03897294

---------------------------
INTERNAL COORDINATES (A.U.)
---------------------------
 Pt     0   0   0     0.000000000000     0.00000000     0.00000000
 Cl     1   0   0     4.396104090665     0.00000000     0.00000000
 Cl     1   2   0     4.405248882450    90.43176085     0.00000000
 Cl     1   2   3     4.405771441192   178.30571090   180.26195392
 C      1   2   3     4.032691054089    91.33855472   160.84077691
 H      5   1   2     2.054563274472   113.18722334     6.90737592
 H      1   2   3     2.901796424575    87.87651218   208.51078643
 H      5   1   2     2.059795318696   118.46020216   138.16859754
 H      5   1   2     2.062064347637    97.47326258   252.03897294

---------------------
BASIS SET INFORMATION
---------------------
There are 4 groups of distinct atoms

 Group   1 Type Pt  : 7s6p5d1f contracted to 6s3p2d1f pattern {211111/411/41/1}
 Group   2 Type Cl  : 10s7p1d contracted to 4s3p1d pattern {5311/511/1}
 Group   3 Type C   : 8s4p1d contracted to 4s2p1d pattern {5111/31/1}
 Group   4 Type H   : 4s contracted to 2s pattern {31}

Atom   0Pt   basis set group =>   1
Atom   1Cl   basis set group =>   2
Atom   2Cl   basis set group =>   2
Atom   3Cl   basis set group =>   2
Atom   4C    basis set group =>   3
Atom   5H    basis set group =>   4
Atom   6H    basis set group =>   4
Atom   7H    basis set group =>   4
Atom   8H    basis set group =>   4
---------------------------------
AUXILIARY/J BASIS SET INFORMATION
---------------------------------
There are 4 groups of distinct atoms

 Group   1 Type Pt  : 11s5p5d3f3g contracted to 8s5p5d2f3g pattern {41111111/11111/11111/21/111}
 Group   2 Type Cl  : 14s5p5d2f1g contracted to 8s4p3d1f1g pattern {71111111/2111/311/2/1}
 Group   3 Type C   : 12s5p4d2f1g contracted to 6s4p3d1f1g pattern {711111/2111/211/2/1}
 Group   4 Type H   : 5s2p1d contracted to 3s1p1d pattern {311/2/1}

Atom   0Pt   basis set group =>   1
Atom   1Cl   basis set group =>   2
Atom   2Cl   basis set group =>   2
Atom   3Cl   basis set group =>   2
Atom   4C    basis set group =>   3
Atom   5H    basis set group =>   4
Atom   6H    basis set group =>   4
Atom   7H    basis set group =>   4
Atom   8H    basis set group =>   4
-------------------------
ECP PARAMETER INFORMATION
-------------------------

 Group 1, Type Pt ECP Def2-ECP (replacing 60 core electrons, lmax=3)

Atom   0Pt   ECP group =>   1



           ************************************************************
           *        Program running with 8 parallel MPI-processes     *
           *              working on a common directory               *
           ************************************************************
------------------------------------------------------------------------------
                           ORCA GTO INTEGRAL CALCULATION
                           -- RI-GTO INTEGRALS CHOSEN --
------------------------------------------------------------------------------
------------------------------------------------------------------------------
                   ___                                                        
                  /   \      - P O W E R E D   B Y -                         
                 /     \                                                     
                 |  |  |   _    _      __       _____    __    __             
                 |  |  |  | |  | |    /  \     |  _  \  |  |  /  |          
                  \  \/   | |  | |   /    \    | | | |  |  | /  /          
                 / \  \   | |__| |  /  /\  \   | |_| |  |  |/  /          
                |  |  |   |  __  | /  /__\  \  |    /   |      \           
                |  |  |   | |  | | |   __   |  |    \   |  |\   \          
                \     /   | |  | | |  |  |  |  | |\  \  |  | \   \       
                 \___/    |_|  |_| |__|  |__|  |_| \__\ |__|  \__/        
                                                                              
                      - O R C A' S   B I G   F R I E N D -                    
                                      &                                       
                       - I N T E G R A L  F E E D E R -                       
                                                                              
 v1 FN, 2020, v2 2021                                                         
------------------------------------------------------------------------------


Reading SHARK input file reaction-6-ieip_optts_Compound_1.SHARKINP.tmp ... ok
----------------------
SHARK INTEGRAL PACKAGE
----------------------

Number of atoms                             ...      9
Number of basis functions                   ...    109
Number of shells                            ...     51
Maximum angular momentum                    ...      3
Integral batch strategy                     ... SHARK/LIBINT Hybrid
RI-J (if used) integral strategy            ... SPLIT-RIJ (Revised 2003 algorithm where possible)
Printlevel                                  ...      1
Contraction scheme used                     ... SEGMENTED contraction
Coulomb Range Separation                    ... NOT USED
Exchange Range Separation                   ... NOT USED
Finite Nucleus Model                        ... NOT USED
Auxiliary Coulomb fitting basis             ... AVAILABLE
   # of basis functions in Aux-J            ...    335
   # of shells in Aux-J                     ...    109
   Maximum angular momentum in Aux-J        ...      4
Auxiliary J/K fitting basis                 ... NOT available
Auxiliary Correlation fitting basis         ... NOT available
Auxiliary 'external' fitting basis          ... NOT available
Integral threshold                          ...     2.500000e-11
Primitive cut-off                           ...     2.500000e-12
Primitive pair pre-selection threshold      ...     2.500000e-12

Calculating pre-screening integrals         ... done (  0.0 sec) Dimension = 51
Organizing shell pair data                  ... done (  0.0 sec)
Shell pair information
Total number of shell pairs                 ...      1326
Shell pairs after pre-screening             ...      1202
Total number of primitive shell pairs       ...      5360
Primitive shell pairs kept                  ...      3544
          la=0 lb=0:    405 shell pairs
          la=1 lb=0:    374 shell pairs
          la=1 lb=1:     99 shell pairs
          la=2 lb=0:    171 shell pairs
          la=2 lb=1:     81 shell pairs
          la=2 lb=2:     21 shell pairs
          la=3 lb=0:     30 shell pairs
          la=3 lb=1:     14 shell pairs
          la=3 lb=2:      6 shell pairs
          la=3 lb=3:      1 shell pairs

Calculating one electron integrals          ... done (  0.0 sec)
Calculating ECP integrals                   ... done (  0.1 sec)
Calculating RI/J V-Matrix + Cholesky decomp.... done (  0.0 sec)
Calculating Nuclear repulsion               ... done (  0.0 sec) ENN=    466.353043857746 Eh

SHARK setup successfully completed in   0.3 seconds

Maximum memory used throughout the entire GTOINT-calculation: 14.2 MB


           ************************************************************
           *        Program running with 8 parallel MPI-processes     *
           *              working on a common directory               *
           ************************************************************
-------------------------------------------------------------------------------
                                 ORCA SCF
-------------------------------------------------------------------------------

------------
SCF SETTINGS
------------
Hamiltonian:
 Density Functional     Method          .... DFT(GTOs)
 Exchange Functional    Exchange        .... PBE
   PBE kappa parameter   XKappa         ....  1.024500
   PBE mue parameter    XMuePBE         ....  0.123457
 Correlation Functional Correlation     .... PBE
   PBE beta parameter  CBetaPBE         ....  0.030000
 LDA part of GGA corr.  LDAOpt          .... PW91-LDA
 Gradients option       PostSCFGGA      .... off
 Hybrid DFT is turned on
   Fraction HF Exchange ScalHFX         ....  0.420000
   Scaling of DF-GGA-X  ScalDFX         ....  0.580000
   Scaling of DF-GGA-C  ScalDFC         ....  1.000000
   Scaling of DF-LDA-C  ScalLDAC        ....  1.000000
   Perturbative correction              ....  0.000000
   Density functional embedding theory  .... OFF
 RI-approximation to the Coulomb term is turned on
   Number of AuxJ basis functions       .... 335
   RIJ-ON(X) (HFX calculated with O(N)) .... on
   Number of AuxJ basis functions       .... 335
   RIJ-COSX (HFX calculated with COS-X)).... on


General Settings:
 Integral files         IntName         .... reaction-6-ieip_optts_Compound_1
 Hartree-Fock type      HFTyp           .... RHF
 Total Charge           Charge          ....   -1
 Multiplicity           Mult            ....    1
 Number of Electrons    NEL             ....   80
 Basis Dimension        Dim             ....  109
 Nuclear Repulsion      ENuc            ....    466.3530438577 Eh

Convergence Acceleration:
 DIIS                   CNVDIIS         .... on
   Start iteration      DIISMaxIt       ....    12
   Startup error        DIISStart       ....  0.200000
   # of expansion vecs  DIISMaxEq       ....     5
   Bias factor          DIISBfac        ....   1.050
   Max. coefficient     DIISMaxC        ....  10.000
 Trust-Rad. Augm. Hess. CNVTRAH         .... auto
   Auto Start mean grad. ratio tolernc. ....  1.125000
   Auto Start start iteration           ....    20
   Auto Start num. interpolation iter.  ....    10
   Max. Number of Micro iterations      ....    16
   Max. Number of Macro iterations      .... Maxiter - #DIIS iter
   Number of Davidson start vectors     ....     2
   Converg. threshold I  (grad. norm)   ....   1.000e-05
   Converg. threshold II (energy diff.) ....   1.000e-08
   Grad. Scal. Fac. for Micro threshold ....   0.100
   Minimum threshold for Micro iter.    ....   0.010
   NR start threshold (gradient norm)   ....   0.001
   Initial trust radius                 ....   0.400
   Minimum AH scaling param. (alpha)    ....   1.000
   Maximum AH scaling param. (alpha)    .... 1000.000
   Orbital update algorithm             .... Taylor
   White noise on init. David. guess    .... on
   Maximum white noise                  ....   0.010
   Quad. conv. algorithm                .... NR
   COSX micro iterations for RIJONX calc.... off
 SOSCF                  CNVSOSCF        .... off
 Level Shifting         CNVShift        .... on
   Level shift para.    LevelShift      ....    0.2500
   Turn off err/grad.   ShiftErr        ....    0.0010
 Zerner damping         CNVZerner       .... off
 Static damping         CNVDamp         .... on
   Fraction old density DampFac         ....    0.7000
   Max. Damping (<1)    DampMax         ....    0.9800
   Min. Damping (>=0)   DampMin         ....    0.0000
   Turn off err/grad.   DampErr         ....    0.1000
 Fernandez-Rico         CNVRico         .... off

SCF Procedure:
 Maximum # iterations   MaxIter         ....   125
 SCF integral mode      SCFMode         .... Direct
   Integral package                     .... SHARK and LIBINT hybrid scheme
 Reset frequency        DirectResetFreq ....    20
 Integral Threshold     Thresh          ....  2.500e-11 Eh
 Primitive CutOff       TCut            ....  2.500e-12 Eh

Convergence Tolerance:
 Convergence Check Mode ConvCheckMode   .... Total+1el-Energy
 Convergence forced     ConvForced      .... 0
 Energy Change          TolE            ....  1.000e-08 Eh
 1-El. energy change                    ....  1.000e-05 Eh
 DIIS Error             TolErr          ....  5.000e-07


Diagonalization of the overlap matrix:
Smallest eigenvalue                        ... 9.135e-03
Time for diagonalization                   ...    0.003 sec
Threshold for overlap eigenvalues          ... 1.000e-08
Number of eigenvalues below threshold      ... 0
Time for construction of square roots      ...    0.001 sec
Total time needed                          ...    0.005 sec

--------------------
INITIAL GUESS: HCORE
--------------------
                      -----------------
                      INTIAL GUESS DONE 
                      -----------------
-------------------
DFT GRID GENERATION
-------------------

General Integration Accuracy     IntAcc      ... 4.159
Radial Grid Type                 RadialGrid  ... OptM3 with GC (2021)
Angular Grid (max. ang.)         AngularGrid ... 3 (Lebedev-194)
Angular grid pruning method      GridPruning ... 4 (adaptive)
Weight generation scheme         WeightScheme... Becke
Basis function cutoff            BFCut       ... 1.0000e-11
Integration weight cutoff        WCut        ... 1.0000e-14
Angular grids for H and He will be reduced by one unit
Partially contracted basis set               ... off
Rotationally invariant grid construction     ... off

Total number of grid points                  ...    27519
Total number of batches                      ...      433
Average number of points per batch           ...       63
Average number of grid points per atom       ...     3058
Time for grid setup =    0.100 sec

--------------------
COSX GRID GENERATION
--------------------

GRIDX 1
-------
General Integration Accuracy     IntAcc      ... 3.816
Radial Grid Type                 RadialGrid  ... OptM3 with GC (2021)
Angular Grid (max. ang.)         AngularGrid ... 1 (Lebedev-50)
Angular grid pruning method      GridPruning ... 4 (adaptive)
Weight generation scheme         WeightScheme... Becke
Basis function cutoff            BFCut       ... 1.0000e-11
Integration weight cutoff        WCut        ... 1.0000e-14
Angular grids for H and He will be reduced by one unit
Partially contracted basis set               ... on
Rotationally invariant grid construction     ... off

Total number of grid points                  ...     6232
Total number of batches                      ...      102
Average number of points per batch           ...       61
Average number of grid points per atom       ...      692
UseSFitting                                  ... on

GRIDX 2
-------
General Integration Accuracy     IntAcc      ... 4.020
Radial Grid Type                 RadialGrid  ... OptM3 with GC (2021)
Angular Grid (max. ang.)         AngularGrid ... 2 (Lebedev-110)
Angular grid pruning method      GridPruning ... 4 (adaptive)
Weight generation scheme         WeightScheme... Becke
Basis function cutoff            BFCut       ... 1.0000e-11
Integration weight cutoff        WCut        ... 1.0000e-14
Angular grids for H and He will be reduced by one unit
Partially contracted basis set               ... on
Rotationally invariant grid construction     ... off

Total number of grid points                  ...    14669
Total number of batches                      ...      234
Average number of points per batch           ...       62
Average number of grid points per atom       ...     1630
UseSFitting                                  ... on

GRIDX 3
-------
General Integration Accuracy     IntAcc      ... 4.338
Radial Grid Type                 RadialGrid  ... OptM3 with GC (2021)
Angular Grid (max. ang.)         AngularGrid ... 3 (Lebedev-194)
Angular grid pruning method      GridPruning ... 4 (adaptive)
Weight generation scheme         WeightScheme... Becke
Basis function cutoff            BFCut       ... 1.0000e-11
Integration weight cutoff        WCut        ... 1.0000e-14
Angular grids for H and He will be reduced by one unit
Partially contracted basis set               ... on
Rotationally invariant grid construction     ... off

Total number of grid points                  ...    32660
Total number of batches                      ...      516
Average number of points per batch           ...       63
Average number of grid points per atom       ...     3629
UseSFitting                                  ... on

Time for X-Grid setup             =    0.180 sec

--------------
SCF ITERATIONS
--------------
ITER       Energy         Delta-E        Max-DP      RMS-DP      [F,P]     Damp
               ***  Starting incremental Fock matrix formation  ***
  0  -1489.8479632713   0.00000000000018.37703872  0.31101425  1.5409119 0.7000
  1  -1504.3343874391 -14.486424167807 5.52222647  0.11307646  1.2550412 0.7000
  2  -1514.4900808721 -10.155693433069 3.77342191  0.08109592  0.8112835 0.7000
  3  -1521.5943333238  -7.104252451647 2.60583782  0.05750797  0.5488336 0.7000
  4  -1526.7055514166  -5.111218092778 1.80863755  0.04039577  0.3772371 0.7000
  5  -1530.3425508548  -3.636999438218 1.26208253  0.02832756  0.2601814 0.7000
                               ***Turning on DIIS***
  6  -1532.9189070721  -2.576356217324 0.88376885  0.01986116  0.1787238 0.7000
  7  -1534.7385229743  -1.819615902215 0.62060309  0.01394495  0.1220566 0.7000
  8  -1536.0207418200  -1.282218845679 1.45055324  0.03263848  0.0840449 0.0000
  9  -1539.0418035258  -3.021061705834 0.00999787  0.00040999  0.0027878 0.0000
 10  -1539.0420552754  -0.000251749535 0.00507337  0.00019193  0.0012907 0.0000
 11  -1539.0421149438  -0.000059668417 0.00545271  0.00018173  0.0007358 0.0000
               *** Restarting incremental Fock matrix formation ***
                                   *** Resetting DIIS ***
 12  -1539.0418376604   0.000277283424 0.00217138  0.00013283  0.0010463 0.0000
 13  -1539.0418627507  -0.000025090312 0.00237079  0.00006744  0.0006197 0.0000
 14  -1539.0418647741  -0.000002023459 0.00099720  0.00003158  0.0006882 0.0000
 15  -1539.0418670122  -0.000002238042 0.00045623  0.00001091  0.0002200 0.0000
 16  -1539.0418672686  -0.000000256459 0.00015110  0.00000460  0.0000737 0.0000
 17  -1539.0418673122  -0.000000043511 0.00008008  0.00000183  0.0000218 0.0000
 18  -1539.0418673215  -0.000000009354 0.00005237  0.00000118  0.0000077 0.0000
 19  -1539.0418673210   0.000000000473 0.00001813  0.00000040  0.0000027 0.0000
 20  -1539.0418673205   0.000000000522 0.00000611  0.00000013  0.0000014 0.0000
                            ***DIIS convergence achieved***

               *****************************************************
               *                     SUCCESS                       *
               *           SCF CONVERGED AFTER  21 CYCLES          *
               *****************************************************

Old exchange energy                            =    -42.083266652 Eh
New exchange energy                            =    -42.083481267 Eh
Exchange energy change after final integration =     -0.000214615 Eh
Total energy after final integration           =  -1539.042081936 Eh
Final COS-X integration done in                =     0.497 sec

----------------
TOTAL SCF ENERGY
----------------

Total Energy       :        -1539.04208194 Eh          -41879.46416 eV

Components:
Nuclear Repulsion  :          466.35304386 Eh           12690.11148 eV
Electronic Energy  :        -2005.39512579 Eh          -54569.57564 eV
One Electron Energy:        -3113.86525503 Eh          -84732.58131 eV
Two Electron Energy:         1108.47012923 Eh           30163.00567 eV
Max COSX asymmetry :            0.00001407 Eh               0.00038 eV

Virial components:
Potential Energy   :        -2996.94699331 Eh          -81551.07366 eV
Kinetic Energy     :         1457.90491137 Eh           39671.60950 eV
Virial Ratio       :            2.05565327


DFT components:
N(Alpha)           :       40.000080279086 electrons
N(Beta)            :       40.000080279086 electrons
N(Total)           :       80.000160558172 electrons
E(X)               :      -56.360463402006 Eh       
E(C)               :       -4.042691430033 Eh       
E(XC)              :      -60.403154832039 Eh       
DFET-embed. en.    :        0.000000000000 Eh       

---------------
SCF CONVERGENCE
---------------

  Last Energy change         ...   -1.8053e-10  Tolerance :   1.0000e-08
  Last MAX-Density change    ...    0.0000e+00  Tolerance :   1.0000e-07
  Last RMS-Density change    ...    0.0000e+00  Tolerance :   5.0000e-09
  Last DIIS Error            ...    8.3278e-07  Tolerance :   5.0000e-07

             **** THE GBW FILE WAS UPDATED (reaction-6-ieip_optts_Compound_1.gbw) ****
             **** DENSITY reaction-6-ieip_optts_Compound_1.scfp WAS UPDATED ****
             **** ENERGY FILE WAS UPDATED (reaction-6-ieip_optts_Compound_1.en.tmp) ****
             **** THE GBW FILE WAS UPDATED (reaction-6-ieip_optts_Compound_1.gbw) ****
             **** DENSITY reaction-6-ieip_optts_Compound_1.scfp WAS UPDATED ****
----------------
ORBITAL ENERGIES
----------------

  NO   OCC          E(Eh)            E(eV) 
   0   2.0000    -102.094149     -2778.1230 
   1   2.0000    -102.093729     -2778.1116 
   2   2.0000    -102.081166     -2777.7697 
   3   2.0000     -10.338584      -281.3272 
   4   2.0000      -9.558441      -260.0984 
   5   2.0000      -9.557891      -260.0834 
   6   2.0000      -9.545924      -259.7578 
   7   2.0000      -7.244736      -197.1393 
   8   2.0000      -7.244166      -197.1238 
   9   2.0000      -7.239255      -196.9901 
  10   2.0000      -7.238933      -196.9814 
  11   2.0000      -7.238760      -196.9767 
  12   2.0000      -7.238409      -196.9671 
  13   2.0000      -7.231736      -196.7855 
  14   2.0000      -7.227248      -196.6634 
  15   2.0000      -7.226335      -196.6386 
  16   2.0000      -3.982858      -108.3791 
  17   2.0000      -2.199588       -59.8538 
  18   2.0000      -2.186884       -59.5081 
  19   2.0000      -2.164445       -58.8975 
  20   2.0000      -0.701053       -19.0766 
  21   2.0000      -0.681780       -18.5522 
  22   2.0000      -0.676171       -18.3996 
  23   2.0000      -0.659806       -17.9542 
  24   2.0000      -0.403560       -10.9814 
  25   2.0000      -0.360203        -9.8016 
  26   2.0000      -0.339850        -9.2478 
  27   2.0000      -0.299077        -8.1383 
  28   2.0000      -0.272459        -7.4140 
  29   2.0000      -0.252692        -6.8761 
  30   2.0000      -0.247976        -6.7478 
  31   2.0000      -0.224564        -6.1107 
  32   2.0000      -0.201609        -5.4861 
  33   2.0000      -0.190396        -5.1809 
  34   2.0000      -0.180584        -4.9140 
  35   2.0000      -0.164849        -4.4858 
  36   2.0000      -0.151036        -4.1099 
  37   2.0000      -0.145918        -3.9706 
  38   2.0000      -0.141801        -3.8586 
  39   2.0000      -0.133200        -3.6245 
  40   0.0000       0.115063         3.1310 
  41   0.0000       0.143086         3.8936 
  42   0.0000       0.215058         5.8520 
  43   0.0000       0.257109         6.9963 
  44   0.0000       0.270335         7.3562 
  45   0.0000       0.272784         7.4228 
  46   0.0000       0.311114         8.4658 
  47   0.0000       0.336965         9.1693 
  48   0.0000       0.384304        10.4575 
  49   0.0000       0.411209        11.1896 
  50   0.0000       0.542809        14.7706 
  51   0.0000       0.567512        15.4428 
  52   0.0000       0.580069        15.7845 
  53   0.0000       0.586238        15.9523 
  54   0.0000       0.658110        17.9081 
  55   0.0000       0.682243        18.5648 
  56   0.0000       0.699041        19.0219 
  57   0.0000       0.787064        21.4171 
  58   0.0000       0.807395        21.9703 
  59   0.0000       0.851165        23.1614 
  60   0.0000       0.867061        23.5939 
  61   0.0000       0.931005        25.3339 
  62   0.0000       0.937253        25.5040 
  63   0.0000       0.946827        25.7645 
  64   0.0000       0.983134        26.7524 
  65   0.0000       1.006664        27.3927 
  66   0.0000       1.027424        27.9576 
  67   0.0000       1.032102        28.0849 
  68   0.0000       1.034521        28.1507 
  69   0.0000       1.038340        28.2547 
  70   0.0000       1.043099        28.3842 
  71   0.0000       1.056190        28.7404 
  72   0.0000       1.068241        29.0683 
  73   0.0000       1.069383        29.0994 
  74   0.0000       1.081720        29.4351 
  75   0.0000       1.089423        29.6447 
  76   0.0000       1.102492        30.0003 
  77   0.0000       1.122085        30.5335 
  78   0.0000       1.126782        30.6613 
  79   0.0000       1.141772        31.0692 
  80   0.0000       1.168958        31.8090 
  81   0.0000       1.205314        32.7982 
  82   0.0000       1.249456        33.9994 
  83   0.0000       1.264122        34.3985 
  84   0.0000       1.270401        34.5694 
  85   0.0000       1.282357        34.8947 
  86   0.0000       1.296392        35.2766 
  87   0.0000       1.353261        36.8241 
  88   0.0000       1.421794        38.6890 
  89   0.0000       1.473020        40.0829 
  90   0.0000       1.523318        41.4516 
  91   0.0000       1.538211        41.8568 
  92   0.0000       1.609978        43.8097 
  93   0.0000       1.614787        43.9406 
  94   0.0000       1.649382        44.8820 
  95   0.0000       1.661630        45.2153 
  96   0.0000       1.696356        46.1602 
  97   0.0000       1.829281        49.7773 
  98   0.0000       1.903417        51.7946 
  99   0.0000       1.943506        52.8855 
 100   0.0000       1.995252        54.2936 
 101   0.0000       2.018600        54.9289 
 102   0.0000       2.357760        64.1579 
 103   0.0000       2.438083        66.3436 
 104   0.0000       2.460947        66.9658 
 105   0.0000       2.568705        69.8980 
 106   0.0000      13.830222       376.3395 
 107   0.0000      51.202517      1393.2913 
 108   0.0000     282.795228      7695.2494 

                    ********************************
                    * MULLIKEN POPULATION ANALYSIS *
                    ********************************

-----------------------
MULLIKEN ATOMIC CHARGES
-----------------------
   0 Pt:    0.109755
   1 Cl:   -0.404806
   2 Cl:   -0.389464
   3 Cl:   -0.411815
   4 C :   -0.876077
   5 H :    0.260374
   6 H :    0.196736
   7 H :    0.247661
   8 H :    0.267636
Sum of atomic charges:   -1.0000000

--------------------------------
MULLIKEN REDUCED ORBITAL CHARGES
--------------------------------
  0 Pts       :     2.730176  s :     2.730176
      pz      :     2.133477  p :     6.446422
      px      :     2.162730
      py      :     2.150215
      dz2     :     1.601340  d :     8.683578
      dxz     :     1.734699
      dyz     :     1.769016
      dx2y2   :     1.775670
      dxy     :     1.802853
      f0      :     0.006662  f :     0.030069
      f+1     :     0.005214
      f-1     :     0.003746
      f+2     :     0.003253
      f-2     :     0.004713
      f+3     :     0.003975
      f-3     :     0.002507
  1 Cls       :     5.941819  s :     5.941819
      pz      :     3.637221  p :    11.446277
      px      :     3.907020
      py      :     3.902037
      dz2     :     0.006376  d :     0.016709
      dxz     :     0.004184
      dyz     :     0.004368
      dx2y2   :     0.000835
      dxy     :     0.000946
  2 Cls       :     5.940508  s :     5.940508
      pz      :     3.892874  p :    11.434658
      px      :     3.703427
      py      :     3.838358
      dz2     :     0.002094  d :     0.014298
      dxz     :     0.003680
      dyz     :     0.001583
      dx2y2   :     0.002868
      dxy     :     0.004073
  3 Cls       :     5.940840  s :     5.940840
      pz      :     3.627488  p :    11.454580
      px      :     3.913543
      py      :     3.913548
      dz2     :     0.005884  d :     0.016396
      dxz     :     0.004375
      dyz     :     0.004434
      dx2y2   :     0.000805
      dxy     :     0.000898
  4 C s       :     3.465180  s :     3.465180
      pz      :     1.136249  p :     3.375393
      px      :     1.165312
      py      :     1.073832
      dz2     :     0.004899  d :     0.035504
      dxz     :     0.010929
      dyz     :     0.006411
      dx2y2   :     0.003867
      dxy     :     0.009399
  5 H s       :     0.739626  s :     0.739626
  6 H s       :     0.803264  s :     0.803264
  7 H s       :     0.752339  s :     0.752339
  8 H s       :     0.732364  s :     0.732364


                     *******************************
                     * LOEWDIN POPULATION ANALYSIS *
                     *******************************

----------------------
LOEWDIN ATOMIC CHARGES
----------------------
   0 Pt:   -0.872757
   1 Cl:   -0.119823
   2 Cl:   -0.141286
   3 Cl:   -0.125010
   4 C :   -0.402726
   5 H :    0.148670
   6 H :    0.199468
   7 H :    0.141892
   8 H :    0.171572

-------------------------------
LOEWDIN REDUCED ORBITAL CHARGES
-------------------------------
  0 Pts       :     2.708885  s :     2.708885
      pz      :     2.344552  p :     6.905650
      px      :     2.311442
      py      :     2.249657
      dz2     :     1.749743  d :     9.209020
      dxz     :     1.849939
      dyz     :     1.882921
      dx2y2   :     1.841092
      dxy     :     1.885325
      f0      :     0.011420  f :     0.049202
      f+1     :     0.008767
      f-1     :     0.006521
      f+2     :     0.004865
      f-2     :     0.007981
      f+3     :     0.005765
      f-3     :     0.003882
  1 Cls       :     5.752983  s :     5.752983
      pz      :     3.611399  p :    11.347858
      px      :     3.872529
      py      :     3.863931
      dz2     :     0.007268  d :     0.018981
      dxz     :     0.004773
      dyz     :     0.004915
      dx2y2   :     0.000943
      dxy     :     0.001083
  2 Cls       :     5.756711  s :     5.756711
      pz      :     3.861350  p :    11.368206
      px      :     3.696914
      py      :     3.809942
      dz2     :     0.002450  d :     0.016369
      dxz     :     0.004390
      dyz     :     0.001780
      dx2y2   :     0.002901
      dxy     :     0.004849
  3 Cls       :     5.753889  s :     5.753889
      pz      :     3.610527  p :    11.352488
      px      :     3.872124
      py      :     3.869837
      dz2     :     0.006713  d :     0.018634
      dxz     :     0.005055
      dyz     :     0.005023
      dx2y2   :     0.000855
      dxy     :     0.000987
  4 C s       :     2.990649  s :     2.990649
      pz      :     1.129577  p :     3.352505
      px      :     1.145326
      py      :     1.077602
      dz2     :     0.008216  d :     0.059571
      dxz     :     0.018197
      dyz     :     0.010767
      dx2y2   :     0.006163
      dxy     :     0.016228
  5 H s       :     0.851330  s :     0.851330
  6 H s       :     0.800532  s :     0.800532
  7 H s       :     0.858108  s :     0.858108
  8 H s       :     0.828428  s :     0.828428


                      *****************************
                      * MAYER POPULATION ANALYSIS *
                      *****************************

  NA   - Mulliken gross atomic population
  ZA   - Total nuclear charge
  QA   - Mulliken gross atomic charge
  VA   - Mayer's total valence
  BVA  - Mayer's bonded valence
  FA   - Mayer's free valence

  ATOM       NA         ZA         QA         VA         BVA        FA
  0 Pt    17.8902    18.0000     0.1098     3.6276     3.6276    -0.0000
  1 Cl    17.4048    17.0000    -0.4048     0.9770     0.9770    -0.0000
  2 Cl    17.3895    17.0000    -0.3895     1.0234     1.0234    -0.0000
  3 Cl    17.4118    17.0000    -0.4118     0.9630     0.9630    -0.0000
  4 C      6.8761     6.0000    -0.8761     3.7250     3.7250     0.0000
  5 H      0.7396     1.0000     0.2604     0.8850     0.8850    -0.0000
  6 H      0.8033     1.0000     0.1967     0.9388     0.9388    -0.0000
  7 H      0.7523     1.0000     0.2477     0.8877     0.8877     0.0000
  8 H      0.7324     1.0000     0.2676     0.8846     0.8846     0.0000

  Mayer bond orders larger than 0.100000
B(  0-Pt,  1-Cl) :   0.7906 B(  0-Pt,  2-Cl) :   0.7970 B(  0-Pt,  3-Cl) :   0.7693 
B(  0-Pt,  4-C ) :   0.6460 B(  0-Pt,  6-H ) :   0.5973 B(  1-Cl,  3-Cl) :   0.1319 
B(  2-Cl,  4-C ) :   0.1097 B(  4-C ,  5-H ) :   0.8787 B(  4-C ,  6-H ) :   0.2641 
B(  4-C ,  7-H ) :   0.8919 B(  4-C ,  8-H ) :   0.8880 

-------
TIMINGS
-------

Total SCF time: 0 days 0 hours 0 min 6 sec 

Total time                  ....       6.579 sec
Sum of individual times     ....       6.389 sec  ( 97.1%)

Fock matrix formation       ....       5.955 sec  ( 90.5%)
  Split-RI-J                ....       0.716 sec  ( 12.0% of F)
  Chain of spheres X        ....       4.423 sec  ( 74.3% of F)
  XC integration            ....       0.773 sec  ( 13.0% of F)
    Basis function eval.    ....       0.253 sec  ( 32.7% of XC)
    Density eval.           ....       0.112 sec  ( 14.5% of XC)
    XC-Functional eval.     ....       0.095 sec  ( 12.2% of XC)
    XC-Potential eval.      ....       0.128 sec  ( 16.6% of XC)
Diagonalization             ....       0.077 sec  (  1.2%)
Density matrix formation    ....       0.004 sec  (  0.1%)
Population analysis         ....       0.004 sec  (  0.1%)
Initial guess               ....       0.003 sec  (  0.0%)
Orbital Transformation      ....       0.000 sec  (  0.0%)
Orbital Orthonormalization  ....       0.000 sec  (  0.0%)
DIIS solution               ....       0.066 sec  (  1.0%)
Grid generation             ....       0.281 sec  (  4.3%)

Maximum memory used throughout the entire SCF-calculation: 61.9 MB


-------------------------------------------------------------------------------
                          DFT DISPERSION CORRECTION                            
                                                                               
                              DFTD3 V3.1  Rev 1                                
                          USING Becke-Johnson damping                          
-------------------------------------------------------------------------------
The PBEh-3c composite method is recognized
Using three-body term ABC
Active option DFTDOPT                   ...         4   

molecular C6(AA) [au] = 3370.741812 


            DFT-D V3
 parameters
 s6 scaling factor         :     1.0000 
 a1 scaling factor         :     0.4860 
 s8 scaling factor         :     0.0000 
 a2 scaling factor         :     4.5000 
 Damping factor alpha9(ATM):    16.0000 
 ad hoc parameters k1-k3   :    16.0000     1.3333    -4.0000 

 Edisp/kcal,au: -3.353563634369  -0.005344243259 
 E6   /kcal   :  -3.362838651 
 E8   /kcal   :  -0.000000000 
 E6(ABC)      :   0.009275016 
 % E8         :   0.000000000 
 % E6(ABC)    :  -0.276571949 

-------------------------   ----------------
Dispersion correction           -0.005344243
-------------------------   ----------------

 ** NOTE ** -> element pt will be treated as ni
NOTIFICATION: Different basis set in ORCA and otool_gcp:
ORCA: 109  gCP: 108 
If you are NOT using ECPs, check your basis set inputs!
------------------   -----------------
gCP correction             0.020689089
------------------   -----------------

-------------------------   --------------------
FINAL SINGLE POINT ENERGY     -1539.026737090559
-------------------------   --------------------



           ************************************************************
           *        Program running with 8 parallel MPI-processes     *
           *              working on a common directory               *
           ************************************************************
------------------------------------------------------------------------------
                         ORCA SCF GRADIENT CALCULATION
------------------------------------------------------------------------------

 ... reading COSX grid (gridx3)
Gradient of the Kohn-Sham DFT energy:
Kohn-Sham wavefunction type      ... RKS
Hartree-Fock exchange scaling    ...    0.420
Number of operators              ...    1
Number of atoms                  ...    9
Basis set dimensions             ...  109
Integral neglect threshold       ... 2.5e-11
Integral primitive cutoff        ... 2.5e-12
SHARK Integral package           ... ON

Nuc. rep. gradient       (SHARK) ... done (  0.0 sec)
HCore & Overlap gradient (SHARK) ... done (  0.0 sec)
ECP gradient             (SHARK) ... done (  0.3 sec)
RI-J gradient            (SHARK) ... done (  0.2 sec)
COSX-gradient                    ... done (  0.6 sec)
Exchange-correlation gradient    ... done
Dispersion correction            ... done
gCP correction                   ... done

------------------
CARTESIAN GRADIENT
------------------

   1   Pt  :   -0.001085804   -0.001172379    0.000724625
   2   Cl  :   -0.000001193   -0.000759059    0.000312880
   3   Cl  :    0.000107702   -0.000484230   -0.000088501
   4   Cl  :   -0.000445214    0.000543320    0.000275517
   5   C   :    0.001933328    0.000272667   -0.000130535
   6   H   :   -0.000488205    0.001220127   -0.001118971
   7   H   :    0.000267262   -0.000010337    0.000783747
   8   H   :    0.000043886    0.000371773   -0.000134588
   9   H   :   -0.000049912   -0.000407881   -0.000508982

Difference to translation invariance:
           :    0.0002818499   -0.0004260006    0.0001151919

Difference to rotation invariance:
           :    0.0008111634    0.0013942672    0.0027816672

Norm of the cartesian gradient     ...    0.0035575394
RMS gradient                       ...    0.0006846488
MAX gradient                       ...    0.0019333281

-------
TIMINGS
-------

Total SCF gradient time            ...        1.510 sec

One electron gradient       ....       0.326 sec  ( 21.6%)
RI-J Coulomb gradient       ....       0.176 sec  ( 11.7%)
COSX gradient               ....       0.561 sec  ( 37.2%)
XC gradient                 ....       0.129 sec  (  8.5%)

Maximum memory used throughout the entire SCFGRAD-calculation: 36.8 MB


           ************************************************************
           *        Program running with 8 parallel MPI-processes     *
           *              working on a common directory               *
           ************************************************************

-------------------------------------------------------------------------------
                               ORCA SCF HESSIAN
-------------------------------------------------------------------------------

                   --------- SHARK INITIALIZATION DONE ---------

Hessian of the Kohn-Sham DFT energy:
Kohn-Sham wavefunction type                      ... RKS
Hartree-Fock exchange scaling                    ...    0.420
Number of operators                              ...    1
Number of atoms                                  ...    9
Basis set dimensions                             ...  109
Integral neglect threshold                       ... 2.5e-11
Integral primitive cutoff                        ... 2.5e-12

Setting up DFT Hessian calculations              ... 

HESS GRID
---------

General Integration Accuracy     IntAcc      ... 4.388
Radial Grid Type                 RadialGrid  ... OptM3 with GC (2021)
Angular Grid (max. ang.)         AngularGrid ... 4 (Lebedev-302)
Angular grid pruning method      GridPruning ... 4 (adaptive)
Weight generation scheme         WeightScheme... Becke
Basis function cutoff            BFCut       ... 1.0000e-11
Integration weight cutoff        WCut        ... 1.0000e-14
Angular grids for H and He will be reduced by one unit
Partially contracted basis set               ... off
Rotationally invariant grid construction     ... off

Total number of grid points                  ...    52485
Total number of batches                      ...      825
Average number of points per batch           ...       63
Average number of grid points per atom       ...     5832

Building densities                               ... done   (      0.0 sec)
Calculating rho(r) on the grid                   ... done   (      0.0 sec)
Building xc-kernel on the grid                   ... done   (      0.0 sec)
                                                     done   (      0.4 sec)

Nuclear repulsion Hessian  (SHARK)               ... done   (      0.0 sec)

----------------------------------------------
Forming right-hand sides of CP-SCF equations     ...
----------------------------------------------
One electron integral derivatives  (SHARK)       ... done   (      0.0 sec)
Transforming the overlap derivative matrices     ... done   (      0.0 sec)
Making the Q(x) pseudodensities                  ... done   (      0.0 sec)
Adding the E*S(x)*S(y) terms to the Hessian      ... done   (      0.0 sec)
Calculating energy weighted overlap derivatives  ... done   (      0.0 sec)
F(y): ECP integral derivatives                   ... done   (      0.8 sec)
Two electron integral derivatives (SHARK-RI)     ... done   (      1.6 sec)
Exchange-correlation integral derivatives        ... done   (      1.9 sec)
tr(F(y)Q(x)) contribution to the Hessian         ... done   (      0.0 sec)
Response fock operator R(S(x)) (SHARK-RI)        ... done   (      0.8 sec)
XC Response fock operator R(S(x))                ... done   (      0.6 sec)
tr(F(y)S(x)) contribution to the Hessian         ... done   (      0.0 sec)
Transforming and finalizing RHSs                 ... done   (      0.0 sec)

----------------------------------------------
Solving the CP-SCF equations (RI)                ...
----------------------------------------------
     CP-SCF ITERATION   0:   1.4905e-01 (   0.5 sec   0/ 27 done)
     CP-SCF ITERATION   1:   3.4606e-02 (   0.5 sec   0/ 27 done)
     CP-SCF ITERATION   2:   1.8009e-02 (   0.5 sec   0/ 27 done)
     CP-SCF ITERATION   3:   7.5576e-03 (   0.5 sec   0/ 27 done)
     CP-SCF ITERATION   4:   3.0076e-03 (   0.5 sec   0/ 27 done)
     CP-SCF ITERATION   5:   1.4270e-03 (   0.5 sec   0/ 27 done)
     CP-SCF ITERATION   6:   3.7426e-04 (   0.5 sec  11/ 27 done)
     CP-SCF ITERATION   7:   1.1417e-04 (   0.5 sec  25/ 27 done)
     CP-SCF ITERATION   8:   3.3762e-05 (   0.2 sec  27/ 27 done)
                    *** THE CP-SCF HAS CONVERGED ***

                                                 ... done   (      4.6 sec)
Forming perturbed density Hessian contributions  ... done   (      0.0 sec)
2nd integral derivative contribs (SHARK-RI)      ... done   (      4.5 sec)
Exchange-correlation Hessian                     ... done   (      1.7 sec)
ECP integral 2nd derivatives                     ... done   (      2.4 sec)
Dispersion correction in the Hessian             ... done   (      0.3 sec)
gCP correction in the Hessian                    ... done   (      0.0 sec)
Dipole derivatives                               ... (center of mass: -1.290464, -1.315006  0.882289)done   (      0.1 sec)

Total SCF Hessian time: 0 days 0 hours 0 min 20 sec 

Writing the Hessian file to the disk             ... done


Maximum memory used throughout the entire SCFHESS-calculation: 67.2 MB

-----------------------
VIBRATIONAL FREQUENCIES
-----------------------

Scaling factor for frequencies =  1.000000000  (already applied!)

   0:         0.00 cm**-1
   1:         0.00 cm**-1
   2:         0.00 cm**-1
   3:         0.00 cm**-1
   4:         0.00 cm**-1
   5:         0.00 cm**-1
   6:      -712.00 cm**-1 ***imaginary mode***
   7:       101.37 cm**-1
   8:       113.19 cm**-1
   9:       150.00 cm**-1
  10:       150.35 cm**-1
  11:       155.19 cm**-1
  12:       199.80 cm**-1
  13:       329.47 cm**-1
  14:       338.28 cm**-1
  15:       347.51 cm**-1
  16:       559.33 cm**-1
  17:       671.00 cm**-1
  18:       977.39 cm**-1
  19:      1033.70 cm**-1
  20:      1364.09 cm**-1
  21:      1524.38 cm**-1
  22:      1535.59 cm**-1
  23:      2443.23 cm**-1
  24:      3123.66 cm**-1
  25:      3207.03 cm**-1
  26:      3249.31 cm**-1


------------
NORMAL MODES
------------

These modes are the Cartesian displacements weighted by the diagonal matrix
M(i,i)=1/sqrt(m[i]) where m[i] is the mass of the displaced atom
Thus, these vectors are normalized but *not* orthogonal

                  0          1          2          3          4          5    
      0       0.000000   0.000000   0.000000   0.000000   0.000000   0.000000
      1       0.000000   0.000000   0.000000   0.000000   0.000000   0.000000
      2       0.000000   0.000000   0.000000   0.000000   0.000000   0.000000
      3       0.000000   0.000000   0.000000   0.000000   0.000000   0.000000
      4       0.000000   0.000000   0.000000   0.000000   0.000000   0.000000
      5       0.000000   0.000000   0.000000   0.000000   0.000000   0.000000
      6       0.000000   0.000000   0.000000   0.000000   0.000000   0.000000
      7       0.000000   0.000000   0.000000   0.000000   0.000000   0.000000
      8       0.000000   0.000000   0.000000   0.000000   0.000000   0.000000
      9       0.000000   0.000000   0.000000   0.000000   0.000000   0.000000
     10       0.000000   0.000000   0.000000   0.000000   0.000000   0.000000
     11       0.000000   0.000000   0.000000   0.000000   0.000000   0.000000
     12       0.000000   0.000000   0.000000   0.000000   0.000000   0.000000
     13       0.000000   0.000000   0.000000   0.000000   0.000000   0.000000
     14       0.000000   0.000000   0.000000   0.000000   0.000000   0.000000
     15       0.000000   0.000000   0.000000   0.000000   0.000000   0.000000
     16       0.000000   0.000000   0.000000   0.000000   0.000000   0.000000
     17       0.000000   0.000000   0.000000   0.000000   0.000000   0.000000
     18       0.000000   0.000000   0.000000   0.000000   0.000000   0.000000
     19       0.000000   0.000000   0.000000   0.000000   0.000000   0.000000
     20       0.000000   0.000000   0.000000   0.000000   0.000000   0.000000
     21       0.000000   0.000000   0.000000   0.000000   0.000000   0.000000
     22       0.000000   0.000000   0.000000   0.000000   0.000000   0.000000
     23       0.000000   0.000000   0.000000   0.000000   0.000000   0.000000
     24       0.000000   0.000000   0.000000   0.000000   0.000000   0.000000
     25       0.000000   0.000000   0.000000   0.000000   0.000000   0.000000
     26       0.000000   0.000000   0.000000   0.000000   0.000000   0.000000
                  6          7          8          9         10         11    
      0      -0.008731  -0.013563  -0.005167   0.063439   0.020266   0.122193
      1      -0.004152   0.016859   0.012440  -0.053307  -0.091605   0.037075
      2       0.004225  -0.002293   0.000606   0.032821  -0.011109  -0.070824
      3       0.001231   0.110241   0.021187   0.047428  -0.105257  -0.492185
      4       0.000099  -0.129491  -0.050911   0.141873   0.062194  -0.281980
      5       0.000416   0.006128   0.011694  -0.006582  -0.033648   0.203529
      6       0.011078  -0.061523  -0.000560  -0.128240  -0.005811   0.165595
      7       0.001254   0.097821   0.006560   0.046514   0.179664   0.188224
      8      -0.003684  -0.013878   0.003400  -0.264948   0.245644   0.081922
      9      -0.000031   0.117264   0.016615  -0.167747   0.111059  -0.329544
     10      -0.000594  -0.146369  -0.024962   0.027002   0.193461  -0.187718
     11      -0.001802   0.007554   0.001607   0.092012  -0.154444   0.142070
     12       0.099058  -0.202287  -0.022711  -0.226315  -0.249338  -0.038001
     13      -0.017324   0.178734   0.004402   0.160128   0.141567   0.160746
     14      -0.018921   0.032023  -0.044261   0.001186   0.014160  -0.082363
     15       0.038430   0.033972  -0.444177  -0.478671  -0.498425   0.061610
     16       0.095673   0.046939   0.296292   0.399867   0.321600   0.147995
     17      -0.050162  -0.085797   0.124091   0.052970   0.106923  -0.160810
     18       0.028266  -0.022794  -0.003987   0.069015   0.009383   0.132407
     19       0.880891   0.230850   0.010579   0.275637   0.211967   0.228520
     20      -0.333966  -0.089150   0.021082  -0.039074  -0.132679  -0.116350
     21       0.074296  -0.517289   0.449728  -0.027102  -0.050898  -0.184502
     22       0.183274   0.329586  -0.055309   0.286850   0.312080   0.278053
     23      -0.095946  -0.204376   0.261980   0.086647   0.087161  -0.206657
     24      -0.063253  -0.296297  -0.040881  -0.402492  -0.411006  -0.128856
     25      -0.176424   0.261945  -0.273879  -0.128919  -0.114043   0.154400
     26       0.066221   0.448363  -0.584386  -0.152964  -0.104377   0.135992
                 12         13         14         15         16         17    
      0      -0.006030   0.066292   0.093708  -0.090530   0.019774   0.002157
      1      -0.006737   0.027407   0.083689  -0.043045   0.028065   0.002588
      2      -0.024617  -0.050578   0.211205   0.070450  -0.017297   0.005910
      3       0.020385  -0.142397  -0.179399  -0.116392  -0.001860  -0.006424
      4       0.033938  -0.134126  -0.181306  -0.121990  -0.001263   0.001711
      5      -0.045604  -0.419402  -0.607534  -0.445772  -0.002112   0.006689
      6       0.009710  -0.414082  -0.138551   0.532697  -0.003516  -0.002209
      7       0.012812  -0.227015  -0.086343   0.301685  -0.006537  -0.002844
      8       0.030651   0.207864   0.017870  -0.268462   0.003867  -0.006720
      9      -0.043647   0.163024  -0.207846   0.118833   0.001021   0.007349
     10      -0.059048   0.160491  -0.201508   0.106420   0.003535   0.000368
     11       0.008652   0.526129  -0.585516   0.301991   0.006703   0.001271
     12       0.104901   0.069710   0.026736  -0.090085  -0.237436  -0.013775
     13       0.112955   0.098383   0.019159  -0.094418  -0.399990  -0.016332
     14       0.321535  -0.077382   0.039271   0.053285   0.220834  -0.037849
     15      -0.113344   0.030042   0.093879  -0.079174  -0.297045  -0.071917
     16       0.017318   0.129887   0.112714  -0.095224  -0.202435  -0.203956
     17       0.588955  -0.065827  -0.086997   0.047539   0.137216   0.148926
     18      -0.020018   0.050828   0.038745  -0.076805   0.023660  -0.240492
     19      -0.045492   0.287826   0.070566  -0.319368   0.294348  -0.320446
     20      -0.065547  -0.138793   0.024342   0.109345  -0.083524  -0.844314
     21       0.375040   0.078477  -0.066489  -0.051824  -0.238552   0.090230
     22       0.304738   0.128810  -0.060907  -0.152947  -0.121952   0.209628
     23       0.430034  -0.081914   0.007249   0.092755   0.127189  -0.044492
     24       0.152060   0.018197  -0.028040  -0.019160  -0.332792   0.014064
     25       0.113951   0.033912  -0.046970  -0.039617  -0.485475   0.035374
     26       0.201283  -0.067173   0.043464  -0.020360   0.237982   0.003348
                 18         19         20         21         22         23    
      0      -0.003362   0.000740   0.001082   0.000344   0.000347  -0.004299
      1       0.001602  -0.001867   0.000956  -0.000285  -0.000073   0.000596
      2      -0.001053  -0.002424  -0.000758   0.000253  -0.000272   0.000990
      3       0.000457  -0.000290  -0.000379  -0.000130   0.000010   0.000152
      4       0.000161   0.001426  -0.000291  -0.000175   0.000067   0.000008
      5       0.000369   0.001425   0.000013   0.000036   0.000236   0.000037
      6       0.000947  -0.000145   0.001118   0.000142   0.000052  -0.000599
      7      -0.001503   0.001252   0.000343   0.000294   0.000148  -0.001123
      8       0.000525   0.000289  -0.000426  -0.000216  -0.000052   0.000581
      9       0.000703   0.000252  -0.000227  -0.000238   0.000031   0.000059
     10       0.000001  -0.000578  -0.000158  -0.000154   0.000045  -0.000048
     11       0.001016   0.001180   0.000396  -0.000075  -0.000011  -0.000083
     12       0.098219  -0.011976   0.028464   0.064710   0.001487  -0.008660
     13       0.003449   0.043669   0.093411  -0.020743  -0.024271   0.004704
     14       0.019950   0.113076  -0.035623   0.009198  -0.052270   0.001128
     15      -0.053405   0.297534  -0.043009  -0.511765  -0.281843  -0.008789
     16       0.425775   0.324797  -0.440822   0.208779   0.386773  -0.017146
     17      -0.162831  -0.384572   0.398929   0.357570  -0.074483   0.018077
     18       0.030094  -0.131999  -0.043270  -0.016908  -0.060405   0.959518
     19      -0.391751   0.016070   0.078262   0.022391   0.010440  -0.088742
     20      -0.003955  -0.378510  -0.027330  -0.016765  -0.107709  -0.249651
     21      -0.140579  -0.249801  -0.122083  -0.557881   0.238890  -0.004450
     22       0.201463  -0.532505  -0.583019  -0.107350  -0.402743  -0.073200
     23      -0.175411   0.118440   0.087068  -0.344129   0.232422   0.020136
     24      -0.429797   0.090259  -0.358229   0.256826   0.015285   0.002697
     25      -0.539397  -0.041168  -0.348716   0.179766   0.299725   0.048619
     26       0.241016  -0.335331   0.113137  -0.146375   0.619178  -0.012340
                 24         25         26    
      0      -0.000018  -0.000048  -0.000043
      1       0.000093   0.000025  -0.000000
      2      -0.000028   0.000007  -0.000016
      3      -0.000009   0.000012   0.000047
      4      -0.000037   0.000005   0.000070
      5       0.000009   0.000015   0.000051
      6       0.000041   0.000013  -0.000005
      7      -0.000007   0.000017  -0.000011
      8      -0.000017  -0.000011   0.000001
      9      -0.000013   0.000004   0.000009
     10      -0.000052  -0.000034  -0.000022
     11       0.000026  -0.000062   0.000053
     12       0.002272  -0.076873  -0.043439
     13       0.037887   0.042791  -0.028771
     14      -0.027179   0.027692  -0.078104
     15      -0.273547   0.053347   0.523441
     16      -0.211794   0.063489   0.416280
     17      -0.305358   0.079993   0.573643
     18       0.018251   0.011297   0.006329
     19       0.000405  -0.003244  -0.000111
     20      -0.005179   0.001868  -0.006892
     21      -0.291258   0.364121  -0.204021
     22       0.148659  -0.177644   0.094522
     23       0.457117  -0.609460   0.304617
     24       0.522343   0.495586   0.198368
     25      -0.403319  -0.396891  -0.169123
     26       0.182035   0.198407   0.058725


-----------
IR SPECTRUM
-----------

 Mode   freq       eps      Int      T**2         TX        TY        TZ
       cm**-1   L/(mol*cm) km/mol    a.u.
----------------------------------------------------------------------------
  7:    101.37   0.000686    3.47  0.002113  (-0.019291  0.041093 -0.007214)
  8:    113.19   0.000055    0.28  0.000151  (-0.005244  0.007293 -0.008399)
  9:    150.00   0.000079    0.40  0.000165  ( 0.009952  0.001106 -0.008055)
 10:    150.35   0.000026    0.13  0.000054  ( 0.007004 -0.000902  0.002105)
 11:    155.19   0.000150    0.76  0.000301  ( 0.012214  0.010299 -0.006765)
 12:    199.80   0.000302    1.53  0.000472  ( 0.007288  0.006254  0.019489)
 13:    329.47   0.004115   20.80  0.003898  ( 0.041394  0.028658 -0.036917)
 14:    338.28   0.015441   78.03  0.014245  ( 0.044886  0.040728  0.102815)
 15:    347.51   0.005961   30.12  0.005353  (-0.047800 -0.035388  0.042612)
 16:    559.33   0.002001   10.11  0.001117  ( 0.023576  0.017626 -0.015812)
 17:    671.00   0.003559   17.99  0.001655  (-0.011260 -0.011456 -0.037380)
 18:    977.39   0.001941    9.81  0.000620  (-0.024713 -0.002902 -0.000655)
 19:   1033.70   0.001941    9.81  0.000586  ( 0.005087 -0.004594 -0.023213)
 20:   1364.09   0.002730   13.80  0.000625  ( 0.018528  0.013440 -0.010031)
 21:   1524.38   0.000836    4.22  0.000171  (-0.012235  0.003078 -0.003456)
 22:   1535.59   0.000758    3.83  0.000154  ( 0.002647  0.006988  0.009907)
 23:   2443.23   0.000505    2.55  0.000064  ( 0.007275 -0.003265 -0.000941)
 24:   3123.66   0.004559   23.04  0.000456  ( 0.012484  0.013571 -0.010746)
 25:   3207.03   0.002050   10.36  0.000199  (-0.011220 -0.001007  0.008520)
 26:   3249.31   0.001898    9.59  0.000182  (-0.006938 -0.007470 -0.008849)

* The epsilon (eps) is given for a Dirac delta lineshape.
** The dipole moment derivative (T) already includes vibrational overlap.

The first frequency considered to be a vibration is 7
The total number of vibrations considered is 20


--------------------------
THERMOCHEMISTRY AT 298.15K
--------------------------

Temperature         ... 298.15 K
Pressure            ... 1.00 atm
Total Mass          ... 317.49 AMU

Throughout the following assumptions are being made:
  (1) The electronic state is orbitally nondegenerate
  (2) There are no thermally accessible electronically excited states
  (3) Hindered rotations indicated by low frequency modes are not
      treated as such but are treated as vibrations and this may
      cause some error
  (4) All equations used are the standard statistical mechanics
      equations for an ideal gas
  (5) All vibrations are strictly harmonic

freq.     101.37  E(vib)   ...       0.46 
freq.     113.19  E(vib)   ...       0.45 
freq.     150.00  E(vib)   ...       0.40 
freq.     150.35  E(vib)   ...       0.40 
freq.     155.19  E(vib)   ...       0.40 
freq.     199.80  E(vib)   ...       0.35 
freq.     329.47  E(vib)   ...       0.24 
freq.     338.28  E(vib)   ...       0.23 
freq.     347.51  E(vib)   ...       0.23 
freq.     559.33  E(vib)   ...       0.12 
freq.     671.00  E(vib)   ...       0.08 
freq.     977.39  E(vib)   ...       0.03 
freq.    1033.70  E(vib)   ...       0.02 
freq.    1364.09  E(vib)   ...       0.01 
freq.    1524.38  E(vib)   ...       0.00 
freq.    1535.59  E(vib)   ...       0.00 
freq.    2443.23  E(vib)   ...       0.00 
freq.    3123.66  E(vib)   ...       0.00 
freq.    3207.03  E(vib)   ...       0.00 
freq.    3249.31  E(vib)   ...       0.00 

------------
INNER ENERGY
------------

The inner energy is: U= E(el) + E(ZPE) + E(vib) + E(rot) + E(trans)
    E(el)   - is the total energy from the electronic structure calculation
              = E(kin-el) + E(nuc-el) + E(el-el) + E(nuc-nuc)
    E(ZPE)  - the the zero temperature vibrational energy from the frequency calculation
    E(vib)  - the the finite temperature correction to E(ZPE) due to population
              of excited vibrational states
    E(rot)  - is the rotational thermal energy
    E(trans)- is the translational thermal energy

Summary of contributions to the inner energy U:
Electronic energy                ...  -1539.02673709 Eh
Zero point energy                ...      0.04914893 Eh      30.84 kcal/mol
Thermal vibrational correction   ...      0.00544500 Eh       3.42 kcal/mol
Thermal rotational correction    ...      0.00141627 Eh       0.89 kcal/mol
[...]
ORCA: 109  gCP: 108 
If you are NOT using ECPs, check your basis set inputs!
 ** NOTE ** -> element pt will be treated as ni
NOTIFICATION: Different basis set in ORCA and otool_gcp:
ORCA: 109  gCP: 108 
If you are NOT using ECPs, check your basis set inputs!
 ** NOTE ** -> element pt will be treated as ni
NOTIFICATION: Different basis set in ORCA and otool_gcp:
ORCA: 109  gCP: 108 
If you are NOT using ECPs, check your basis set inputs!
   24     -1539.045219   -11.305730    0.001395  0.000523
 ** NOTE ** -> element pt will be treated as ni
NOTIFICATION: Different basis set in ORCA and otool_gcp:
ORCA: 109  gCP: 108 
If you are NOT using ECPs, check your basis set inputs!
 ** NOTE ** -> element pt will be treated as ni
NOTIFICATION: Different basis set in ORCA and otool_gcp:
ORCA: 109  gCP: 108 
If you are NOT using ECPs, check your basis set inputs!
 ** NOTE ** -> element pt will be treated as ni
NOTIFICATION: Different basis set in ORCA and otool_gcp:
ORCA: 109  gCP: 108 
If you are NOT using ECPs, check your basis set inputs!
 ** NOTE ** -> element pt will be treated as ni
NOTIFICATION: Different basis set in ORCA and otool_gcp:
ORCA: 109  gCP: 108 
If you are NOT using ECPs, check your basis set inputs!
   25     -1539.045295   -11.353110    0.001243  0.000503
 ** NOTE ** -> element pt will be treated as ni
NOTIFICATION: Different basis set in ORCA and otool_gcp:
ORCA: 109  gCP: 108 
If you are NOT using ECPs, check your basis set inputs!
 ** NOTE ** -> element pt will be treated as ni
NOTIFICATION: Different basis set in ORCA and otool_gcp:
ORCA: 109  gCP: 108 
If you are NOT using ECPs, check your basis set inputs!
 ** NOTE ** -> element pt will be treated as ni
NOTIFICATION: Different basis set in ORCA and otool_gcp:
ORCA: 109  gCP: 108 
If you are NOT using ECPs, check your basis set inputs!
 ** NOTE ** -> element pt will be treated as ni
NOTIFICATION: Different basis set in ORCA and otool_gcp:
ORCA: 109  gCP: 108 
If you are NOT using ECPs, check your basis set inputs!
   26     -1539.045363   -11.396007    0.001407  0.000498

                      ***********************HURRAY********************
                      ***            THE IRC HAS CONVERGED          ***
                      *************************************************


         *************************************************************
         *                          BACKWARD IRC                     *
         *************************************************************

 ** NOTE ** -> element pt will be treated as ni
NOTIFICATION: Different basis set in ORCA and otool_gcp:
ORCA: 109  gCP: 108 
If you are NOT using ECPs, check your basis set inputs!
Iteration    E(Eh)      dE(kcal/mol)  max(|G|)   RMS(G) 
Convergence thresholds                0.002000  0.000500            
    0     -1539.028503   -0.816124    0.012894  0.003229
 ** NOTE ** -> element pt will be treated as ni
NOTIFICATION: Different basis set in ORCA and otool_gcp:
ORCA: 109  gCP: 108 
If you are NOT using ECPs, check your basis set inputs!
 ** NOTE ** -> element pt will be treated as ni
NOTIFICATION: Different basis set in ORCA and otool_gcp:
ORCA: 109  gCP: 108 
If you are NOT using ECPs, check your basis set inputs!
 ** NOTE ** -> element pt will be treated as ni
NOTIFICATION: Different basis set in ORCA and otool_gcp:
ORCA: 109  gCP: 108 
If you are NOT using ECPs, check your basis set inputs!
 ** NOTE ** -> element pt will be treated as ni
NOTIFICATION: Different basis set in ORCA and otool_gcp:
ORCA: 109  gCP: 108 
If you are NOT using ECPs, check your basis set inputs!
 ** NOTE ** -> element pt will be treated as ni
NOTIFICATION: Different basis set in ORCA and otool_gcp:
ORCA: 109  gCP: 108 
If you are NOT using ECPs, check your basis set inputs!
 ** NOTE ** -> element pt will be treated as ni
NOTIFICATION: Different basis set in ORCA and otool_gcp:
ORCA: 109  gCP: 108 
If you are NOT using ECPs, check your basis set inputs!
    1     -1539.028789   -0.995760    0.006853  0.001965
 ** NOTE ** -> element pt will be treated as ni
NOTIFICATION: Different basis set in ORCA and otool_gcp:
ORCA: 109  gCP: 108 
If you are NOT using ECPs, check your basis set inputs!
 ** NOTE ** -> element pt will be treated as ni
NOTIFICATION: Different basis set in ORCA and otool_gcp:
ORCA: 109  gCP: 108 
If you are NOT using ECPs, check your basis set inputs!
 ** NOTE ** -> element pt will be treated as ni
NOTIFICATION: Different basis set in ORCA and otool_gcp:
ORCA: 109  gCP: 108 
If you are NOT using ECPs, check your basis set inputs!
 ** NOTE ** -> element pt will be treated as ni
NOTIFICATION: Different basis set in ORCA and otool_gcp:
ORCA: 109  gCP: 108 
If you are NOT using ECPs, check your basis set inputs!
 ** NOTE ** -> element pt will be treated as ni
NOTIFICATION: Different basis set in ORCA and otool_gcp:
ORCA: 109  gCP: 108 
If you are NOT using ECPs, check your basis set inputs!
 ** NOTE ** -> element pt will be treated as ni
NOTIFICATION: Different basis set in ORCA and otool_gcp:
ORCA: 109  gCP: 108 
If you are NOT using ECPs, check your basis set inputs!
    2     -1539.028997   -1.126431    0.004871  0.001477
 ** NOTE ** -> element pt will be treated as ni
NOTIFICATION: Different basis set in ORCA and otool_gcp:
ORCA: 109  gCP: 108 
If you are NOT using ECPs, check your basis set inputs!
 ** NOTE ** -> element pt will be treated as ni
NOTIFICATION: Different basis set in ORCA and otool_gcp:
ORCA: 109  gCP: 108 
If you are NOT using ECPs, check your basis set inputs!
 ** NOTE ** -> element pt will be treated as ni
NOTIFICATION: Different basis set in ORCA and otool_gcp:
ORCA: 109  gCP: 108 
If you are NOT using ECPs, check your basis set inputs!
 ** NOTE ** -> element pt will be treated as ni
NOTIFICATION: Different basis set in ORCA and otool_gcp:
ORCA: 109  gCP: 108 
If you are NOT using ECPs, check your basis set inputs!
    3     -1539.029234   -1.274644    0.005248  0.001327
 ** NOTE ** -> element pt will be treated as ni
NOTIFICATION: Different basis set in ORCA and otool_gcp:
ORCA: 109  gCP: 108 
If you are NOT using ECPs, check your basis set inputs!
 ** NOTE ** -> element pt will be treated as ni
NOTIFICATION: Different basis set in ORCA and otool_gcp:
ORCA: 109  gCP: 108 
If you are NOT using ECPs, check your basis set inputs!
 ** NOTE ** -> element pt will be treated as ni
NOTIFICATION: Different basis set in ORCA and otool_gcp:
ORCA: 109  gCP: 108 
If you are NOT using ECPs, check your basis set inputs!
 ** NOTE ** -> element pt will be treated as ni
NOTIFICATION: Different basis set in ORCA and otool_gcp:
ORCA: 109  gCP: 108 
If you are NOT using ECPs, check your basis set inputs!
    4     -1539.029477   -1.427223    0.005130  0.001286
 ** NOTE ** -> element pt will be treated as ni
NOTIFICATION: Different basis set in ORCA and otool_gcp:
ORCA: 109  gCP: 108 
If you are NOT using ECPs, check your basis set inputs!
 ** NOTE ** -> element pt will be treated as ni
NOTIFICATION: Different basis set in ORCA and otool_gcp:
ORCA: 109  gCP: 108 
If you are NOT using ECPs, check your basis set inputs!
 ** NOTE ** -> element pt will be treated as ni
NOTIFICATION: Different basis set in ORCA and otool_gcp:
ORCA: 109  gCP: 108 
If you are NOT using ECPs, check your basis set inputs!
 ** NOTE ** -> element pt will be treated as ni
NOTIFICATION: Different basis set in ORCA and otool_gcp:
ORCA: 109  gCP: 108 
If you are NOT using ECPs, check your basis set inputs!
    5     -1539.029715   -1.576560    0.005166  0.001251
 ** NOTE ** -> element pt will be treated as ni
NOTIFICATION: Different basis set in ORCA and otool_gcp:
ORCA: 109  gCP: 108 
If you are NOT using ECPs, check your basis set inputs!
 ** NOTE ** -> element pt will be treated as ni
NOTIFICATION: Different basis set in ORCA and otool_gcp:
ORCA: 109  gCP: 108 
If you are NOT using ECPs, check your basis set inputs!
 ** NOTE ** -> element pt will be treated as ni
NOTIFICATION: Different basis set in ORCA and otool_gcp:
ORCA: 109  gCP: 108 
If you are NOT using ECPs, check your basis set inputs!
 ** NOTE ** -> element pt will be treated as ni
NOTIFICATION: Different basis set in ORCA and otool_gcp:
ORCA: 109  gCP: 108 
If you are NOT using ECPs, check your basis set inputs!
    6     -1539.029942   -1.719505    0.004844  0.001200
 ** NOTE ** -> element pt will be treated as ni
NOTIFICATION: Different basis set in ORCA and otool_gcp:
ORCA: 109  gCP: 108 
If you are NOT using ECPs, check your basis set inputs!
 ** NOTE ** -> element pt will be treated as ni
NOTIFICATION: Different basis set in ORCA and otool_gcp:
ORCA: 109  gCP: 108 
If you are NOT using ECPs, check your basis set inputs!
 ** NOTE ** -> element pt will be treated as ni
NOTIFICATION: Different basis set in ORCA and otool_gcp:
ORCA: 109  gCP: 108 
If you are NOT using ECPs, check your basis set inputs!
 ** NOTE ** -> element pt will be treated as ni
NOTIFICATION: Different basis set in ORCA and otool_gcp:
ORCA: 109  gCP: 108 
If you are NOT using ECPs, check your basis set inputs!
    7     -1539.030160   -1.856299    0.004819  0.001150
 ** NOTE ** -> element pt will be treated as ni
NOTIFICATION: Different basis set in ORCA and otool_gcp:
ORCA: 109  gCP: 108 
If you are NOT using ECPs, check your basis set inputs!
 ** NOTE ** -> element pt will be treated as ni
NOTIFICATION: Different basis set in ORCA and otool_gcp:
ORCA: 109  gCP: 108 
If you are NOT using ECPs, check your basis set inputs!
 ** NOTE ** -> element pt will be treated as ni
NOTIFICATION: Different basis set in ORCA and otool_gcp:
ORCA: 109  gCP: 108 
If you are NOT using ECPs, check your basis set inputs!
 ** NOTE ** -> element pt will be treated as ni
NOTIFICATION: Different basis set in ORCA and otool_gcp:
ORCA: 109  gCP: 108 
If you are NOT using ECPs, check your basis set inputs!
    8     -1539.030365   -1.984567    0.004368  0.001076
 ** NOTE ** -> element pt will be treated as ni
NOTIFICATION: Different basis set in ORCA and otool_gcp:
ORCA: 109  gCP: 108 
If you are NOT using ECPs, check your basis set inputs!
 ** NOTE ** -> element pt will be treated as ni
NOTIFICATION: Different basis set in ORCA and otool_gcp:
ORCA: 109  gCP: 108 
If you are NOT using ECPs, check your basis set inputs!
 ** NOTE ** -> element pt will be treated as ni
NOTIFICATION: Different basis set in ORCA and otool_gcp:
ORCA: 109  gCP: 108 
If you are NOT using ECPs, check your basis set inputs!
 ** NOTE ** -> element pt will be treated as ni
NOTIFICATION: Different basis set in ORCA and otool_gcp:
ORCA: 109  gCP: 108 
If you are NOT using ECPs, check your basis set inputs!
    9     -1539.030557   -2.105336    0.004262  0.001014
 ** NOTE ** -> element pt will be treated as ni
NOTIFICATION: Different basis set in ORCA and otool_gcp:
ORCA: 109  gCP: 108 
If you are NOT using ECPs, check your basis set inputs!
 ** NOTE ** -> element pt will be treated as ni
NOTIFICATION: Different basis set in ORCA and otool_gcp:
ORCA: 109  gCP: 108 
If you are NOT using ECPs, check your basis set inputs!
 ** NOTE ** -> element pt will be treated as ni
NOTIFICATION: Different basis set in ORCA and otool_gcp:
ORCA: 109  gCP: 108 
If you are NOT using ECPs, check your basis set inputs!
 ** NOTE ** -> element pt will be treated as ni
NOTIFICATION: Different basis set in ORCA and otool_gcp:
ORCA: 109  gCP: 108 
If you are NOT using ECPs, check your basis set inputs!
   10     -1539.030733   -2.215294    0.003720  0.000922
 ** NOTE ** -> element pt will be treated as ni
NOTIFICATION: Different basis set in ORCA and otool_gcp:
ORCA: 109  gCP: 108 
If you are NOT using ECPs, check your basis set inputs!
 ** NOTE ** -> element pt will be treated as ni
NOTIFICATION: Different basis set in ORCA and otool_gcp:
ORCA: 109  gCP: 108 
If you are NOT using ECPs, check your basis set inputs!
 ** NOTE ** -> element pt will be treated as ni
NOTIFICATION: Different basis set in ORCA and otool_gcp:
ORCA: 109  gCP: 108 
If you are NOT using ECPs, check your basis set inputs!
 ** NOTE ** -> element pt will be treated as ni
NOTIFICATION: Different basis set in ORCA and otool_gcp:
ORCA: 109  gCP: 108 
If you are NOT using ECPs, check your basis set inputs!
   11     -1539.030894   -2.316413    0.003539  0.000846
 ** NOTE ** -> element pt will be treated as ni
NOTIFICATION: Different basis set in ORCA and otool_gcp:
ORCA: 109  gCP: 108 
If you are NOT using ECPs, check your basis set inputs!
 ** NOTE ** -> element pt will be treated as ni
NOTIFICATION: Different basis set in ORCA and otool_gcp:
ORCA: 109  gCP: 108 
If you are NOT using ECPs, check your basis set inputs!
 ** NOTE ** -> element pt will be treated as ni
NOTIFICATION: Different basis set in ORCA and otool_gcp:
ORCA: 109  gCP: 108 
If you are NOT using ECPs, check your basis set inputs!
 ** NOTE ** -> element pt will be treated as ni
NOTIFICATION: Different basis set in ORCA and otool_gcp:
ORCA: 109  gCP: 108 
If you are NOT using ECPs, check your basis set inputs!
   12     -1539.031036   -2.405465    0.002960  0.000744
 ** NOTE ** -> element pt will be treated as ni
NOTIFICATION: Different basis set in ORCA and otool_gcp:
ORCA: 109  gCP: 108 
If you are NOT using ECPs, check your basis set inputs!
 ** NOTE ** -> element pt will be treated as ni
NOTIFICATION: Different basis set in ORCA and otool_gcp:
ORCA: 109  gCP: 108 
If you are NOT using ECPs, check your basis set inputs!
 ** NOTE ** -> element pt will be treated as ni
NOTIFICATION: Different basis set in ORCA and otool_gcp:
ORCA: 109  gCP: 108 
If you are NOT using ECPs, check your basis set inputs!
 ** NOTE ** -> element pt will be treated as ni
NOTIFICATION: Different basis set in ORCA and otool_gcp:
ORCA: 109  gCP: 108 
If you are NOT using ECPs, check your basis set inputs!
   13     -1539.031161   -2.484427    0.002695  0.000656
 ** NOTE ** -> element pt will be treated as ni
NOTIFICATION: Different basis set in ORCA and otool_gcp:
ORCA: 109  gCP: 108 
If you are NOT using ECPs, check your basis set inputs!
 ** NOTE ** -> element pt will be treated as ni
NOTIFICATION: Different basis set in ORCA and otool_gcp:
ORCA: 109  gCP: 108 
If you are NOT using ECPs, check your basis set inputs!
 ** NOTE ** -> element pt will be treated as ni
NOTIFICATION: Different basis set in ORCA and otool_gcp:
ORCA: 109  gCP: 108 
If you are NOT using ECPs, check your basis set inputs!
 ** NOTE ** -> element pt will be treated as ni
NOTIFICATION: Different basis set in ORCA and otool_gcp:
ORCA: 109  gCP: 108 
If you are NOT using ECPs, check your basis set inputs!
   14     -1539.031267   -2.550754    0.002102  0.000552
 ** NOTE ** -> element pt will be treated as ni
NOTIFICATION: Different basis set in ORCA and otool_gcp:
ORCA: 109  gCP: 108 
If you are NOT using ECPs, check your basis set inputs!
 ** NOTE ** -> element pt will be treated as ni
NOTIFICATION: Different basis set in ORCA and otool_gcp:
ORCA: 109  gCP: 108 
If you are NOT using ECPs, check your basis set inputs!
 ** NOTE ** -> element pt will be treated as ni
NOTIFICATION: Different basis set in ORCA and otool_gcp:
ORCA: 109  gCP: 108 
If you are NOT using ECPs, check your basis set inputs!
 ** NOTE ** -> element pt will be treated as ni
NOTIFICATION: Different basis set in ORCA and otool_gcp:
ORCA: 109  gCP: 108 
If you are NOT using ECPs, check your basis set inputs!
   15     -1539.031354   -2.605510    0.001793  0.000457

                      ***********************HURRAY********************
                      ***            THE IRC HAS CONVERGED          ***
                      *************************************************


---------------------------------------------------------------
                       IRC PATH SUMMARY              
---------------------------------------------------------------
All gradients are in Eh/Bohr.

Step        E(Eh)      dE(kcal/mol)  max(|G|)   RMS(G) 
   1     -1539.031354   -2.605510    0.001793  0.000457
   2     -1539.031267   -2.550754    0.002102  0.000552
   3     -1539.031161   -2.484427    0.002695  0.000656
   4     -1539.031036   -2.405465    0.002960  0.000744
   5     -1539.030894   -2.316413    0.003539  0.000846
   6     -1539.030733   -2.215294    0.003720  0.000922
   7     -1539.030557   -2.105336    0.004262  0.001014
   8     -1539.030365   -1.984567    0.004368  0.001076
   9     -1539.030160   -1.856299    0.004819  0.001150
  10     -1539.029942   -1.719505    0.004844  0.001200
  11     -1539.029715   -1.576560    0.005166  0.001251
  12     -1539.029477   -1.427223    0.005130  0.001286
  13     -1539.029234   -1.274644    0.005248  0.001327
  14     -1539.028997   -1.126431    0.004871  0.001477
  15     -1539.028789   -0.995760    0.006853  0.001965
  16     -1539.028503   -0.816124    0.012894  0.003229
  17     -1539.027202    0.000000    0.000450  0.000172 <= TS
  18     -1539.029255   -1.288378    0.016110  0.004926
  19     -1539.031423   -2.648834    0.011788  0.003844
  20     -1539.034166   -4.370096    0.011363  0.003829
  21     -1539.036909   -6.090917    0.008913  0.003418
  22     -1539.039186   -7.520145    0.006933  0.002804
  23     -1539.040910   -8.601715    0.004224  0.002238
  24     -1539.042159   -9.385266    0.005995  0.002151
  25     -1539.042478   -9.585802    0.005378  0.001989
  26     -1539.042654   -9.696251    0.003173  0.001592
  27     -1539.042914   -9.859087    0.003094  0.001415
  28     -1539.043171   -10.020662    0.002970  0.001312
  29     -1539.043404   -10.166981    0.002826  0.001230
  30     -1539.043616   -10.299667    0.002682  0.001127
  31     -1539.043814   -10.424013    0.002525  0.001054
  32     -1539.043997   -10.539026    0.002369  0.000982
  33     -1539.044167   -10.645720    0.002211  0.000913
  34     -1539.044325   -10.744952    0.002058  0.000858
  35     -1539.044471   -10.836097    0.001907  0.000794
  36     -1539.044606   -10.921258    0.001766  0.000756
  37     -1539.044729   -10.998395    0.001631  0.000695
  38     -1539.044845   -11.070964    0.001507  0.000663
  39     -1539.044950   -11.136536    0.001404  0.000616
  40     -1539.045047   -11.197645    0.001411  0.000579
  41     -1539.045137   -11.254064    0.001333  0.000548
  42     -1539.045219   -11.305730    0.001395  0.000523
  43     -1539.045295   -11.353110    0.001243  0.000503
  44     -1539.045363   -11.396007    0.001407  0.000498

Timings for individual modules:

Sum of individual times         ...      994.966 sec (=  16.583 min)
GTO integral calculation        ...      104.516 sec (=   1.742 min)  10.5 %
SCF iterations                  ...      738.730 sec (=  12.312 min)  74.2 %
SCF Gradient evaluation         ...      151.719 sec (=   2.529 min)  15.2 %
================================================================================

cite the ECPs for Pt [Def2-ECP] as follows:
Ce-Yb(ecp-28): M. Dolg, H. Stoll, H.Preuss, J. Chem. Phys., 1989, 90, 1730-1734.
Y-Cd(ecp-28), Hf-Hg(ecp-46): D. Andrae,U. Haeussermann, M. Dolg, H. Stoll, H. Preuss, Theor. Chim. Acta, 1990, 77, 123-141.
In-Sb(ecp-28), Tl-Bi(ecp-46): B. Metz, H. Stoll, M. Dolg, J. Chem. Phys., 2000, 113, 2563-2569.
Te-Xe(ecp-28), Po-Rn(ecp-46): K. A. Peterson, D. Figgen, E. Goll, H. Stoll, M. Dolg, J. Chem. Phys., 2003, 119, 11113-11123.
Rb(ecp-28), Cs(ecp-46): T. Leininger, A. Nicklass, W. Kuechle, H. Stoll, M. Dolg, A. Bergner, Chem. Phys. Lett., 1996, 255, 274-280.
Sr(ecp-28), Ba(ecp-46): M. Kaupp, P. V. Schleyer, H. Stoll and H. Preuss, J. Chem. Phys., 1991, 94, 1360-1366.
La(ecp-46): M. Dolg, H. Stoll, A. Savin, H. Preuss, Theor. Chim. Acta, 1989, 75, 173-194.
Lu(ecp-28): X. Cao, M. Dolg, J. Chem. Phys., 2001, 115, 7348-7355.

ECP parameters for Pt [Def2-ECP] have been obtained from:
TURBOMOLE (7.0.2)

----- Orbital basis set information -----
Your calculation utilizes the basis: def2-SVP
   F. Weigend and R. Ahlrichs, Phys. Chem. Chem. Phys. 7, 3297 (2005).

                             ****ORCA TERMINATED NORMALLY****
TOTAL RUN TIME: 0 days 0 hours 18 minutes 8 seconds 873 msec
