
                                 *****************
                                 * O   R   C   A *
                                 *****************

                                            #,                                       
                                            ###                                      
                                            ####                                     
                                            #####                                    
                                            ######                                   
                                           ########,                                 
                                     ,,################,,,,,                         
                               ,,#################################,,                 
                          ,,##########################################,,             
                       ,#########################################, ''#####,          
                    ,#############################################,,   '####,        
                  ,##################################################,,,,####,       
                ,###########''''           ''''###############################       
              ,#####''   ,,,,##########,,,,          '''####'''          '####       
            ,##' ,,,,###########################,,,                        '##       
           ' ,,###''''                  '''############,,,                           
         ,,##''                                '''############,,,,        ,,,,,,###''
      ,#''                                            '''#######################'''  
     '                                                          ''''####''''         
             ,#######,   #######,   ,#######,      ##                                
            ,#'     '#,  ##    ##  ,#'     '#,    #''#        ######   ,####,        
            ##       ##  ##   ,#'  ##            #'  '#       #        #'  '#        
            ##       ##  #######   ##           ,######,      #####,   #    #        
            '#,     ,#'  ##    ##  '#,     ,#' ,#      #,         ##   #,  ,#        
             '#######'   ##     ##  '#######'  #'      '#     #####' # '####'        



                  #######################################################
                  #                        -***-                        #
                  #          Department of theory and spectroscopy      #
                  #    Directorship and core code : Frank Neese         #
                  #        Max Planck Institute fuer Kohlenforschung    #
                  #                Kaiser Wilhelm Platz 1               #
                  #                 D-45470 Muelheim/Ruhr               #
                  #                      Germany                        #
                  #                                                     #
                  #                  All rights reserved                #
                  #                        -***-                        #
                  #######################################################


                         Program Version 5.0.4 -  RELEASE  -


 With contributions from (in alphabetic order):
   Daniel Aravena         : Magnetic Suceptibility
   Michael Atanasov       : Ab Initio Ligand Field Theory (pilot matlab implementation)
   Alexander A. Auer      : GIAO ZORA, VPT2 properties, NMR spectrum
   Ute Becker             : Parallelization
   Giovanni Bistoni       : ED, misc. LED, open-shell LED, HFLD
   Martin Brehm           : Molecular dynamics
   Dmytro Bykov           : SCF Hessian
   Vijay G. Chilkuri      : MRCI spin determinant printing, contributions to CSF-ICE
   Dipayan Datta          : RHF DLPNO-CCSD density
   Achintya Kumar Dutta   : EOM-CC, STEOM-CC
   Dmitry Ganyushin       : Spin-Orbit,Spin-Spin,Magnetic field MRCI
   Miquel Garcia          : C-PCM and meta-GGA Hessian, CC/C-PCM, Gaussian charge scheme
   Yang Guo               : DLPNO-NEVPT2, F12-NEVPT2, CIM, IAO-localization
   Andreas Hansen         : Spin unrestricted coupled pair/coupled cluster methods
   Benjamin Helmich-Paris : MC-RPA, TRAH-SCF, COSX integrals
   Lee Huntington         : MR-EOM, pCC
   Robert Izsak           : Overlap fitted RIJCOSX, COSX-SCS-MP3, EOM
   Marcus Kettner         : VPT2
   Christian Kollmar      : KDIIS, OOCD, Brueckner-CCSD(T), CCSD density, CASPT2, CASPT2-K
   Simone Kossmann        : Meta GGA functionals, TD-DFT gradient, OOMP2, MP2 Hessian
   Martin Krupicka        : Initial AUTO-CI
   Lucas Lang             : DCDCAS
   Marvin Lechner         : AUTO-CI (C++ implementation), FIC-MRCC
   Dagmar Lenk            : GEPOL surface, SMD
   Dimitrios Liakos       : Extrapolation schemes; Compound Job, initial MDCI parallelization
   Dimitrios Manganas     : Further ROCIS development; embedding schemes
   Dimitrios Pantazis     : SARC Basis sets
   Anastasios Papadopoulos: AUTO-CI, single reference methods and gradients
   Taras Petrenko         : DFT Hessian,TD-DFT gradient, ASA, ECA, R-Raman, ABS, FL, XAS/XES, NRVS
   Peter Pinski           : DLPNO-MP2, DLPNO-MP2 Gradient
   Christoph Reimann      : Effective Core Potentials
   Marius Retegan         : Local ZFS, SOC
   Christoph Riplinger    : Optimizer, TS searches, QM/MM, DLPNO-CCSD(T), (RO)-DLPNO pert. Triples
   Tobias Risthaus        : Range-separated hybrids, TD-DFT gradient, RPA, STAB
   Michael Roemelt        : Original ROCIS implementation
   Masaaki Saitow         : Open-shell DLPNO-CCSD energy and density
   Barbara Sandhoefer     : DKH picture change effects
   Avijit Sen             : IP-ROCIS
   Kantharuban Sivalingam : CASSCF convergence, NEVPT2, FIC-MRCI
   Bernardo de Souza      : ESD, SOC TD-DFT
   Georgi Stoychev        : AutoAux, RI-MP2 NMR, DLPNO-MP2 response
   Willem Van den Heuvel  : Paramagnetic NMR
   Boris Wezisla          : Elementary symmetry handling
   Frank Wennmohs         : Technical directorship


 We gratefully acknowledge several colleagues who have allowed us to
 interface, adapt or use parts of their codes:
   Stefan Grimme, W. Hujo, H. Kruse, P. Pracht,  : VdW corrections, initial TS optimization,
                  C. Bannwarth, S. Ehlert          DFT functionals, gCP, sTDA/sTD-DF
   Ed Valeev, F. Pavosevic, A. Kumar             : LibInt (2-el integral package), F12 methods
   Garnet Chan, S. Sharma, J. Yang, R. Olivares  : DMRG
   Ulf Ekstrom                                   : XCFun DFT Library
   Mihaly Kallay                                 : mrcc  (arbitrary order and MRCC methods)
   Jiri Pittner, Ondrej Demel                    : Mk-CCSD
   Frank Weinhold                                : gennbo (NPA and NBO analysis)
   Christopher J. Cramer and Donald G. Truhlar   : smd solvation model
   Lars Goerigk                                  : TD-DFT with DH, B97 family of functionals
   V. Asgeirsson, H. Jonsson                     : NEB implementation
   FAccTs GmbH                                   : IRC, NEB, NEB-TS, DLPNO-Multilevel, CI-OPT
                                                   MM, QMMM, 2- and 3-layer-ONIOM, Crystal-QMMM,
                                                   LR-CPCM, SF, NACMEs, symmetry and pop. for TD-DFT,
                                                   nearIR, NL-DFT gradient (VV10), updates on ESD,
                                                   ML-optimized integration grids
   S Lehtola, MJT Oliveira, MAL Marques          : LibXC Library
   Liviu Ungur et al                             : ANISO software


 Your calculation uses the libint2 library for the computation of 2-el integrals
 For citations please refer to: http://libint.valeyev.net

 Your ORCA version has been built with support for libXC version: 5.1.0
 For citations please refer to: https://tddft.org/programs/libxc/

 This ORCA versions uses:
   CBLAS   interface :  Fast vector & matrix operations
   LAPACKE interface :  Fast linear algebra routines
   SCALAPACK package :  Parallel linear algebra routines
   Shared memory     :  Shared parallel matrices
   BLAS/LAPACK       :  OpenBLAS 0.3.15  USE64BITINT DYNAMIC_ARCH NO_AFFINITY SkylakeX SINGLE_THREADED
        Core in use  :  SkylakeX
   Copyright (c) 2011-2014, The OpenBLAS Project




***************************************
The coordinates will be read from file: cineb-5-peak.xyz
***************************************




################################################################################


                                COMPOUND JOB MainJOB 
Basename: reaction-5-cineb5_optts_Compound_0

################################################################################

================================================================================
                                       INPUT FILE
================================================================================
NAME = reaction-5-cineb5_optts_Compound_0.inp
|  1> %pal nprocs 8 end 
|  2>   
|  3>  *xyzfile 1 1 cineb-5-peak.xyz 
|  4>   
|  5> 
|  6>                          ****END OF INPUT****
================================================================================


***************************************
The coordinates will be read from file: cineb-5-peak.xyz
***************************************


================================================================================

----- Orbital basis set information -----
Your calculation utilizes the basis: def2-SVP
   F. Weigend and R. Ahlrichs, Phys. Chem. Chem. Phys. 7, 3297 (2005).



################################################################################


                                COMPOUND JOB  1 
Basename: reaction-5-cineb5_optts_Compound_1
NOTE: please remember that MaxCore and PAL settings will be ignored.

################################################################################

================================================================================
                                       INPUT FILE
================================================================================
NAME = reaction-5-cineb5_optts_Compound_1.inp
|  1>   
|  2>    
|  3>   ! PBEh-3c OptTS Freq pal8 
|  4>    
|  5>   %geom 
|  6>    calc_hess true 
|  7>    recalc_hess 20 
|  8>    maxiter 600 
|  9>   end  
| 10>    
| 11> 
| 12>                          ****END OF INPUT****
================================================================================
Your calculation utilizes the geometrical counterpoise correction gCP
Please cite in your paper:
H.Kruse, S. Grimme J.Chem.Phys., 136, (2012), 154101 
   

Your calculation utilizes the atom-pairwise dispersion correction
with the Becke-Johnson damping scheme (D3BJ)
Cite in your paper:
S.Grimme, S.Ehrlich, L.Goerigk, J Comput Chem, (2011), 32, 1456–1465 
S.Grimme, J.Antony, S.Ehrlich and H.Krieg, J.Chem.Phys., 132, (2010), 154104 
   

Your calculation employs the composite approach PBEh-3c.
Please cite in your paper:
S. Grimme, J. G. Brandenburg, C. Bannwarth, A. Hansen J.Chem.Phys., 143, (2015), 054107 
   

================================================================================

----- Orbital basis set information -----
Your calculation utilizes the basis: def2-mSVP

----- AuxJ basis set information -----
Your calculation utilizes the auxiliary basis: def2/J
   F. Weigend, Phys. Chem. Chem. Phys. 8, 1057 (2006).

================================================================================
                                        WARNINGS
                       Please study these warnings very carefully!
================================================================================


WARNING: Geometry Optimization
  ===> : Switching off AutoStart
         For restart on a previous wavefunction, please use MOREAD

INFO   : the flag for use of the SHARK integral package has been found!


                       *****************************
                       * Geometry Optimization Run *
                       *****************************

Geometry optimization settings:
Update method            Update   .... Bofill
Choice of coordinates    CoordSys .... Z-matrix Internals
Initial Hessian          InHess   .... Almoef's Model

Convergence Tolerances:
Energy Change            TolE     ....  5.0000e-06 Eh
Max. Gradient            TolMAXG  ....  3.0000e-04 Eh/bohr
RMS Gradient             TolRMSG  ....  1.0000e-04 Eh/bohr
Max. Displacement        TolMAXD  ....  4.0000e-03 bohr
RMS Displacement         TolRMSD  ....  2.0000e-03 bohr
Strict Convergence                ....  False
------------------------------------------------------------------------------
                        ORCA OPTIMIZATION COORDINATE SETUP
------------------------------------------------------------------------------

The optimization will be done in new redundant internal coordinates
Making redundant internal coordinates   ...  (new redundants) done
Following TS mode number                ...     0
Evaluating the initial hessian          ...  (Is done on the fly) done
Evaluating the coordinates              ...  done
Calculating the B-matrix                .... done
Calculating the G-matrix                .... done
Diagonalizing the G-matrix              .... done
Small eigenvalue found = 2.494e-02
The first mode is                       ....   75
The number of degrees of freedom        ....   57

    -----------------------------------------------------------------
                    Redundant Internal Coordinates


    -----------------------------------------------------------------
         Definition                    Initial Value    d2E/dq (diagonal element)
    -----------------------------------------------------------------
      1. B(C   1,Sc  0)                  2.3444         0.000000   
      2. B(N   2,C   1)                  1.3473         0.000000   
      3. B(C   3,N   2)                  1.3684         0.000000   
      4. B(C   4,C   3)                  1.3330         0.000000   
      5. B(N   5,C   4)                  1.3759         0.000000   
      6. B(N   5,C   1)                  1.3445         0.000000   
      7. B(C   6,N   5)                  1.4542         0.000000   
      8. B(H   7,C   6)                  1.0772         0.000000   
      9. B(H   8,C   6)                  1.1087         0.000000   
     10. B(H   9,C   6)                  1.1048         0.000000   
     11. B(C  10,N   2)                  1.4530         0.000000   
     12. B(H  11,C  10)                  1.0911         0.000000   
     13. B(H  12,C  10)                  1.0861         0.000000   
     14. B(H  13,C  10)                  1.0892         0.000000   
     15. B(H  14,C   3)                  1.0840         0.000000   
     16. B(H  15,C   4)                  1.0938         0.000000   
     17. B(H  17,C  16)                  1.0949         0.000000   
     18. B(H  18,C  16)                  1.1068         0.000000   
     19. B(H  19,H   8)                  2.5227         0.000000   
     20. B(H  19,C  16)                  1.0937         0.000000   
     21. B(H  20,H  19)                  2.5735         0.000000   
     22. B(H  20,H  17)                  2.2773         0.000000   
     23. B(H  20,C  16)                  2.0434         0.000000   
     24. B(H  20,Sc  0)                  1.6010         0.000000   
     25. A(C   1,Sc  0,H  20)          118.5639         0.000000   
     26. A(Sc  0,C   1,N   5)          124.4699         0.000000   
     27. A(Sc  0,C   1,N   2)          129.3105         0.000000   
     28. A(N   2,C   1,N   5)          105.1934         0.000000   
     29. A(C   1,N   2,C   3)          110.5586         0.000000   
     30. A(C   1,N   2,C  10)          127.0090         0.000000   
     31. A(C   3,N   2,C  10)          122.3177         0.000000   
     32. A(N   2,C   3,C   4)          106.8485         0.000000   
     33. A(N   2,C   3,H  14)          122.8656         0.000000   
     34. A(C   4,C   3,H  14)          130.2857         0.000000   
     35. A(C   3,C   4,H  15)          131.4706         0.000000   
     36. A(C   3,C   4,N   5)          107.2700         0.000000   
     37. A(N   5,C   4,H  15)          121.2530         0.000000   
     38. A(C   1,N   5,C   6)          124.1328         0.000000   
     39. A(C   1,N   5,C   4)          110.0241         0.000000   
     40. A(C   4,N   5,C   6)          125.8136         0.000000   
     41. A(H   8,C   6,H   9)          110.0388         0.000000   
     42. A(H   7,C   6,H   9)          106.9042         0.000000   
     43. A(N   5,C   6,H   9)          110.5694         0.000000   
     44. A(H   7,C   6,H   8)          109.4198         0.000000   
     45. A(N   5,C   6,H   8)          111.0313         0.000000   
     46. A(N   5,C   6,H   7)          108.7733         0.000000   
     47. A(C   6,H   8,H  19)          134.7036         0.000000   
     48. A(H  12,C  10,H  13)          108.7703         0.000000   
     49. A(H  11,C  10,H  13)          108.8912         0.000000   
     50. A(N   2,C  10,H  13)          110.1764         0.000000   
     51. A(H  11,C  10,H  12)          107.0071         0.000000   
     52. A(N   2,C  10,H  12)          110.8424         0.000000   
     53. A(N   2,C  10,H  11)          111.0615         0.000000   
     54. A(H  18,C  16,H  19)          111.6391         0.000000   
     55. A(H  17,C  16,H  19)          108.2543         0.000000   
     56. A(H  17,C  16,H  18)          108.5371         0.000000   
     57. A(H  19,C  16,H  20)          106.2551         0.000000   
     58. A(H  18,C  16,H  20)          130.6377         0.000000   
     59. A(H  17,C  16,H  20)           87.5897         0.000000   
     60. A(C  16,H  17,H  20)           63.7024         0.000000   
     61. A(H   8,H  19,H  20)          102.3830         0.000000   
     62. A(C  16,H  19,H  20)           49.6664         0.000000   
     63. A(H   8,H  19,C  16)          100.0079         0.000000   
     64. A(H  17,H  20,H  19)           42.3394         0.000000   
     65. A(C  16,H  20,H  19)           24.0785         0.000000   
     66. A(Sc  0,H  20,H  19)           93.6497         0.000000   
     67. A(C  16,H  20,H  17)           28.7080         0.000000   
     68. A(Sc  0,H  20,H  17)          131.1694         0.000000   
     69. A(Sc  0,H  20,C  16)          102.4700         0.000000   
     70. D(N   5,C   1,Sc  0,H  20)    -93.2859         0.000000   
     71. D(N   2,C   1,Sc  0,H  20)     73.3627         0.000000   
     72. D(C   3,N   2,C   1,N   5)     -3.3627         0.000000   
     73. D(C   3,N   2,C   1,Sc  0)   -171.9852         0.000000   
     74. D(C  10,N   2,C   1,Sc  0)     11.8693         0.000000   
     75. D(C  10,N   2,C   1,N   5)   -179.5083         0.000000   
     76. D(C   4,C   3,N   2,C   1)      2.8066         0.000000   
     77. D(H  14,C   3,N   2,C   1)   -177.0107         0.000000   
     78. D(H  14,C   3,N   2,C  10)     -0.6525         0.000000   
     79. D(C   4,C   3,N   2,C  10)    179.1648         0.000000   
     80. D(H  15,C   4,C   3,N   2)    179.8862         0.000000   
     81. D(H  15,C   4,C   3,H  14)     -0.3150         0.000000   
     82. D(N   5,C   4,C   3,N   2)     -1.0544         0.000000   
     83. D(N   5,C   4,C   3,H  14)    178.7444         0.000000   
     84. D(C   4,N   5,C   1,Sc  0)    172.0024         0.000000   
     85. D(C   6,N   5,C   4,H  15)      0.0669         0.000000   
     86. D(C   6,N   5,C   4,C   3)   -179.1086         0.000000   
     87. D(C   1,N   5,C   4,H  15)    178.1503         0.000000   
     88. D(C   1,N   5,C   4,C   3)     -1.0253         0.000000   
     89. D(C   6,N   5,C   1,N   2)   -179.2059         0.000000   
     90. D(C   6,N   5,C   1,Sc  0)     -9.8753         0.000000   
     91. D(C   4,N   5,C   1,N   2)      2.6718         0.000000   
     92. D(H   9,C   6,N   5,C   1)    -57.6454         0.000000   
     93. D(H   9,C   6,N   5,C   4)    120.1789         0.000000   
     94. D(H   8,C   6,N   5,C   4)   -117.3825         0.000000   
     95. D(H   8,C   6,N   5,C   1)     64.7932         0.000000   
     96. D(H   7,C   6,N   5,C   4)      3.0767         0.000000   
     97. D(H   7,C   6,N   5,C   1)   -174.7476         0.000000   
     98. D(H  19,H   8,C   6,N   5)     -9.0193         0.000000   
     99. D(H  19,H   8,C   6,H   7)   -129.0949         0.000000   
    100. D(H  19,H   8,C   6,H   9)    113.7265         0.000000   
    101. D(H  13,C  10,N   2,C   3)    -59.5826         0.000000   
    102. D(H  13,C  10,N   2,C   1)    116.1462         0.000000   
    103. D(H  12,C  10,N   2,C   3)     60.8625         0.000000   
    104. D(H  12,C  10,N   2,C   1)   -123.4088         0.000000   
    105. D(H  11,C  10,N   2,C   3)    179.6776         0.000000   
    106. D(H  11,C  10,N   2,C   1)     -4.5936         0.000000   
    107. D(H  20,H  17,C  16,H  19)   -106.3274         0.000000   
    108. D(H  20,H  17,C  16,H  18)    132.3304         0.000000   
    109. D(H  20,H  19,C  16,H  18)   -147.7253         0.000000   
    110. D(H  20,H  19,C  16,H  17)     92.8684         0.000000   
    111. D(H   8,H  19,C  16,H  20)     97.8067         0.000000   
    112. D(H   8,H  19,C  16,H  18)    -49.9187         0.000000   
    113. D(H   8,H  19,C  16,H  17)   -169.3249         0.000000   
    114. D(H  20,H  19,H   8,C   6)    -67.2562         0.000000   
    115. D(C  16,H  19,H   8,C   6)   -117.8994         0.000000   
    116. D(H  17,H  20,H  19,C  16)    -42.6132         0.000000   
    117. D(C  16,H  20,H  19,H   8)    -92.6933         0.000000   
    118. D(Sc  0,H  20,H  19,H   8)     20.1114         0.000000   
    119. D(H  19,H  20,H  17,C  16)     35.1037         0.000000   
    120. D(Sc  0,H  20,H  17,C  16)      1.6335         0.000000   
    121. D(H  19,H  20,C  16,H  18)    139.1499         0.000000   
    122. D(H  19,H  20,C  16,H  17)   -108.3182         0.000000   
    123. D(H  17,H  20,C  16,H  19)    108.3182         0.000000   
    124. D(H  17,H  20,C  16,H  18)   -112.5319         0.000000   
    125. D(Sc  0,H  20,C  16,H  19)    -70.4224         0.000000   
    126. D(Sc  0,H  20,C  16,H  18)     68.7275         0.000000   
    127. D(Sc  0,H  20,H  19,C  16)    112.8047         0.000000   
    128. D(Sc  0,H  20,C  16,H  17)   -178.7407         0.000000   
    129. D(H  19,H  20,Sc  0,C   1)     41.1126         0.000000   
    130. D(H  17,H  20,Sc  0,C   1)     62.9642         0.000000   
    131. D(H  17,H  20,H  19,H   8)   -135.3065         0.000000   
    132. D(C  16,H  20,Sc  0,C   1)     63.7677         0.000000   
    -----------------------------------------------------------------

Number of atoms                         .... 21
Number of degrees of freedom            .... 132

         *************************************************************
         *                GEOMETRY OPTIMIZATION CYCLE   1            *
         *************************************************************
---------------------------------
CARTESIAN COORDINATES (ANGSTROEM)
---------------------------------
  Sc     1.141170   -0.780040   -1.960940
  C      0.392300   -0.572390    0.250950
  N     -0.469230   -1.348600    0.936810
  C     -0.771920   -0.779940    2.144120
  C     -0.140840    0.393450    2.187590
  N      0.563760    0.522070    1.012800
  C      1.410880    1.646190    0.647310
  H      1.440730    2.339900    1.470800
  H      1.021900    2.160900   -0.254370
  H      2.448600    1.309650    0.473010
  C     -0.972710   -2.654060    0.545010
  H     -0.623500   -2.925840   -0.452330
  H     -2.058360   -2.655840    0.512910
  H     -0.641790   -3.412390    1.253320
  H     -1.411090   -1.259590    2.876550
  H     -0.106140    1.169130    2.957940
  C     -0.188640    1.585890   -2.847280
  H     -0.867100    1.558880   -3.706170
  H      0.491520    2.451320   -2.963220
  H     -0.790570    1.665040   -1.937590
  H      0.133250   -0.409440   -3.148350

----------------------------
CARTESIAN COORDINATES (A.U.)
----------------------------
  NO LB      ZA    FRAG     MASS         X           Y           Z
   0 Sc   21.0000    0    44.960    2.156499   -1.474062   -3.705640
   1 C     6.0000    0    12.011    0.741340   -1.081660    0.474227
   2 N     7.0000    0    14.007   -0.886716   -2.548485    1.770314
   3 C     6.0000    0    12.011   -1.458717   -1.473873    4.051800
   4 C     6.0000    0    12.011   -0.266149    0.743513    4.133946
   5 N     7.0000    0    14.007    1.065352    0.986569    1.913915
   6 C     6.0000    0    12.011    2.666177    3.110848    1.223239
   7 H     1.0000    0     1.008    2.722585    4.421770    2.779409
   8 H     1.0000    0     1.008    1.931111    4.083509   -0.480690
   9 H     1.0000    0     1.008    4.627183    2.474880    0.893859
  10 C     6.0000    0    12.011   -1.838156   -5.015447    1.029920
  11 H     1.0000    0     1.008   -1.178244   -5.529036   -0.854780
  12 H     1.0000    0     1.008   -3.889737   -5.018810    0.969259
  13 H     1.0000    0     1.008   -1.212807   -6.448483    2.368432
  14 H     1.0000    0     1.008   -2.666574   -2.380280    5.435892
  15 H     1.0000    0     1.008   -0.200576    2.209336    5.589697
  16 C     6.0000    0    12.011   -0.356478    2.996898   -5.380579
  17 H     1.0000    0     1.008   -1.638582    2.945856   -7.003646
  18 H     1.0000    0     1.008    0.928838    4.632323   -5.599674
  19 H     1.0000    0     1.008   -1.493961    3.146470   -3.661514
  20 H     1.0000    0     1.008    0.251806   -0.773729   -5.949519

--------------------------------
INTERNAL COORDINATES (ANGSTROEM)
--------------------------------
 Sc     0   0   0     0.000000000000     0.00000000     0.00000000
 C      1   0   0     2.344436429400     0.00000000     0.00000000
 N      2   1   0     1.347271258730   129.31053047     0.00000000
 C      3   2   1     1.368427151075   110.55858265   188.01484563
 C      4   3   2     1.333040021680   106.84848293     2.80658343
 N      2   1   3     1.344491221875   124.46994885   193.35140065
 C      6   2   1     1.454249293931   124.13282600   350.12468614
 H      7   6   2     1.077153826851   108.77331459   185.25237161
 H      7   6   2     1.108719372474   111.03129020    64.79324388
 H      7   6   2     1.104763531259   110.56943179   302.35461651
 C      3   2   1     1.453005561586   127.00900233    11.86929189
 H     11   3   2     1.091099934974   111.06149231   355.40637643
 H     11   3   2     1.086125913925   110.84243823   236.59124385
 H     11   3   2     1.089162747894   110.17635650   116.14617006
 H      4   3   2     1.084000053644   122.86555965   182.98934417
 H      5   4   3     1.093765365561   131.47056367   179.88623842
 C      1   2   3     2.855103850405    94.05512249   112.29690063
 H     17   1   2     1.094865080181   120.77792763   233.63191099
 H     17   1   2     1.106810188831   113.21866633   102.47290389
 H     17   1   2     1.093672868595    93.33078116   347.20164063
 H      1   2   3     1.600996438004   118.56394158    73.36273637

---------------------------
INTERNAL COORDINATES (A.U.)
---------------------------
 Sc     0   0   0     0.000000000000     0.00000000     0.00000000
 C      1   0   0     4.430342789955     0.00000000     0.00000000
 N      2   1   0     2.545973707103   129.31053047     0.00000000
 C      3   2   1     2.585952549754   110.55858265   188.01484563
 C      4   3   2     2.519080566531   106.84848293     2.80658343
 N      2   1   3     2.540720198806   124.46994885   193.35140065
 C      6   2   1     2.748132895979   124.13282600   350.12468614
 H      7   6   2     2.035525736854   108.77331459   185.25237161
 H      7   6   2     2.095175973350   111.03129020    64.79324388
 H      7   6   2     2.087700516823   110.56943179   302.35461651
 C      3   2   1     2.745782582462   127.00900233    11.86929189
 H     11   3   2     2.061880061840   111.06149231   355.40637643
 H     11   3   2     2.052480524274   110.84243823   236.59124385
 H     11   3   2     2.058219308789   110.17635650   116.14617006
 H      4   3   2     2.048463230543   122.86555965   182.98934417
 H      5   4   3     2.066916995678   131.47056367   179.88623842
 C      1   2   3     5.395364361170    94.05512249   112.29690063
 H     17   1   2     2.068995155136   120.77792763   233.63191099
 H     17   1   2     2.091568139124   113.21866633   102.47290389
 H     17   1   2     2.066742201744    93.33078116   347.20164063
 H      1   2   3     3.025444809210   118.56394158    73.36273637

---------------------
BASIS SET INFORMATION
---------------------
There are 4 groups of distinct atoms

 Group   1 Type Sc  : 14s9p5d1f contracted to 5s3p2d1f pattern {63311/531/41/1}
 Group   2 Type C   : 8s4p1d contracted to 4s2p1d pattern {5111/31/1}
 Group   3 Type N   : 8s4p1d contracted to 4s2p1d pattern {5111/31/1}
 Group   4 Type H   : 4s contracted to 2s pattern {31}

Atom   0Sc   basis set group =>   1
Atom   1C    basis set group =>   2
Atom   2N    basis set group =>   3
Atom   3C    basis set group =>   2
Atom   4C    basis set group =>   2
Atom   5N    basis set group =>   3
Atom   6C    basis set group =>   2
Atom   7H    basis set group =>   4
Atom   8H    basis set group =>   4
Atom   9H    basis set group =>   4
Atom  10C    basis set group =>   2
Atom  11H    basis set group =>   4
Atom  12H    basis set group =>   4
Atom  13H    basis set group =>   4
Atom  14H    basis set group =>   4
Atom  15H    basis set group =>   4
Atom  16C    basis set group =>   2
Atom  17H    basis set group =>   4
Atom  18H    basis set group =>   4
Atom  19H    basis set group =>   4
Atom  20H    basis set group =>   4
---------------------------------
AUXILIARY/J BASIS SET INFORMATION
---------------------------------
There are 4 groups of distinct atoms

 Group   1 Type Sc  : 19s5p5d3f3g contracted to 8s5p5d2f3g pattern {121111111/11111/11111/21/111}
 Group   2 Type C   : 12s5p4d2f1g contracted to 6s4p3d1f1g pattern {711111/2111/211/2/1}
 Group   3 Type N   : 12s5p4d2f1g contracted to 6s4p3d1f1g pattern {711111/2111/211/2/1}
 Group   4 Type H   : 5s2p1d contracted to 3s1p1d pattern {311/2/1}

Atom   0Sc   basis set group =>   1
Atom   1C    basis set group =>   2
Atom   2N    basis set group =>   3
Atom   3C    basis set group =>   2
Atom   4C    basis set group =>   2
Atom   5N    basis set group =>   3
Atom   6C    basis set group =>   2
Atom   7H    basis set group =>   4
Atom   8H    basis set group =>   4
Atom   9H    basis set group =>   4
Atom  10C    basis set group =>   2
Atom  11H    basis set group =>   4
Atom  12H    basis set group =>   4
Atom  13H    basis set group =>   4
Atom  14H    basis set group =>   4
Atom  15H    basis set group =>   4
Atom  16C    basis set group =>   2
Atom  17H    basis set group =>   4
Atom  18H    basis set group =>   4
Atom  19H    basis set group =>   4
Atom  20H    basis set group =>   4


           ************************************************************
           *        Program running with 8 parallel MPI-processes     *
           *              working on a common directory               *
           ************************************************************
------------------------------------------------------------------------------
                           ORCA GTO INTEGRAL CALCULATION
                           -- RI-GTO INTEGRALS CHOSEN --
------------------------------------------------------------------------------
------------------------------------------------------------------------------
                   ___                                                        
                  /   \      - P O W E R E D   B Y -                         
                 /     \                                                     
                 |  |  |   _    _      __       _____    __    __             
                 |  |  |  | |  | |    /  \     |  _  \  |  |  /  |          
                  \  \/   | |  | |   /    \    | | | |  |  | /  /          
                 / \  \   | |__| |  /  /\  \   | |_| |  |  |/  /          
                |  |  |   |  __  | /  /__\  \  |    /   |      \           
                |  |  |   | |  | | |   __   |  |    \   |  |\   \          
                \     /   | |  | | |  |  |  |  | |\  \  |  | \   \       
                 \___/    |_|  |_| |__|  |__|  |_| \__\ |__|  \__/        
                                                                              
                      - O R C A' S   B I G   F R I E N D -                    
                                      &                                       
                       - I N T E G R A L  F E E D E R -                       
                                                                              
 v1 FN, 2020, v2 2021                                                         
------------------------------------------------------------------------------


Reading SHARK input file reaction-5-cineb5_optts_Compound_1.SHARKINP.tmp ... ok
----------------------
SHARK INTEGRAL PACKAGE
----------------------

Number of atoms                             ...     21
Number of basis functions                   ...    175
Number of shells                            ...     91
Maximum angular momentum                    ...      3
Integral batch strategy                     ... SHARK/LIBINT Hybrid
RI-J (if used) integral strategy            ... SPLIT-RIJ (Revised 2003 algorithm where possible)
Printlevel                                  ...      1
Contraction scheme used                     ... SEGMENTED contraction
Coulomb Range Separation                    ... NOT USED
Exchange Range Separation                   ... NOT USED
Finite Nucleus Model                        ... NOT USED
Auxiliary Coulomb fitting basis             ... AVAILABLE
   # of basis functions in Aux-J            ...    613
   # of shells in Aux-J                     ...    203
   Maximum angular momentum in Aux-J        ...      4
Auxiliary J/K fitting basis                 ... NOT available
Auxiliary Correlation fitting basis         ... NOT available
Auxiliary 'external' fitting basis          ... NOT available
Integral threshold                          ...     2.500000e-11
Primitive cut-off                           ...     2.500000e-12
Primitive pair pre-selection threshold      ...     2.500000e-12

Calculating pre-screening integrals         ... done (  0.1 sec) Dimension = 91
Organizing shell pair data                  ... done (  0.0 sec)
Shell pair information
Total number of shell pairs                 ...      4186
Shell pairs after pre-screening             ...      3640
Total number of primitive shell pairs       ...     16651
Primitive shell pairs kept                  ...      9743
          la=0 lb=0:   1534 shell pairs
          la=1 lb=0:   1075 shell pairs
          la=1 lb=1:    187 shell pairs
          la=2 lb=0:    521 shell pairs
          la=2 lb=1:    181 shell pairs
          la=2 lb=2:     51 shell pairs
          la=3 lb=0:     61 shell pairs
          la=3 lb=1:     19 shell pairs
          la=3 lb=2:     10 shell pairs
          la=3 lb=3:      1 shell pairs

Calculating one electron integrals          ... done (  0.0 sec)
Calculating RI/J V-Matrix + Cholesky decomp.... done (  0.0 sec)
Calculating Nuclear repulsion               ... done (  0.0 sec) ENN=    570.214041541616 Eh

SHARK setup successfully completed in   0.8 seconds

Maximum memory used throughout the entire GTOINT-calculation: 17.4 MB


           ************************************************************
           *        Program running with 8 parallel MPI-processes     *
           *              working on a common directory               *
           ************************************************************
-------------------------------------------------------------------------------
                                 ORCA SCF
-------------------------------------------------------------------------------

------------
SCF SETTINGS
------------
Hamiltonian:
 Density Functional     Method          .... DFT(GTOs)
 Exchange Functional    Exchange        .... PBE
   PBE kappa parameter   XKappa         ....  1.024500
   PBE mue parameter    XMuePBE         ....  0.123457
 Correlation Functional Correlation     .... PBE
   PBE beta parameter  CBetaPBE         ....  0.030000
 LDA part of GGA corr.  LDAOpt          .... PW91-LDA
 Gradients option       PostSCFGGA      .... off
 Hybrid DFT is turned on
   Fraction HF Exchange ScalHFX         ....  0.420000
   Scaling of DF-GGA-X  ScalDFX         ....  0.580000
   Scaling of DF-GGA-C  ScalDFC         ....  1.000000
   Scaling of DF-LDA-C  ScalLDAC        ....  1.000000
   Perturbative correction              ....  0.000000
   Density functional embedding theory  .... OFF
 RI-approximation to the Coulomb term is turned on
   Number of AuxJ basis functions       .... 613
   RIJ-ON(X) (HFX calculated with O(N)) .... on
   Number of AuxJ basis functions       .... 613
   RIJ-COSX (HFX calculated with COS-X)).... on


General Settings:
 Integral files         IntName         .... reaction-5-cineb5_optts_Compound_1
 Hartree-Fock type      HFTyp           .... RHF
 Total Charge           Charge          ....    1
 Multiplicity           Mult            ....    1
 Number of Electrons    NEL             ....   82
 Basis Dimension        Dim             ....  175
 Nuclear Repulsion      ENuc            ....    570.2140415416 Eh

Convergence Acceleration:
 DIIS                   CNVDIIS         .... on
   Start iteration      DIISMaxIt       ....    12
   Startup error        DIISStart       ....  0.200000
   # of expansion vecs  DIISMaxEq       ....     5
   Bias factor          DIISBfac        ....   1.050
   Max. coefficient     DIISMaxC        ....  10.000
 Trust-Rad. Augm. Hess. CNVTRAH         .... auto
   Auto Start mean grad. ratio tolernc. ....  1.125000
   Auto Start start iteration           ....    20
   Auto Start num. interpolation iter.  ....    10
   Max. Number of Micro iterations      ....    16
   Max. Number of Macro iterations      .... Maxiter - #DIIS iter
   Number of Davidson start vectors     ....     2
   Converg. threshold I  (grad. norm)   ....   1.000e-05
   Converg. threshold II (energy diff.) ....   1.000e-08
   Grad. Scal. Fac. for Micro threshold ....   0.100
   Minimum threshold for Micro iter.    ....   0.010
   NR start threshold (gradient norm)   ....   0.001
   Initial trust radius                 ....   0.400
   Minimum AH scaling param. (alpha)    ....   1.000
   Maximum AH scaling param. (alpha)    .... 1000.000
   Orbital update algorithm             .... Taylor
   White noise on init. David. guess    .... on
   Maximum white noise                  ....   0.010
   Quad. conv. algorithm                .... NR
   COSX micro iterations for RIJONX calc.... off
 SOSCF                  CNVSOSCF        .... off
 Level Shifting         CNVShift        .... on
   Level shift para.    LevelShift      ....    0.2500
   Turn off err/grad.   ShiftErr        ....    0.0010
 Zerner damping         CNVZerner       .... off
 Static damping         CNVDamp         .... on
   Fraction old density DampFac         ....    0.7000
   Max. Damping (<1)    DampMax         ....    0.9800
   Min. Damping (>=0)   DampMin         ....    0.0000
   Turn off err/grad.   DampErr         ....    0.1000
 Fernandez-Rico         CNVRico         .... off

SCF Procedure:
 Maximum # iterations   MaxIter         ....   125
 SCF integral mode      SCFMode         .... Direct
   Integral package                     .... SHARK and LIBINT hybrid scheme
 Reset frequency        DirectResetFreq ....    20
 Integral Threshold     Thresh          ....  2.500e-11 Eh
 Primitive CutOff       TCut            ....  2.500e-12 Eh

Convergence Tolerance:
 Convergence Check Mode ConvCheckMode   .... Total+1el-Energy
 Convergence forced     ConvForced      .... 0
 Energy Change          TolE            ....  1.000e-08 Eh
 1-El. energy change                    ....  1.000e-05 Eh
 DIIS Error             TolErr          ....  5.000e-07


Diagonalization of the overlap matrix:
Smallest eigenvalue                        ... 1.385e-03
Time for diagonalization                   ...    0.009 sec
Threshold for overlap eigenvalues          ... 1.000e-08
Number of eigenvalues below threshold      ... 0
Time for construction of square roots      ...    0.004 sec
Total time needed                          ...    0.014 sec

--------------------------------
INITIAL GUESS: MINIMAL BASIS EHT
--------------------------------
The minimal basis has 70 functions
EHT matrix was diagonalized
Basis set overlap was calculated now projecting the orbitals
Using GuessMode=FMatrix for the initial guess
C*T matrix was formed
Effective Fockian was calculated
Effective Fockian was diagonalized
Initial density was built
                      ------------------
                      INITIAL GUESS DONE
                      ------------------
-------------------
DFT GRID GENERATION
-------------------

General Integration Accuracy     IntAcc      ... 4.159
Radial Grid Type                 RadialGrid  ... OptM3 with GC (2021)
Angular Grid (max. ang.)         AngularGrid ... 3 (Lebedev-194)
Angular grid pruning method      GridPruning ... 4 (adaptive)
Weight generation scheme         WeightScheme... Becke
Basis function cutoff            BFCut       ... 1.0000e-11
Integration weight cutoff        WCut        ... 1.0000e-14
Angular grids for H and He will be reduced by one unit
Partially contracted basis set               ... off
Rotationally invariant grid construction     ... off

Total number of grid points                  ...    48239
Total number of batches                      ...      766
Average number of points per batch           ...       62
Average number of grid points per atom       ...     2297
Time for grid setup =    0.156 sec

--------------------
COSX GRID GENERATION
--------------------

GRIDX 1
-------
General Integration Accuracy     IntAcc      ... 3.816
Radial Grid Type                 RadialGrid  ... OptM3 with GC (2021)
Angular Grid (max. ang.)         AngularGrid ... 1 (Lebedev-50)
Angular grid pruning method      GridPruning ... 4 (adaptive)
Weight generation scheme         WeightScheme... Becke
Basis function cutoff            BFCut       ... 1.0000e-11
Integration weight cutoff        WCut        ... 1.0000e-14
Angular grids for H and He will be reduced by one unit
Partially contracted basis set               ... on
Rotationally invariant grid construction     ... off

Total number of grid points                  ...    12293
Total number of batches                      ...      203
Average number of points per batch           ...       60
Average number of grid points per atom       ...      585
UseSFitting                                  ... on

GRIDX 2
-------
General Integration Accuracy     IntAcc      ... 4.020
Radial Grid Type                 RadialGrid  ... OptM3 with GC (2021)
Angular Grid (max. ang.)         AngularGrid ... 2 (Lebedev-110)
Angular grid pruning method      GridPruning ... 4 (adaptive)
Weight generation scheme         WeightScheme... Becke
Basis function cutoff            BFCut       ... 1.0000e-11
Integration weight cutoff        WCut        ... 1.0000e-14
Angular grids for H and He will be reduced by one unit
Partially contracted basis set               ... on
Rotationally invariant grid construction     ... off

Total number of grid points                  ...    25999
Total number of batches                      ...      419
Average number of points per batch           ...       62
Average number of grid points per atom       ...     1238
UseSFitting                                  ... on

GRIDX 3
-------
General Integration Accuracy     IntAcc      ... 4.338
Radial Grid Type                 RadialGrid  ... OptM3 with GC (2021)
Angular Grid (max. ang.)         AngularGrid ... 3 (Lebedev-194)
Angular grid pruning method      GridPruning ... 4 (adaptive)
Weight generation scheme         WeightScheme... Becke
Basis function cutoff            BFCut       ... 1.0000e-11
Integration weight cutoff        WCut        ... 1.0000e-14
Angular grids for H and He will be reduced by one unit
Partially contracted basis set               ... on
Rotationally invariant grid construction     ... off

Total number of grid points                  ...    56966
Total number of batches                      ...      903
Average number of points per batch           ...       63
Average number of grid points per atom       ...     2713
UseSFitting                                  ... on

Time for X-Grid setup             =    0.347 sec

--------------
SCF ITERATIONS
--------------
ITER       Energy         Delta-E        Max-DP      RMS-DP      [F,P]     Damp
               ***  Starting incremental Fock matrix formation  ***
  0  -1102.5503000809   0.000000000000 0.54678843  0.00783913  0.5854032 0.7000
  1  -1102.0636324031   0.486667677784 0.17253600  0.00501143  0.2957153 0.7000
  2  -1102.9331197138  -0.869487310636 0.11377428  0.00336727  0.2126806 0.7000
                               ***Turning on DIIS***
  3  -1103.3959118282  -0.462792114402 0.07866931  0.00213519  0.1706737 0.7000
  4  -1103.6783510197  -0.282439191533 0.06626539  0.00191140  0.1296271 0.7000
  5  -1103.8838446014  -0.205493581742 0.17559876  0.00510051  0.0915332 0.0000
  6  -1104.3918796138  -0.508035012336 0.05476707  0.00105962  0.0466024 0.0000
  7  -1104.4004804116  -0.008600797834 0.01349950  0.00033972  0.0093796 0.0000
  8  -1104.4019130409  -0.001432629264 0.01131369  0.00025631  0.0074176 0.0000
  9  -1104.4027249970  -0.000811956149 0.01201324  0.00023120  0.0051482 0.0000
 10  -1104.4031890485  -0.000464051454 0.00781482  0.00014455  0.0021566 0.0000
 11  -1104.4033965801  -0.000207531597 0.00518497  0.00010140  0.0016151 0.0000
 12  -1104.4035110993  -0.000114519255 0.00489915  0.00009224  0.0012496 0.0000
 13  -1104.4035924363  -0.000081336952 0.00419883  0.00008250  0.0011255 0.0000
 14  -1104.4036534686  -0.000061032304 0.00323365  0.00006902  0.0010131 0.0000
 15  -1104.4036971213  -0.000043652718 0.00832195  0.00018049  0.0006937 0.0000
               *** Restarting incremental Fock matrix formation ***
                                   *** Resetting DIIS ***
 16  -1104.4039606792  -0.000263557862 0.00168882  0.00004701  0.0004470 0.0000
 17  -1104.4039736788  -0.000012999688 0.00129272  0.00003187  0.0003549 0.0000
 18  -1104.4039807561  -0.000007077284 0.00198958  0.00004942  0.0002869 0.0000
 19  -1104.4039882453  -0.000007489203 0.00153024  0.00003597  0.0002458 0.0000
 20  -1104.4039917209  -0.000003475614 0.00112205  0.00002685  0.0001133 0.0000
 21  -1104.4039928587  -0.000001137794 0.00037175  0.00000884  0.0000467 0.0000
 22  -1104.4039929946  -0.000000135897 0.00005183  0.00000152  0.0000168 0.0000
 23  -1104.4039929963  -0.000000001705 0.00003007  0.00000079  0.0000067 0.0000
 24  -1104.4039929988  -0.000000002434 0.00001095  0.00000032  0.0000058 0.0000
 25  -1104.4039930021  -0.000000003364 0.00001745  0.00000048  0.0000047 0.0000
 26  -1104.4039929940   0.000000008125 0.00000822  0.00000018  0.0000033 0.0000
 27  -1104.4039929880   0.000000006042 0.00000766  0.00000019  0.0000018 0.0000
 28  -1104.4039929886  -0.000000000591 0.00000890  0.00000020  0.0000015 0.0000
                 **** Energy Check signals convergence ****

               *****************************************************
               *                     SUCCESS                       *
               *           SCF CONVERGED AFTER  29 CYCLES          *
               *****************************************************

Old exchange energy                            =    -36.277771688 Eh
New exchange energy                            =    -36.277783910 Eh
Exchange energy change after final integration =     -0.000012222 Eh
Total energy after final integration           =  -1104.404005207 Eh
Final COS-X integration done in                =     1.509 sec

----------------
TOTAL SCF ENERGY
----------------

Total Energy       :        -1104.40400521 Eh          -30052.36081 eV

Components:
Nuclear Repulsion  :          570.21404154 Eh           15516.31290 eV
Electronic Energy  :        -1674.61804675 Eh          -45568.67372 eV
One Electron Energy:        -2625.98304645 Eh          -71456.63148 eV
Two Electron Energy:          951.36499971 Eh           25887.95776 eV
Max COSX asymmetry :            0.00000456 Eh               0.00012 eV

Virial components:
Potential Energy   :        -2205.39497738 Eh          -60011.84828 eV
Kinetic Energy     :         1100.99097218 Eh           29959.48746 eV
Virial Ratio       :            2.00309996


DFT components:
N(Alpha)           :       41.000134979995 electrons
N(Beta)            :       41.000134979995 electrons
N(Total)           :       82.000269959990 electrons
E(X)               :      -48.380132418277 Eh       
E(C)               :       -3.761132324526 Eh       
E(XC)              :      -52.141264742803 Eh       
DFET-embed. en.    :        0.000000000000 Eh       

---------------
SCF CONVERGENCE
---------------

  Last Energy change         ...    3.8042e-09  Tolerance :   1.0000e-08
  Last MAX-Density change    ...    0.0000e+00  Tolerance :   1.0000e-07
  Last RMS-Density change    ...    0.0000e+00  Tolerance :   5.0000e-09
  Last DIIS Error            ...    1.0398e-06  Tolerance :   5.0000e-07

             **** THE GBW FILE WAS UPDATED (reaction-5-cineb5_optts_Compound_1.gbw) ****
             **** DENSITY reaction-5-cineb5_optts_Compound_1.scfp WAS UPDATED ****
             **** ENERGY FILE WAS UPDATED (reaction-5-cineb5_optts_Compound_1.en.tmp) ****
             **** THE GBW FILE WAS UPDATED (reaction-5-cineb5_optts_Compound_1.gbw) ****
             **** DENSITY reaction-5-cineb5_optts_Compound_1.scfp WAS UPDATED ****
----------------
ORBITAL ENERGIES
----------------

  NO   OCC          E(Eh)            E(eV) 
   0   2.0000    -162.841237     -4431.1353 
   1   2.0000     -18.146446      -493.7899 
   2   2.0000     -14.988044      -407.8454 
   3   2.0000     -14.982116      -407.6841 
   4   2.0000     -14.975883      -407.5145 
   5   2.0000     -14.862665      -404.4337 
   6   2.0000     -14.859619      -404.3508 
   7   2.0000     -10.642180      -289.5884 
   8   2.0000     -10.629764      -289.2506 
   9   2.0000     -10.626398      -289.1590 
  10   2.0000     -10.623438      -289.0784 
  11   2.0000     -10.622944      -289.0650 
  12   2.0000     -10.525345      -286.4092 
  13   2.0000      -2.373129       -64.5761 
  14   2.0000      -1.530128       -41.6369 
  15   2.0000      -1.518142       -41.3107 
  16   2.0000      -1.509767       -41.0829 
  17   2.0000      -1.310193       -35.6522 
  18   2.0000      -1.187079       -32.3021 
  19   2.0000      -1.026678       -27.9373 
  20   2.0000      -0.980579       -26.6829 
  21   2.0000      -0.927460       -25.2375 
  22   2.0000      -0.841297       -22.8929 
  23   2.0000      -0.824038       -22.4232 
  24   2.0000      -0.804696       -21.8969 
  25   2.0000      -0.749941       -20.4069 
  26   2.0000      -0.702763       -19.1231 
  27   2.0000      -0.674160       -18.3448 
  28   2.0000      -0.657322       -17.8867 
  29   2.0000      -0.654706       -17.8155 
  30   2.0000      -0.652380       -17.7522 
  31   2.0000      -0.608240       -16.5511 
  32   2.0000      -0.599159       -16.3039 
  33   2.0000      -0.592089       -16.1116 
  34   2.0000      -0.532016       -14.4769 
  35   2.0000      -0.524640       -14.2762 
  36   2.0000      -0.511073       -13.9070 
  37   2.0000      -0.485766       -13.2184 
  38   2.0000      -0.459690       -12.5088 
  39   2.0000      -0.435908       -11.8617 
  40   2.0000      -0.324736        -8.8365 
  41   0.0000      -0.189891        -5.1672 
  42   0.0000      -0.164018        -4.4632 
  43   0.0000      -0.153326        -4.1722 
  44   0.0000      -0.141636        -3.8541 
  45   0.0000      -0.137635        -3.7452 
  46   0.0000      -0.125395        -3.4122 
  47   0.0000      -0.080344        -2.1863 
  48   0.0000      -0.072268        -1.9665 
  49   0.0000      -0.058292        -1.5862 
  50   0.0000      -0.037791        -1.0283 
  51   0.0000      -0.004873        -0.1326 
  52   0.0000       0.027642         0.7522 
  53   0.0000       0.044288         1.2051 
  54   0.0000       0.047659         1.2969 
  55   0.0000       0.050853         1.3838 
  56   0.0000       0.065302         1.7770 
  57   0.0000       0.067517         1.8372 
  58   0.0000       0.075618         2.0577 
  59   0.0000       0.078045         2.1237 
  60   0.0000       0.082286         2.2391 
  61   0.0000       0.084890         2.3100 
  62   0.0000       0.120651         3.2831 
  63   0.0000       0.123541         3.3617 
  64   0.0000       0.144436         3.9303 
  65   0.0000       0.148594         4.0434 
  66   0.0000       0.163169         4.4400 
  67   0.0000       0.172093         4.6829 
  68   0.0000       0.215940         5.8760 
  69   0.0000       0.226055         6.1513 
  70   0.0000       0.302996         8.2449 
  71   0.0000       0.326174         8.8756 
  72   0.0000       0.331651         9.0247 
  73   0.0000       0.343699         9.3525 
  74   0.0000       0.358524         9.7559 
  75   0.0000       0.374941        10.2027 
  76   0.0000       0.389963        10.6114 
  77   0.0000       0.393604        10.7105 
  78   0.0000       0.409473        11.1423 
  79   0.0000       0.423663        11.5285 
  80   0.0000       0.436288        11.8720 
  81   0.0000       0.443228        12.0608 
  82   0.0000       0.490731        13.3535 
  83   0.0000       0.494564        13.4578 
  84   0.0000       0.512125        13.9356 
  85   0.0000       0.518091        14.0980 
  86   0.0000       0.522830        14.2269 
  87   0.0000       0.531708        14.4685 
  88   0.0000       0.558708        15.2032 
  89   0.0000       0.564644        15.3647 
  90   0.0000       0.573877        15.6160 
  91   0.0000       0.598810        16.2945 
  92   0.0000       0.656887        17.8748 
  93   0.0000       0.670733        18.2516 
  94   0.0000       0.690566        18.7913 
  95   0.0000       0.765812        20.8388 
  96   0.0000       0.767507        20.8849 
  97   0.0000       0.775083        21.0911 
  98   0.0000       0.788174        21.4473 
  99   0.0000       0.796760        21.6809 
 100   0.0000       0.826252        22.4835 
 101   0.0000       0.832981        22.6666 
 102   0.0000       0.848960        23.1014 
 103   0.0000       0.865899        23.5623 
 104   0.0000       0.868999        23.6467 
 105   0.0000       0.880360        23.9558 
 106   0.0000       0.893739        24.3199 
 107   0.0000       0.909841        24.7580 
 108   0.0000       0.922474        25.1018 
 109   0.0000       0.928717        25.2717 
 110   0.0000       0.942789        25.6546 
 111   0.0000       0.964940        26.2574 
 112   0.0000       0.970790        26.4165 
 113   0.0000       0.972591        26.4655 
 114   0.0000       0.975596        26.5473 
 115   0.0000       0.988051        26.8862 
 116   0.0000       1.037234        28.2246 
 117   0.0000       1.069219        29.0949 
 118   0.0000       1.105052        30.0700 
 119   0.0000       1.111952        30.2577 
 120   0.0000       1.158578        31.5265 
 121   0.0000       1.172796        31.9134 
 122   0.0000       1.219872        33.1944 
 123   0.0000       1.233578        33.5674 
 124   0.0000       1.276283        34.7294 
 125   0.0000       1.300752        35.3953 
 126   0.0000       1.332095        36.2481 
 127   0.0000       1.374302        37.3967 
 128   0.0000       1.464594        39.8536 
 129   0.0000       1.492949        40.6252 
 130   0.0000       1.510633        41.1064 
 131   0.0000       1.572063        42.7780 
 132   0.0000       1.685969        45.8775 
 133   0.0000       1.720805        46.8255 
 134   0.0000       1.732908        47.1548 
 135   0.0000       1.759614        47.8815 
 136   0.0000       1.816848        49.4389 
 137   0.0000       1.845903        50.2296 
 138   0.0000       1.854245        50.4566 
 139   0.0000       1.867326        50.8125 
 140   0.0000       1.899240        51.6809 
 141   0.0000       1.939236        52.7693 
 142   0.0000       1.958737        53.2999 
 143   0.0000       2.004963        54.5578 
 144   0.0000       2.047032        55.7026 
 145   0.0000       2.054581        55.9080 
 146   0.0000       2.077120        56.5213 
 147   0.0000       2.123247        57.7765 
 148   0.0000       2.155636        58.6578 
 149   0.0000       2.165072        58.9146 
 150   0.0000       2.173485        59.1435 
 151   0.0000       2.198552        59.8256 
 152   0.0000       2.231854        60.7318 
 153   0.0000       2.249832        61.2210 
 154   0.0000       2.257636        61.4334 
 155   0.0000       2.281689        62.0879 
 156   0.0000       2.357729        64.1571 
 157   0.0000       2.372325        64.5542 
 158   0.0000       2.428239        66.0757 
 159   0.0000       2.520700        68.5917 
 160   0.0000       2.532517        68.9133 
 161   0.0000       2.666420        72.5570 
 162   0.0000       2.708526        73.7027 
 163   0.0000       2.743279        74.6484 
 164   0.0000       2.959853        80.5417 
 165   0.0000       3.016666        82.0876 
 166   0.0000       3.070156        83.5432 
 167   0.0000      13.360657       363.5620 
 168   0.0000      13.557817       368.9270 
 169   0.0000      13.604115       370.1868 
 170   0.0000      13.640344       371.1726 
 171   0.0000      13.772113       374.7583 
 172   0.0000      13.996222       380.8566 
 173   0.0000      19.106287       519.9085 
 174   0.0000      19.315106       525.5908 

                    ********************************
                    * MULLIKEN POPULATION ANALYSIS *
                    ********************************

-----------------------
MULLIKEN ATOMIC CHARGES
-----------------------
   0 Sc:    0.695207
   1 C :    0.203206
   2 N :   -0.421185
   3 C :   -0.063791
   4 C :   -0.068312
   5 N :   -0.414803
   6 C :   -0.532402
   7 H :    0.280810
   8 H :    0.294130
   9 H :    0.243546
  10 C :   -0.511534
  11 H :    0.222871
  12 H :    0.286860
  13 H :    0.278720
  14 H :    0.300957
  15 H :    0.298504
  16 C :   -0.846115
  17 H :    0.248281
  18 H :    0.212407
  19 H :    0.202610
  20 H :    0.090032
Sum of atomic charges:    1.0000000

--------------------------------
MULLIKEN REDUCED ORBITAL CHARGES
--------------------------------
  0 Scs       :     6.420502  s :     6.420502
      pz      :     4.191877  p :    12.324898
      px      :     4.058122
      py      :     4.074900
      dz2     :     0.374394  d :     1.540079
      dxz     :     0.683818
      dyz     :     0.056932
      dx2y2   :     0.357523
      dxy     :     0.067411
      f0      :     0.004625  f :     0.019313
      f+1     :     0.008313
      f-1     :     0.000802
      f+2     :     0.003375
      f-2     :     0.001565
      f+3     :     0.000449
      f-3     :     0.000184
  1 C s       :     3.209051  s :     3.209051
      pz      :     1.007744  p :     2.520844
      px      :     0.813421
      py      :     0.699680
      dz2     :     0.008132  d :     0.066899
      dxz     :     0.010770
      dyz     :     0.021422
      dx2y2   :     0.014797
      dxy     :     0.011778
  2 N s       :     3.531701  s :     3.531701
      pz      :     1.229131  p :     3.837012
      px      :     1.360737
      py      :     1.247144
      dz2     :     0.012805  d :     0.052472
      dxz     :     0.008126
      dyz     :     0.012620
      dx2y2   :     0.009968
      dxy     :     0.008952
  3 C s       :     3.153648  s :     3.153648
      pz      :     0.854458  p :     2.855037
      px      :     1.055579
      py      :     0.945000
      dz2     :     0.014139  d :     0.055105
      dxz     :     0.010655
      dyz     :     0.013485
      dx2y2   :     0.006948
      dxy     :     0.009878
  4 C s       :     3.160463  s :     3.160463
      pz      :     0.871537  p :     2.852518
      px      :     0.942029
      py      :     1.038952
      dz2     :     0.013001  d :     0.055330
      dxz     :     0.011058
      dyz     :     0.013726
      dx2y2   :     0.011244
      dxy     :     0.006301
  5 N s       :     3.531918  s :     3.531918
      pz      :     1.222591  p :     3.831087
      px      :     1.372108
      py      :     1.236388
      dz2     :     0.012099  d :     0.051798
      dxz     :     0.009133
      dyz     :     0.011815
      dx2y2   :     0.009083
      dxy     :     0.009668
  6 C s       :     3.379452  s :     3.379452
      pz      :     1.183667  p :     3.104418
      px      :     1.001256
      py      :     0.919495
      dz2     :     0.008256  d :     0.048532
      dxz     :     0.004268
      dyz     :     0.013377
      dx2y2   :     0.010412
      dxy     :     0.012219
  7 H s       :     0.719190  s :     0.719190
  8 H s       :     0.705870  s :     0.705870
  9 H s       :     0.756454  s :     0.756454
 10 C s       :     3.368557  s :     3.368557
      pz      :     1.118860  p :     3.093994
      px      :     1.144111
      py      :     0.831023
      dz2     :     0.009726  d :     0.048983
      dxz     :     0.004269
      dyz     :     0.010940
      dx2y2   :     0.015714
      dxy     :     0.008334
 11 H s       :     0.777129  s :     0.777129
 12 H s       :     0.713140  s :     0.713140
 13 H s       :     0.721280  s :     0.721280
 14 H s       :     0.699043  s :     0.699043
 15 H s       :     0.701496  s :     0.701496
 16 C s       :     3.454903  s :     3.454903
      pz      :     1.110193  p :     3.365954
      px      :     1.137968
      py      :     1.117793
      dz2     :     0.005264  d :     0.025258
      dxz     :     0.011500
      dyz     :     0.000482
      dx2y2   :     0.002884
      dxy     :     0.005128
 17 H s       :     0.751719  s :     0.751719
 18 H s       :     0.787593  s :     0.787593
 19 H s       :     0.797390  s :     0.797390
 20 H s       :     0.909968  s :     0.909968


                     *******************************
                     * LOEWDIN POPULATION ANALYSIS *
                     *******************************

----------------------
LOEWDIN ATOMIC CHARGES
----------------------
   0 Sc:    0.528513
   1 C :   -0.034875
   2 N :   -0.004735
   3 C :   -0.089519
   4 C :   -0.077820
   5 N :   -0.003205
   6 C :   -0.239298
   7 H :    0.157582
   8 H :    0.164372
   9 H :    0.141596
  10 C :   -0.231250
  11 H :    0.135657
  12 H :    0.157964
  13 H :    0.154293
  14 H :    0.169119
  15 H :    0.168239
  16 C :   -0.543317
  17 H :    0.139924
  18 H :    0.126435
  19 H :    0.120175
  20 H :    0.060149

-------------------------------
LOEWDIN REDUCED ORBITAL CHARGES
-------------------------------
  0 Scs       :     6.390704  s :     6.390704
      pz      :     4.234916  p :    12.376599
      px      :     4.056428
      py      :     4.085255
      dz2     :     0.432960  d :     1.661173
      dxz     :     0.714413
      dyz     :     0.067342
      dx2y2   :     0.370067
      dxy     :     0.076391
      f0      :     0.011917  f :     0.043010
      f+1     :     0.016185
      f-1     :     0.002302
      f+2     :     0.006215
      f-2     :     0.003770
      f+3     :     0.001935
      f-3     :     0.000687
  1 C s       :     2.951551  s :     2.951551
      pz      :     1.139922  p :     2.937212
      px      :     0.916481
      py      :     0.880809
      dz2     :     0.016440  d :     0.146113
      dxz     :     0.021427
      dyz     :     0.046174
      dx2y2   :     0.033333
      dxy     :     0.028739
  2 N s       :     3.044931  s :     3.044931
      pz      :     1.251545  p :     3.833638
      px      :     1.339755
      py      :     1.242338
      dz2     :     0.031887  d :     0.126166
      dxz     :     0.020591
      dyz     :     0.031730
      dx2y2   :     0.021434
      dxy     :     0.020523
  3 C s       :     2.880160  s :     2.880160
      pz      :     0.967998  p :     3.085834
      px      :     1.065668
      py      :     1.052167
      dz2     :     0.032989  d :     0.123525
      dxz     :     0.021418
      dyz     :     0.031943
      dx2y2   :     0.015167
      dxy     :     0.022008
  4 C s       :     2.885749  s :     2.885749
      pz      :     0.969504  p :     3.068979
      px      :     1.009745
      py      :     1.089731
      dz2     :     0.029723  d :     0.123091
      dxz     :     0.025164
      dyz     :     0.029252
      dx2y2   :     0.023971
      dxy     :     0.014982
  5 N s       :     3.045339  s :     3.045339
      pz      :     1.250010  p :     3.833379
      px      :     1.334638
      py      :     1.248731
      dz2     :     0.030346  d :     0.124487
      dxz     :     0.021747
      dyz     :     0.031150
      dx2y2   :     0.019902
      dxy     :     0.021342
  6 C s       :     2.945161  s :     2.945161
      pz      :     1.156584  p :     3.201478
      px      :     1.051518
      py      :     0.993376
      dz2     :     0.014644  d :     0.092659
      dxz     :     0.007618
      dyz     :     0.024770
      dx2y2   :     0.020938
      dxy     :     0.024690
  7 H s       :     0.842418  s :     0.842418
  8 H s       :     0.835628  s :     0.835628
  9 H s       :     0.858404  s :     0.858404
 10 C s       :     2.939592  s :     2.939592
      pz      :     1.122127  p :     3.197722
      px      :     1.137681
      py      :     0.937915
      dz2     :     0.017609  d :     0.093936
      dxz     :     0.006784
      dyz     :     0.021730
      dx2y2   :     0.030752
      dxy     :     0.017060
 11 H s       :     0.864343  s :     0.864343
 12 H s       :     0.842036  s :     0.842036
 13 H s       :     0.845707  s :     0.845707
 14 H s       :     0.830881  s :     0.830881
 15 H s       :     0.831761  s :     0.831761
 16 C s       :     3.072774  s :     3.072774
      pz      :     1.137786  p :     3.431300
      px      :     1.159078
      py      :     1.134436
      dz2     :     0.008697  d :     0.039243
      dxz     :     0.017901
      dyz     :     0.000677
      dx2y2   :     0.004120
      dxy     :     0.007849
 17 H s       :     0.860076  s :     0.860076
 18 H s       :     0.873565  s :     0.873565
 19 H s       :     0.879825  s :     0.879825
 20 H s       :     0.939851  s :     0.939851


                      *****************************
                      * MAYER POPULATION ANALYSIS *
                      *****************************

  NA   - Mulliken gross atomic population
  ZA   - Total nuclear charge
  QA   - Mulliken gross atomic charge
  VA   - Mayer's total valence
  BVA  - Mayer's bonded valence
  FA   - Mayer's free valence

  ATOM       NA         ZA         QA         VA         BVA        FA
  0 Sc    20.3048    21.0000     0.6952     2.4831     2.4831    -0.0000
  1 C      5.7968     6.0000     0.2032     3.1871     3.1871     0.0000
  2 N      7.4212     7.0000    -0.4212     3.3944     3.3944     0.0000
  3 C      6.0638     6.0000    -0.0638     3.7441     3.7441    -0.0000
  4 C      6.0683     6.0000    -0.0683     3.7546     3.7546    -0.0000
  5 N      7.4148     7.0000    -0.4148     3.3908     3.3908     0.0000
  6 C      6.5324     6.0000    -0.5324     3.5953     3.5953    -0.0000
  7 H      0.7192     1.0000     0.2808     0.8943     0.8943     0.0000
  8 H      0.7059     1.0000     0.2941     0.8816     0.8816     0.0000
  9 H      0.7565     1.0000     0.2435     0.9003     0.9003     0.0000
 10 C      6.5115     6.0000    -0.5115     3.6294     3.6294    -0.0000
 11 H      0.7771     1.0000     0.2229     0.9143     0.9143    -0.0000
 12 H      0.7131     1.0000     0.2869     0.8809     0.8809    -0.0000
 13 H      0.7213     1.0000     0.2787     0.8840     0.8840     0.0000
 14 H      0.6990     1.0000     0.3010     0.8793     0.8793     0.0000
 15 H      0.7015     1.0000     0.2985     0.8820     0.8820     0.0000
 16 C      6.8461     6.0000    -0.8461     3.7186     3.7186    -0.0000
 17 H      0.7517     1.0000     0.2483     0.9087     0.9087    -0.0000
 18 H      0.7876     1.0000     0.2124     0.9219     0.9219     0.0000
 19 H      0.7974     1.0000     0.2026     0.9154     0.9154    -0.0000
 20 H      0.9100     1.0000     0.0900     0.9748     0.9748     0.0000

  Mayer bond orders larger than 0.100000
B(  0-Sc,  1-C ) :   0.6368 B(  0-Sc, 16-C ) :   0.8478 B(  0-Sc, 20-H ) :   0.8822 
B(  1-C ,  2-N ) :   1.2268 B(  1-C ,  5-N ) :   1.2421 B(  2-N ,  3-C ) :   1.1333 
B(  2-N , 10-C ) :   0.9202 B(  3-C ,  4-C ) :   1.6585 B(  3-C , 14-H ) :   0.8790 
B(  4-C ,  5-N ) :   1.1324 B(  4-C , 15-H ) :   0.8803 B(  5-N ,  6-C ) :   0.9054 
B(  6-C ,  7-H ) :   0.9032 B(  6-C ,  8-H ) :   0.8764 B(  6-C ,  9-H ) :   0.9064 
B( 10-C , 11-H ) :   0.9186 B( 10-C , 12-H ) :   0.8910 B( 10-C , 13-H ) :   0.8939 
B( 16-C , 17-H ) :   0.9170 B( 16-C , 18-H ) :   0.9217 B( 16-C , 19-H ) :   0.9167 


-------
TIMINGS
-------

Total SCF time: 0 days 0 hours 0 min 22 sec 

Total time                  ....      22.162 sec
Sum of individual times     ....      21.866 sec  ( 98.7%)

Fock matrix formation       ....      20.921 sec  ( 94.4%)
  Split-RI-J                ....       2.929 sec  ( 14.0% of F)
  Chain of spheres X        ....      15.608 sec  ( 74.6% of F)
  XC integration            ....       2.252 sec  ( 10.8% of F)
    Basis function eval.    ....       0.899 sec  ( 39.9% of XC)
    Density eval.           ....       0.431 sec  ( 19.1% of XC)
    XC-Functional eval.     ....       0.227 sec  ( 10.1% of XC)
    XC-Potential eval.      ....       0.442 sec  ( 19.6% of XC)
Diagonalization             ....       0.228 sec  (  1.0%)
Density matrix formation    ....       0.013 sec  (  0.1%)
Population analysis         ....       0.008 sec  (  0.0%)
Initial guess               ....       0.020 sec  (  0.1%)
Orbital Transformation      ....       0.000 sec  (  0.0%)
Orbital Orthonormalization  ....       0.000 sec  (  0.0%)
DIIS solution               ....       0.173 sec  (  0.8%)
Grid generation             ....       0.503 sec  (  2.3%)

Maximum memory used throughout the entire SCF-calculation: 69.6 MB


-------------------------------------------------------------------------------
                          DFT DISPERSION CORRECTION                            
                                                                               
                              DFTD3 V3.1  Rev 1                                
                          USING Becke-Johnson damping                          
-------------------------------------------------------------------------------
The PBEh-3c composite method is recognized
Using three-body term ABC
Active option DFTDOPT                   ...         4   

molecular C6(AA) [au] = 5488.497200 


            DFT-D V3
 parameters
 s6 scaling factor         :     1.0000 
 a1 scaling factor         :     0.4860 
 s8 scaling factor         :     0.0000 
 a2 scaling factor         :     4.5000 
 Damping factor alpha9(ATM):    16.0000 
 ad hoc parameters k1-k3   :    16.0000     1.3333    -4.0000 

 Edisp/kcal,au: -6.973861065765  -0.011113553835 
 E6   /kcal   :  -7.019990651 
 E8   /kcal   :  -0.000000000 
 E6(ABC)      :   0.046129585 
 % E8         :   0.000000000 
 % E6(ABC)    :  -0.661464066 

-------------------------   ----------------
Dispersion correction           -0.011113554
-------------------------   ----------------

------------------   -----------------
gCP correction             0.033322861
------------------   -----------------

-------------------------   --------------------
FINAL SINGLE POINT ENERGY     -1104.381795900099
-------------------------   --------------------



           ************************************************************
           *        Program running with 8 parallel MPI-processes     *
           *              working on a common directory               *
           ************************************************************
------------------------------------------------------------------------------
                         ORCA SCF GRADIENT CALCULATION
------------------------------------------------------------------------------

 ... reading COSX grid (gridx3)
Gradient of the Kohn-Sham DFT energy:
Kohn-Sham wavefunction type      ... RKS
Hartree-Fock exchange scaling    ...    0.420
Number of operators              ...    1
Number of atoms                  ...   21
Basis set dimensions             ...  175
Integral neglect threshold       ... 2.5e-11
Integral primitive cutoff        ... 2.5e-12
SHARK Integral package           ... ON

Nuc. rep. gradient       (SHARK) ... done (  0.0 sec)
HCore & Overlap gradient (SHARK) ... done (  0.1 sec)
RI-J gradient            (SHARK) ... done (  0.6 sec)
COSX-gradient                    ... done (  1.8 sec)
Exchange-correlation gradient    ... done
Dispersion correction            ... done
gCP correction                   ... done

------------------
CARTESIAN GRADIENT
------------------

   1   Sc  :    0.000772864   -0.038839440   -0.005429178
   2   C   :    0.007165409    0.002825353    0.012113086
   3   N   :   -0.007386875    0.002787678   -0.001137993
   4   C   :    0.015311057    0.014595066   -0.006169646
   5   C   :   -0.013853895   -0.031277711   -0.008231803
   6   N   :   -0.000495042    0.009268031   -0.001130745
   7   C   :   -0.003292201    0.003335083    0.012097218
   8   H   :    0.000393364   -0.005833637   -0.003526224
   9   H   :   -0.003975485    0.006432650   -0.010604732
  10   H   :    0.009815761   -0.002436587   -0.000952887
  11   C   :   -0.002300969   -0.000579736    0.001295516
  12   H   :   -0.001417013   -0.001413877   -0.002510615
  13   H   :    0.001411507   -0.001750908   -0.000823372
  14   H   :   -0.000592405    0.000102709    0.001651500
  15   H   :   -0.002270024   -0.003066194    0.003891086
  16   H   :    0.002293562    0.009816287    0.007210648
  17   C   :   -0.016934096    0.006868043   -0.015615918
  18   H   :   -0.008873956    0.010056738   -0.003182111
  19   H   :    0.004836515    0.011827948   -0.004528270
  20   H   :   -0.002215508   -0.003332223    0.002127830
  21   H   :    0.021286093    0.010025091    0.023055782

Difference to translation invariance:
           :   -0.0003213365   -0.0005896354   -0.0004008269

Difference to rotation invariance:
           :   -0.0013882131    0.0007786561   -0.0026736723

Norm of the cartesian gradient     ...    0.0798373347
RMS gradient                       ...    0.0100585587
MAX gradient                       ...    0.0388394404

-------
TIMINGS
-------

Total SCF gradient time            ...        3.364 sec

One electron gradient       ....       0.056 sec  (  1.7%)
RI-J Coulomb gradient       ....       0.601 sec  ( 17.9%)
COSX gradient               ....       1.819 sec  ( 54.1%)
XC gradient                 ....       0.453 sec  ( 13.5%)

Maximum memory used throughout the entire SCFGRAD-calculation: 43.1 MB


           ************************************************************
           *        Program running with 8 parallel MPI-processes     *
           *              working on a common directory               *
           ************************************************************

-------------------------------------------------------------------------------
                               ORCA SCF HESSIAN
-------------------------------------------------------------------------------

                   --------- SHARK INITIALIZATION DONE ---------

Hessian of the Kohn-Sham DFT energy:
Kohn-Sham wavefunction type                      ... RKS
Hartree-Fock exchange scaling                    ...    0.420
Number of operators                              ...    1
Number of atoms                                  ...   21
Basis set dimensions                             ...  175
Integral neglect threshold                       ... 2.5e-11
Integral primitive cutoff                        ... 2.5e-12

Setting up DFT Hessian calculations              ... 

HESS GRID
---------

General Integration Accuracy     IntAcc      ... 4.388
Radial Grid Type                 RadialGrid  ... OptM3 with GC (2021)
Angular Grid (max. ang.)         AngularGrid ... 4 (Lebedev-302)
Angular grid pruning method      GridPruning ... 4 (adaptive)
Weight generation scheme         WeightScheme... Becke
Basis function cutoff            BFCut       ... 1.0000e-11
Integration weight cutoff        WCut        ... 1.0000e-14
Angular grids for H and He will be reduced by one unit
Partially contracted basis set               ... off
Rotationally invariant grid construction     ... off

Total number of grid points                  ...    97790
Total number of batches                      ...     1540
Average number of points per batch           ...       63
Average number of grid points per atom       ...     4657

Building densities                               ... done   (      0.0 sec)
Calculating rho(r) on the grid                   ... done   (      0.1 sec)
Building xc-kernel on the grid                   ... done   (      0.0 sec)
                                                     done   (      0.7 sec)

Nuclear repulsion Hessian  (SHARK)               ... done   (      0.0 sec)

----------------------------------------------
Forming right-hand sides of CP-SCF equations     ...
----------------------------------------------
One electron integral derivatives  (SHARK)       ... done   (      0.1 sec)
Transforming the overlap derivative matrices     ... done   (      0.0 sec)
Making the Q(x) pseudodensities                  ... done   (      0.0 sec)
Adding the E*S(x)*S(y) terms to the Hessian      ... done   (      0.0 sec)
Calculating energy weighted overlap derivatives  ... done   (      0.0 sec)
Two electron integral derivatives (SHARK-RI)     ... done   (      7.3 sec)
Exchange-correlation integral derivatives        ... done   (      9.5 sec)
tr(F(y)Q(x)) contribution to the Hessian         ... done   (      0.0 sec)
Response fock operator R(S(x)) (SHARK-RI)        ... done   (      7.4 sec)
XC Response fock operator R(S(x))                ... done   (      3.9 sec)
tr(F(y)S(x)) contribution to the Hessian         ... done   (      0.0 sec)
Transforming and finalizing RHSs                 ... done   (      0.1 sec)

----------------------------------------------
Solving the CP-SCF equations (RI)                ...
----------------------------------------------
     CP-SCF ITERATION   0:   2.0611e-01 (   2.5 sec   0/ 63 done)
     CP-SCF ITERATION   1:   7.8775e-02 (   2.6 sec   0/ 63 done)
     CP-SCF ITERATION   2:   5.1613e-02 (   2.6 sec   0/ 63 done)
     CP-SCF ITERATION   3:   2.6653e-02 (   2.6 sec   0/ 63 done)
     CP-SCF ITERATION   4:   1.4043e-02 (   2.6 sec   0/ 63 done)
     CP-SCF ITERATION   5:   6.5858e-03 (   2.6 sec   1/ 63 done)
     CP-SCF ITERATION   6:   3.8570e-03 (   2.6 sec   2/ 63 done)
     CP-SCF ITERATION   7:   1.9289e-03 (   2.5 sec   8/ 63 done)
     CP-SCF ITERATION   8:   1.0934e-03 (   2.4 sec  24/ 63 done)
     CP-SCF ITERATION   9:   6.0115e-04 (   1.9 sec  38/ 63 done)
     CP-SCF ITERATION  10:   3.2464e-04 (   1.5 sec  52/ 63 done)
     CP-SCF ITERATION  11:   1.6363e-04 (   0.9 sec  56/ 63 done)
[...]
                          DFT DISPERSION CORRECTION                            
                                                                               
                              DFTD3 V3.1  Rev 1                                
                          USING Becke-Johnson damping                          
-------------------------------------------------------------------------------
The PBEh-3c composite method is recognized
Using three-body term ABC
Active option DFTDOPT                   ...         4   

molecular C6(AA) [au] = 5393.683874 


            DFT-D V3
 parameters
 s6 scaling factor         :     1.0000 
 a1 scaling factor         :     0.4860 
 s8 scaling factor         :     0.0000 
 a2 scaling factor         :     4.5000 
 Damping factor alpha9(ATM):    16.0000 
 ad hoc parameters k1-k3   :    16.0000     1.3333    -4.0000 

 Edisp/kcal,au: -6.729191502064  -0.010723648108 
 E6   /kcal   :  -6.747559597 
 E8   /kcal   :  -0.000000000 
 E6(ABC)      :   0.018368095 
 % E8         :   0.000000000 
 % E6(ABC)    :  -0.272961398 

-------------------------   ----------------
Dispersion correction           -0.010723648
-------------------------   ----------------

------------------   -----------------
gCP correction             0.041492998
------------------   -----------------

-------------------------   --------------------
FINAL SINGLE POINT ENERGY     -1104.433662200564
-------------------------   --------------------



           ************************************************************
           *        Program running with 8 parallel MPI-processes     *
           *              working on a common directory               *
           ************************************************************
------------------------------------------------------------------------------
                         ORCA SCF GRADIENT CALCULATION
------------------------------------------------------------------------------

 ... reading COSX grid (gridx3)
Gradient of the Kohn-Sham DFT energy:
Kohn-Sham wavefunction type      ... RKS
Hartree-Fock exchange scaling    ...    0.420
Number of operators              ...    1
Number of atoms                  ...   21
Basis set dimensions             ...  175
Integral neglect threshold       ... 2.5e-11
Integral primitive cutoff        ... 2.5e-12
SHARK Integral package           ... ON

Nuc. rep. gradient       (SHARK) ... done (  0.0 sec)
HCore & Overlap gradient (SHARK) ... done (  0.1 sec)
RI-J gradient            (SHARK) ... done (  0.4 sec)
COSX-gradient                    ... done (  1.8 sec)
Exchange-correlation gradient    ... done
Dispersion correction            ... done
gCP correction                   ... done

------------------
CARTESIAN GRADIENT
------------------

   1   Sc  :   -0.000018312    0.000063600   -0.000000971
   2   C   :   -0.000018476    0.000028541    0.000001800
   3   N   :   -0.000017838    0.000011778   -0.000015332
   4   C   :   -0.000019135   -0.000005089   -0.000008771
   5   C   :   -0.000019138   -0.000003012    0.000004921
   6   N   :   -0.000031285    0.000011066    0.000004121
   7   C   :   -0.000024376    0.000012545    0.000029707
   8   H   :   -0.000032426    0.000003055    0.000037414
   9   H   :   -0.000038155    0.000017242    0.000032357
  10   H   :   -0.000028121    0.000016486    0.000026263
  11   C   :   -0.000012986    0.000017139   -0.000029472
  12   H   :   -0.000014818    0.000034854   -0.000025230
  13   H   :   -0.000012724    0.000013442   -0.000030197
  14   H   :   -0.000009661    0.000021416   -0.000041033
  15   H   :   -0.000015098   -0.000015869   -0.000020698
  16   H   :   -0.000024088   -0.000020008    0.000010541
  17   C   :   -0.000029539    0.000066186    0.000017692
  18   H   :   -0.000025586    0.000076032    0.000015902
  19   H   :   -0.000026001    0.000085565    0.000013540
  20   H   :   -0.000028070    0.000070406    0.000030984
  21   H   :   -0.000020023    0.000063061   -0.000005819

Difference to translation invariance:
           :   -0.0004658553    0.0005684355    0.0000477190

Difference to rotation invariance:
           :    0.0042570974   -0.0005320644    0.0003753431

Norm of the cartesian gradient     ...    0.0002393941
RMS gradient                       ...    0.0000301608
MAX gradient                       ...    0.0000855650

-------
TIMINGS
-------

Total SCF gradient time            ...        3.091 sec

One electron gradient       ....       0.059 sec  (  1.9%)
RI-J Coulomb gradient       ....       0.387 sec  ( 12.5%)
COSX gradient               ....       1.822 sec  ( 59.0%)
XC gradient                 ....       0.452 sec  ( 14.6%)

Maximum memory used throughout the entire SCFGRAD-calculation: 43.0 MB

                            ***************************************
                            *     ORCA property calculations      *
                            ***************************************

                                    ---------------------
                                    Active property flags
                                    ---------------------
   (+) Dipole Moment


------------------------------------------------------------------------------
                       ORCA ELECTRIC PROPERTIES CALCULATION
------------------------------------------------------------------------------

Dipole Moment Calculation                       ... on
Quadrupole Moment Calculation                   ... off
Polarizability Calculation                      ... off
GBWName                                         ... reaction-5-cineb5_optts_Compound_2.gbw
Electron density                                ... reaction-5-cineb5_optts_Compound_2.scfp
The origin for moment calculation is the CENTER OF MASS  = ( 0.419943, -0.056974 -0.179511)

-------------
DIPOLE MOMENT
-------------
                                X             Y             Z
Electronic contribution:      5.59583      -0.41297      -2.47721
Nuclear contribution   :     -4.80158       0.58899       2.39988
                        -----------------------------------------
Total Dipole Moment    :      0.79425       0.17602      -0.07733
                        -----------------------------------------
Magnitude (a.u.)       :      0.81719
Magnitude (Debye)      :      2.07712



--------------------
Rotational spectrum 
--------------------
 
Rotational constants in cm-1:     0.063438     0.026617     0.019783 
Rotational constants in MHz :  1901.831542   797.963095   593.080444 

 Dipole components along the rotational axes: 
x,y,z [a.u.] :    -0.166849     0.525996    -0.602730 
x,y,z [Debye]:    -0.424097     1.336976    -1.532017 

 



--------------------------------------------------------------------------------
                   Intrinsic Reaction Coordinate Calculation
--------------------------------------------------------------------------------

System:
Nr. of atoms                        .... 21
Algorithm: SD (steepest descent step) plus correction
Settings:
Max. no of cycles        MaxIter    .... 600
Direction                           .... Forward and backward
Initial displacement Hessian type   .... Read
Hessian Filename                    .... reaction-5-cineb5_optts_Compound_1.hess
Following Hessian mode              .... 0
Initial displacement type           .... Energy
  Initial displacement energy change.... 2.000 mEh
Coordinate system following type    .... Cartesian
Length of steepest descent step     .... 0.150 bohr
Do parabolic fit 
  if SD step is uphill              .... YES
Do Correction to SD step            .... YES
Scaling for length of correction
  compared to SD step               .... 0.333
Do parabolic fit to SD correction   .... YES
Only interpolate for parabolic fit  .... YES
Do update to length of
  SD step and correction            .... YES
Convergence Tolerances:
  Max. Gradient            TolMAXG  ....  2.0000e-03 Eh/bohr
  RMS Gradient             TolRMSG  ....  5.0000e-04 Eh/bohr
Storing full IRC trajectory in      .... reaction-5-cineb5_optts_Compound_2_IRC_Full_trj.xyz
Storing forward trajectory in       .... reaction-5-cineb5_optts_Compound_2_IRC_F_trj.xyz
Storing backward trajectory in      .... reaction-5-cineb5_optts_Compound_2_IRC_B_trj.xyz


 ...good, the file reaction-5-cineb5_optts_Compound_1.hess exists
Reading the hessian file           ...... done
Determining length of initial displacement:
  Requested energy change (quadratic behavior): 2.000 mEh
  Resulting scaling factor for initial displacement along normalized TS mode: 0.2633

         *************************************************************
         *                          FORWARD IRC                      *
         *************************************************************

Iteration    E(Eh)      dE(kcal/mol)  max(|G|)   RMS(G) 
Convergence thresholds                0.002000  0.000500            
    0     -1104.435457   -1.126248    0.010731  0.002552
    1     -1104.438297   -2.908148    0.015843  0.002961
    2     -1104.442006   -5.235569    0.018181  0.003376
    3     -1104.446051   -7.774213    0.019328  0.003534
    4     -1104.450161   -10.353056    0.019110  0.003495
    5     -1104.454182   -12.876508    0.018258  0.003368
    6     -1104.457999   -15.271539    0.016997  0.003179
    7     -1104.461576   -17.515920    0.015636  0.002973
    8     -1104.464863   -19.578921    0.014180  0.002727
    9     -1104.467890   -21.478140    0.012809  0.002506
   10     -1104.470610   -23.184816    0.011410  0.002235
   11     -1104.473079   -24.734097    0.010095  0.002021
   12     -1104.475234   -26.086458    0.008745  0.001795
   13     -1104.477079   -27.244197    0.007487  0.001790
   14     -1104.477548   -27.538582    0.007129  0.001896
   15     -1104.477776   -27.682051    0.006970  0.001509
   16     -1104.478170   -27.928863    0.006658  0.001366
   17     -1104.478567   -28.178190    0.006324  0.001312
   18     -1104.478943   -28.414077    0.005997  0.001255
   19     -1104.479301   -28.638902    0.005670  0.001200
   20     -1104.479641   -28.851981    0.005347  0.001139
   21     -1104.479964   -29.054931    0.005021  0.001089
   22     -1104.480268   -29.245828    0.004703  0.001027
   23     -1104.480558   -29.427426    0.004383  0.000978
   24     -1104.480829   -29.597660    0.004072  0.000920
   25     -1104.481086   -29.758912    0.003763  0.000872
   26     -1104.481326   -29.909711    0.003464  0.000817
   27     -1104.481554   -30.052346    0.003170  0.000774
   28     -1104.481766   -30.185500    0.002891  0.000725
   29     -1104.481967   -30.311482    0.002620  0.000687
   30     -1104.482154   -30.429285    0.002369  0.000645
   31     -1104.482333   -30.541449    0.002128  0.000614
   32     -1104.482500   -30.646312    0.001916  0.000583
   33     -1104.482660   -30.746766    0.001718  0.000565
   34     -1104.482808   -30.839623    0.001680  0.000578
   35     -1104.482942   -30.923526    0.001657  0.000621
   36     -1104.482996   -30.957076    0.001638  0.000605
   37     -1104.483057   -30.995545    0.001619  0.000495

                      ***********************HURRAY********************
                      ***            THE IRC HAS CONVERGED          ***
                      *************************************************


         *************************************************************
         *                          BACKWARD IRC                     *
         *************************************************************

Iteration    E(Eh)      dE(kcal/mol)  max(|G|)   RMS(G) 
Convergence thresholds                0.002000  0.000500            
    0     -1104.435672   -1.261309    0.011288  0.003044
    1     -1104.439529   -3.681156    0.020384  0.004019
    2     -1104.444300   -6.675274    0.022009  0.004212
    3     -1104.448826   -9.515446    0.016191  0.003634
    4     -1104.452331   -11.714775    0.009333  0.002711
    5     -1104.454643   -13.165597    0.006231  0.001816
    6     -1104.455973   -13.999907    0.009683  0.002048
    7     -1104.456135   -14.101645    0.004324  0.001314
    8     -1104.456282   -14.193934    0.004204  0.001117
    9     -1104.456534   -14.352097    0.004229  0.000918
   10     -1104.456787   -14.511264    0.003587  0.000851
   11     -1104.457020   -14.656921    0.003703  0.000786
   12     -1104.457238   -14.794298    0.003190  0.000741
   13     -1104.457444   -14.923221    0.003263  0.000696
   14     -1104.457642   -15.047425    0.002916  0.000670
   15     -1104.457829   -15.165121    0.003096  0.000652
   16     -1104.458008   -15.277054    0.002524  0.000645
   17     -1104.458175   -15.382174    0.003065  0.000674
   18     -1104.458326   -15.476822    0.002328  0.000696
   19     -1104.458399   -15.522394    0.002561  0.000664
   20     -1104.458473   -15.569238    0.002624  0.000569
   21     -1104.458556   -15.621138    0.002477  0.000563
   22     -1104.458637   -15.672157    0.002574  0.000555
   23     -1104.458718   -15.722703    0.002407  0.000549
   24     -1104.458797   -15.772526    0.002470  0.000541
   25     -1104.458876   -15.821925    0.002385  0.000535
   26     -1104.458954   -15.870692    0.002426  0.000529
   27     -1104.459031   -15.918959    0.002312  0.000523
   28     -1104.459107   -15.966626    0.002375  0.000517
   29     -1104.459182   -16.013875    0.002227  0.000512
   30     -1104.459256   -16.060460    0.002286  0.000505
   31     -1104.459330   -16.106739    0.002237  0.000500
   32     -1104.459403   -16.152539    0.002247  0.000496
   33     -1104.459475   -16.197840    0.002177  0.000490
   34     -1104.459547   -16.242755    0.002247  0.000487
   35     -1104.459617   -16.287145    0.002114  0.000481
   36     -1104.459688   -16.331137    0.002167  0.000476
   37     -1104.459757   -16.374797    0.002060  0.000472
   38     -1104.459826   -16.417990    0.002112  0.000467
   39     -1104.459894   -16.460918    0.002003  0.000464
   40     -1104.459962   -16.503292    0.002089  0.000460
   41     -1104.460029   -16.545372    0.001962  0.000455

                      ***********************HURRAY********************
                      ***            THE IRC HAS CONVERGED          ***
                      *************************************************


---------------------------------------------------------------
                       IRC PATH SUMMARY              
---------------------------------------------------------------
All gradients are in Eh/Bohr.

Step        E(Eh)      dE(kcal/mol)  max(|G|)   RMS(G) 
   1     -1104.460029   -16.545372    0.001962  0.000455
   2     -1104.459962   -16.503292    0.002089  0.000460
   3     -1104.459894   -16.460918    0.002003  0.000464
   4     -1104.459826   -16.417990    0.002112  0.000467
   5     -1104.459757   -16.374797    0.002060  0.000472
   6     -1104.459688   -16.331137    0.002167  0.000476
   7     -1104.459617   -16.287145    0.002114  0.000481
   8     -1104.459547   -16.242755    0.002247  0.000487
   9     -1104.459475   -16.197840    0.002177  0.000490
  10     -1104.459403   -16.152539    0.002247  0.000496
  11     -1104.459330   -16.106739    0.002237  0.000500
  12     -1104.459256   -16.060460    0.002286  0.000505
  13     -1104.459182   -16.013875    0.002227  0.000512
  14     -1104.459107   -15.966626    0.002375  0.000517
  15     -1104.459031   -15.918959    0.002312  0.000523
  16     -1104.458954   -15.870692    0.002426  0.000529
  17     -1104.458876   -15.821925    0.002385  0.000535
  18     -1104.458797   -15.772526    0.002470  0.000541
  19     -1104.458718   -15.722703    0.002407  0.000549
  20     -1104.458637   -15.672157    0.002574  0.000555
  21     -1104.458556   -15.621138    0.002477  0.000563
  22     -1104.458473   -15.569238    0.002624  0.000569
  23     -1104.458399   -15.522394    0.002561  0.000664
  24     -1104.458326   -15.476822    0.002328  0.000696
  25     -1104.458175   -15.382174    0.003065  0.000674
  26     -1104.458008   -15.277054    0.002524  0.000645
  27     -1104.457829   -15.165121    0.003096  0.000652
  28     -1104.457642   -15.047425    0.002916  0.000670
  29     -1104.457444   -14.923221    0.003263  0.000696
  30     -1104.457238   -14.794298    0.003190  0.000741
  31     -1104.457020   -14.656921    0.003703  0.000786
  32     -1104.456787   -14.511264    0.003587  0.000851
  33     -1104.456534   -14.352097    0.004229  0.000918
  34     -1104.456282   -14.193934    0.004204  0.001117
  35     -1104.456135   -14.101645    0.004324  0.001314
  36     -1104.455973   -13.999907    0.009683  0.002048
  37     -1104.454643   -13.165597    0.006231  0.001816
  38     -1104.452331   -11.714775    0.009333  0.002711
  39     -1104.448826   -9.515446    0.016191  0.003634
  40     -1104.444300   -6.675274    0.022009  0.004212
  41     -1104.439529   -3.681156    0.020384  0.004019
  42     -1104.435672   -1.261309    0.011288  0.003044
  43     -1104.433662    0.000000    0.000086  0.000030 <= TS
  44     -1104.435457   -1.126248    0.010731  0.002552
  45     -1104.438297   -2.908148    0.015843  0.002961
  46     -1104.442006   -5.235569    0.018181  0.003376
  47     -1104.446051   -7.774213    0.019328  0.003534
  48     -1104.450161   -10.353056    0.019110  0.003495
  49     -1104.454182   -12.876508    0.018258  0.003368
  50     -1104.457999   -15.271539    0.016997  0.003179
  51     -1104.461576   -17.515920    0.015636  0.002973
  52     -1104.464863   -19.578921    0.014180  0.002727
  53     -1104.467890   -21.478140    0.012809  0.002506
  54     -1104.470610   -23.184816    0.011410  0.002235
  55     -1104.473079   -24.734097    0.010095  0.002021
  56     -1104.475234   -26.086458    0.008745  0.001795
  57     -1104.477079   -27.244197    0.007487  0.001790
  58     -1104.477548   -27.538582    0.007129  0.001896
  59     -1104.477776   -27.682051    0.006970  0.001509
  60     -1104.478170   -27.928863    0.006658  0.001366
  61     -1104.478567   -28.178190    0.006324  0.001312
  62     -1104.478943   -28.414077    0.005997  0.001255
  63     -1104.479301   -28.638902    0.005670  0.001200
  64     -1104.479641   -28.851981    0.005347  0.001139
  65     -1104.479964   -29.054931    0.005021  0.001089
  66     -1104.480268   -29.245828    0.004703  0.001027
  67     -1104.480558   -29.427426    0.004383  0.000978
  68     -1104.480829   -29.597660    0.004072  0.000920
  69     -1104.481086   -29.758912    0.003763  0.000872
  70     -1104.481326   -29.909711    0.003464  0.000817
  71     -1104.481554   -30.052346    0.003170  0.000774
  72     -1104.481766   -30.185500    0.002891  0.000725
  73     -1104.481967   -30.311482    0.002620  0.000687
  74     -1104.482154   -30.429285    0.002369  0.000645
  75     -1104.482333   -30.541449    0.002128  0.000614
  76     -1104.482500   -30.646312    0.001916  0.000583
  77     -1104.482660   -30.746766    0.001718  0.000565
  78     -1104.482808   -30.839623    0.001680  0.000578
  79     -1104.482942   -30.923526    0.001657  0.000621
  80     -1104.482996   -30.957076    0.001638  0.000605
  81     -1104.483057   -30.995545    0.001619  0.000495

Timings for individual modules:

Sum of individual times         ...     4269.144 sec (=  71.152 min)
GTO integral calculation        ...      168.539 sec (=   2.809 min)   3.9 %
SCF iterations                  ...     3563.236 sec (=  59.387 min)  83.5 %
SCF Gradient evaluation         ...      537.369 sec (=   8.956 min)  12.6 %
================================================================================

----- Orbital basis set information -----
Your calculation utilizes the basis: def2-SVP
   F. Weigend and R. Ahlrichs, Phys. Chem. Chem. Phys. 7, 3297 (2005).

                             ****ORCA TERMINATED NORMALLY****
TOTAL RUN TIME: 0 days 1 hours 34 minutes 31 seconds 135 msec
