
                                 *****************
                                 * O   R   C   A *
                                 *****************

                                            #,                                       
                                            ###                                      
                                            ####                                     
                                            #####                                    
                                            ######                                   
                                           ########,                                 
                                     ,,################,,,,,                         
                               ,,#################################,,                 
                          ,,##########################################,,             
                       ,#########################################, ''#####,          
                    ,#############################################,,   '####,        
                  ,##################################################,,,,####,       
                ,###########''''           ''''###############################       
              ,#####''   ,,,,##########,,,,          '''####'''          '####       
            ,##' ,,,,###########################,,,                        '##       
           ' ,,###''''                  '''############,,,                           
         ,,##''                                '''############,,,,        ,,,,,,###''
      ,#''                                            '''#######################'''  
     '                                                          ''''####''''         
             ,#######,   #######,   ,#######,      ##                                
            ,#'     '#,  ##    ##  ,#'     '#,    #''#        ######   ,####,        
            ##       ##  ##   ,#'  ##            #'  '#       #        #'  '#        
            ##       ##  #######   ##           ,######,      #####,   #    #        
            '#,     ,#'  ##    ##  '#,     ,#' ,#      #,         ##   #,  ,#        
             '#######'   ##     ##  '#######'  #'      '#     #####' # '####'        



                  #######################################################
                  #                        -***-                        #
                  #          Department of theory and spectroscopy      #
                  #    Directorship and core code : Frank Neese         #
                  #        Max Planck Institute fuer Kohlenforschung    #
                  #                Kaiser Wilhelm Platz 1               #
                  #                 D-45470 Muelheim/Ruhr               #
                  #                      Germany                        #
                  #                                                     #
                  #                  All rights reserved                #
                  #                        -***-                        #
                  #######################################################


                         Program Version 5.0.3 -  RELEASE  -


 With contributions from (in alphabetic order):
   Daniel Aravena         : Magnetic Suceptibility
   Michael Atanasov       : Ab Initio Ligand Field Theory (pilot matlab implementation)
   Alexander A. Auer      : GIAO ZORA, VPT2 properties, NMR spectrum
   Ute Becker             : Parallelization
   Giovanni Bistoni       : ED, misc. LED, open-shell LED, HFLD
   Martin Brehm           : Molecular dynamics
   Dmytro Bykov           : SCF Hessian
   Vijay G. Chilkuri      : MRCI spin determinant printing, contributions to CSF-ICE
   Dipayan Datta          : RHF DLPNO-CCSD density
   Achintya Kumar Dutta   : EOM-CC, STEOM-CC
   Dmitry Ganyushin       : Spin-Orbit,Spin-Spin,Magnetic field MRCI
   Miquel Garcia          : C-PCM and meta-GGA Hessian, CC/C-PCM, Gaussian charge scheme
   Yang Guo               : DLPNO-NEVPT2, F12-NEVPT2, CIM, IAO-localization
   Andreas Hansen         : Spin unrestricted coupled pair/coupled cluster methods
   Benjamin Helmich-Paris : MC-RPA, TRAH-SCF, COSX integrals
   Lee Huntington         : MR-EOM, pCC
   Robert Izsak           : Overlap fitted RIJCOSX, COSX-SCS-MP3, EOM
   Marcus Kettner         : VPT2
   Christian Kollmar      : KDIIS, OOCD, Brueckner-CCSD(T), CCSD density, CASPT2, CASPT2-K
   Simone Kossmann        : Meta GGA functionals, TD-DFT gradient, OOMP2, MP2 Hessian
   Martin Krupicka        : Initial AUTO-CI
   Lucas Lang             : DCDCAS
   Marvin Lechner         : AUTO-CI (C++ implementation), FIC-MRCC
   Dagmar Lenk            : GEPOL surface, SMD
   Dimitrios Liakos       : Extrapolation schemes; Compound Job, initial MDCI parallelization
   Dimitrios Manganas     : Further ROCIS development; embedding schemes
   Dimitrios Pantazis     : SARC Basis sets
   Anastasios Papadopoulos: AUTO-CI, single reference methods and gradients
   Taras Petrenko         : DFT Hessian,TD-DFT gradient, ASA, ECA, R-Raman, ABS, FL, XAS/XES, NRVS
   Peter Pinski           : DLPNO-MP2, DLPNO-MP2 Gradient
   Christoph Reimann      : Effective Core Potentials
   Marius Retegan         : Local ZFS, SOC
   Christoph Riplinger    : Optimizer, TS searches, QM/MM, DLPNO-CCSD(T), (RO)-DLPNO pert. Triples
   Tobias Risthaus        : Range-separated hybrids, TD-DFT gradient, RPA, STAB
   Michael Roemelt        : Original ROCIS implementation
   Masaaki Saitow         : Open-shell DLPNO-CCSD energy and density
   Barbara Sandhoefer     : DKH picture change effects
   Avijit Sen             : IP-ROCIS
   Kantharuban Sivalingam : CASSCF convergence, NEVPT2, FIC-MRCI
   Bernardo de Souza      : ESD, SOC TD-DFT
   Georgi Stoychev        : AutoAux, RI-MP2 NMR, DLPNO-MP2 response
   Willem Van den Heuvel  : Paramagnetic NMR
   Boris Wezisla          : Elementary symmetry handling
   Frank Wennmohs         : Technical directorship


 We gratefully acknowledge several colleagues who have allowed us to
 interface, adapt or use parts of their codes:
   Stefan Grimme, W. Hujo, H. Kruse, P. Pracht,  : VdW corrections, initial TS optimization,
                  C. Bannwarth, S. Ehlert          DFT functionals, gCP, sTDA/sTD-DF
   Ed Valeev, F. Pavosevic, A. Kumar             : LibInt (2-el integral package), F12 methods
   Garnet Chan, S. Sharma, J. Yang, R. Olivares  : DMRG
   Ulf Ekstrom                                   : XCFun DFT Library
   Mihaly Kallay                                 : mrcc  (arbitrary order and MRCC methods)
   Jiri Pittner, Ondrej Demel                    : Mk-CCSD
   Frank Weinhold                                : gennbo (NPA and NBO analysis)
   Christopher J. Cramer and Donald G. Truhlar   : smd solvation model
   Lars Goerigk                                  : TD-DFT with DH, B97 family of functionals
   V. Asgeirsson, H. Jonsson                     : NEB implementation
   FAccTs GmbH                                   : IRC, NEB, NEB-TS, DLPNO-Multilevel, CI-OPT
                                                   MM, QMMM, 2- and 3-layer-ONIOM, Crystal-QMMM,
                                                   LR-CPCM, SF, NACMEs, symmetry and pop. for TD-DFT,
                                                   nearIR, NL-DFT gradient (VV10), updates on ESD,
                                                   ML-optimized integration grids
   S Lehtola, MJT Oliveira, MAL Marques          : LibXC Library
   Liviu Ungur et al                             : ANISO software


 Your calculation uses the libint2 library for the computation of 2-el integrals
 For citations please refer to: http://libint.valeyev.net

 Your ORCA version has been built with support for libXC version: 5.1.0
 For citations please refer to: https://tddft.org/programs/libxc/

 This ORCA versions uses:
   CBLAS   interface :  Fast vector & matrix operations
   LAPACKE interface :  Fast linear algebra routines
   SCALAPACK package :  Parallel linear algebra routines
   Shared memory     :  Shared parallel matrices
   BLAS/LAPACK       :  OpenBLAS 0.3.15  USE64BITINT DYNAMIC_ARCH NO_AFFINITY Prescott SINGLE_THREADED
        Core in use  :  Prescott
   Copyright (c) 2011-2014, The OpenBLAS Project


Your calculation utilizes the geometrical counterpoise correction gCP
Please cite in your paper:
H.Kruse, S. Grimme J.Chem.Phys., 136, (2012), 154101 
   

Your calculation utilizes the atom-pairwise dispersion correction
with the Becke-Johnson damping scheme (D3BJ)
Cite in your paper:
S.Grimme, S.Ehrlich, L.Goerigk, J Comput Chem, (2011), 32, 1456–1465 
S.Grimme, J.Antony, S.Ehrlich and H.Krieg, J.Chem.Phys., 132, (2010), 154104 
   

Your calculation employs the composite approach PBEh-3c.
Please cite in your paper:
S. Grimme, J. G. Brandenburg, C. Bannwarth, A. Hansen J.Chem.Phys., 143, (2015), 054107 
   

================================================================================

cite the ECPs for Lu [Def2-ECP] as follows:
Ce-Yb(ecp-28): M. Dolg, H. Stoll, H.Preuss, J. Chem. Phys., 1989, 90, 1730-1734.
Y-Cd(ecp-28), Hf-Hg(ecp-46): D. Andrae,U. Haeussermann, M. Dolg, H. Stoll, H. Preuss, Theor. Chim. Acta, 1990, 77, 123-141.
In-Sb(ecp-28), Tl-Bi(ecp-46): B. Metz, H. Stoll, M. Dolg, J. Chem. Phys., 2000, 113, 2563-2569.
Te-Xe(ecp-28), Po-Rn(ecp-46): K. A. Peterson, D. Figgen, E. Goll, H. Stoll, M. Dolg, J. Chem. Phys., 2003, 119, 11113-11123.
Rb(ecp-28), Cs(ecp-46): T. Leininger, A. Nicklass, W. Kuechle, H. Stoll, M. Dolg, A. Bergner, Chem. Phys. Lett., 1996, 255, 274-280.
Sr(ecp-28), Ba(ecp-46): M. Kaupp, P. V. Schleyer, H. Stoll and H. Preuss, J. Chem. Phys., 1991, 94, 1360-1366.
La(ecp-46): M. Dolg, H. Stoll, A. Savin, H. Preuss, Theor. Chim. Acta, 1989, 75, 173-194.
Lu(ecp-28): X. Cao, M. Dolg, J. Chem. Phys., 2001, 115, 7348-7355.

ECP parameters for Lu [Def2-ECP] have been obtained from:
TURBOMOLE (7.0.2)

----- Orbital basis set information -----
Your calculation utilizes the basis: def2-mSVP

----- AuxJ basis set information -----
Your calculation utilizes the auxiliary basis: def2/J
   F. Weigend, Phys. Chem. Chem. Phys. 8, 1057 (2006).

================================================================================
                                        WARNINGS
                       Please study these warnings very carefully!
================================================================================


WARNING: No Hueckel Guess possible with ECP basis!
  ===> : Switching to HCORE guess!

INFO   : the flag for use of the SHARK integral package has been found!

================================================================================
                                       INPUT FILE
================================================================================
NAME = 4_0_orca.inp
|  1> ! EnGrad PBEh-3c
|  2> %output 
|  3> xyzfile=True 
|  4> end 
|  5> %scf 
|  6> maxiter 250 
|  7> end
|  8> %output
|  9> Print[P_Hirshfeld] = 1
| 10> end
| 11> % maxcore
| 12> 4000
| 13> *xyz 0 1
| 14> Lu   0.14470363  -0.11105107   0.11415780 
| 15> C    0.46301453   0.68921085   2.55406027 
| 16> C    1.51356746  -0.19925527   2.23628432 
| 17> C    2.34662629   0.43561308   1.29013628 
| 18> C    1.75628548   1.66825013   0.93975578 
| 19> C    0.60215160   1.82490085   1.73986445 
| 20> H    2.14142866   2.38720724   0.22910150 
| 21> H    0.03987418   2.74310084   1.82982845 
| 22> H   -0.22458249   0.57763053   3.37906625 
| 23> H    1.69242838  -1.15889257   2.70393085 
| 24> H    3.26032757   0.02820365   0.88179711 
| 25> C    0.81808405  -0.09885056  -2.35206982 
| 26> C   -0.42488197  -0.76674577  -2.31478494 
| 27> C    1.10207010  -2.06630817  -1.24078931 
| 28> C    1.77127969  -0.91965478  -1.71692877 
| 29> H    1.01215159   0.84552564  -2.84043328 
| 30> C   -0.25415918  -1.97215905  -1.62352814 
| 31> H   -1.29074730  -0.49887844  -2.89942521 
| 32> H    2.82188536  -0.70827236  -1.58283452 
| 33> H    1.55966725  -2.89248471  -0.71284103 
| 34> H   -0.99129224  -2.75662386  -1.54907421 
| 35> C   -2.07851209  -1.55074374   1.20311062 
| 36> H   -2.29205106  -1.27265978   2.23731529 
| 37> H   -1.97402748  -2.65012824   1.21045163 
| 38> H   -3.00664142  -1.46045815   0.62665527 
| 39> C   -1.92171824   2.09879194  -0.96359384 
| 40> H   -2.57462566   0.58942219   0.31970826 
| 41> H   -1.03550678   2.62078409  -1.32809107 
| 42> H   -2.54754930   2.88142975  -0.53124563 
| 43> H   -2.42926059   1.69310595  -1.83958952 
| 44> *
| 45> 
| 46>                          ****END OF INPUT****
================================================================================

                     *******************************
                     * Energy+Gradient Calculation *
                     *******************************

---------------------------------
CARTESIAN COORDINATES (ANGSTROEM)
---------------------------------
  Lu     0.144704   -0.111051    0.114158
  C      0.463015    0.689211    2.554060
  C      1.513567   -0.199255    2.236284
  C      2.346626    0.435613    1.290136
  C      1.756285    1.668250    0.939756
  C      0.602152    1.824901    1.739864
  H      2.141429    2.387207    0.229102
  H      0.039874    2.743101    1.829828
  H     -0.224582    0.577631    3.379066
  H      1.692428   -1.158893    2.703931
  H      3.260328    0.028204    0.881797
  C      0.818084   -0.098851   -2.352070
  C     -0.424882   -0.766746   -2.314785
  C      1.102070   -2.066308   -1.240789
  C      1.771280   -0.919655   -1.716929
  H      1.012152    0.845526   -2.840433
  C     -0.254159   -1.972159   -1.623528
  H     -1.290747   -0.498878   -2.899425
  H      2.821885   -0.708272   -1.582835
  H      1.559667   -2.892485   -0.712841
  H     -0.991292   -2.756624   -1.549074
  C     -2.078512   -1.550744    1.203111
  H     -2.292051   -1.272660    2.237315
  H     -1.974027   -2.650128    1.210452
  H     -3.006641   -1.460458    0.626655
  C     -1.921718    2.098792   -0.963594
  H     -2.574626    0.589422    0.319708
  H     -1.035507    2.620784   -1.328091
  H     -2.547549    2.881430   -0.531246
  H     -2.429261    1.693106   -1.839590

----------------------------
CARTESIAN COORDINATES (A.U.)
----------------------------
  NO LB      ZA    FRAG     MASS         X           Y           Z
   0 Lu   43.0000*   0   174.967    0.273450   -0.209856    0.215727
   1 C     6.0000    0    12.011    0.874971    1.302420    4.826474
   2 C     6.0000    0    12.011    2.860228   -0.376538    4.225965
   3 C     6.0000    0    12.011    4.434481    0.823189    2.438004
   4 C     6.0000    0    12.011    3.318899    3.152536    1.775881
   5 C     6.0000    0    12.011    1.137902    3.448563    3.287867
   6 H     1.0000    0     1.008    4.046714    4.511168    0.432939
   7 H     1.0000    0     1.008    0.075351    5.183709    3.457875
   8 H     1.0000    0     1.008   -0.424399    1.091564    6.385510
   9 H     1.0000    0     1.008    3.198226   -2.189990    5.109689
  10 H     1.0000    0     1.008    6.161126    0.053297    1.666355
  11 C     6.0000    0    12.011    1.545955   -0.186800   -4.444768
  12 C     6.0000    0    12.011   -0.802911   -1.448940   -4.374310
  13 C     6.0000    0    12.011    2.082611   -3.904757   -2.344752
  14 C     6.0000    0    12.011    3.347234   -1.737896   -3.244525
  15 H     1.0000    0     1.008    1.912689    1.597812   -5.367641
  16 C     6.0000    0    12.011   -0.480291   -3.726840   -3.068024
  17 H     1.0000    0     1.008   -2.439159   -0.942744   -5.479120
  18 H     1.0000    0     1.008    5.332591   -1.338441   -2.991124
  19 H     1.0000    0     1.008    2.947344   -5.466004   -1.347074
  20 H     1.0000    0     1.008   -1.873271   -5.209264   -2.927326
  21 C     6.0000    0    12.011   -3.927819   -2.930481    2.273550
  22 H     1.0000    0     1.008   -4.331349   -2.404978    4.227913
  23 H     1.0000    0     1.008   -3.730371   -5.008017    2.287422
  24 H     1.0000    0     1.008   -5.681729   -2.759866    1.184207
  25 C     6.0000    0    12.011   -3.631521    3.966142   -1.820928
  26 H     1.0000    0     1.008   -4.865337    1.113847    0.604161
  27 H     1.0000    0     1.008   -1.956824    4.952564   -2.509728
  28 H     1.0000    0     1.008   -4.814170    5.445113   -1.003909
  29 H     1.0000    0     1.008   -4.590637    3.199507   -3.476320
* core charge reduced due to ECP

--------------------------------
INTERNAL COORDINATES (ANGSTROEM)
--------------------------------
 Lu     0   0   0     0.000000000000     0.00000000     0.00000000
 C      1   0   0     2.587443725528     0.00000000     0.00000000
 C      2   1   0     1.412095980986    71.62226569     0.00000000
 C      3   2   1     1.411467658031   107.87509283    69.00436818
 C      4   3   2     1.410908524237   108.20864774   355.27390544
 C      2   1   3     1.404302579095    73.47639850   115.68395006
 H      5   4   3     1.081787456390   126.49845649   180.73686691
 H      6   2   1     1.080435393707   125.97603959   124.94700601
 H      2   1   3     1.079756776668   127.60366078   238.90411347
 H      3   2   1     1.082399303989   125.69938658   244.02761107
 H      4   3   2     1.080543081271   125.64802274   177.22185683
 C      1   2   3     2.556534512995   151.13848693   286.99959751
 C     12   1   2     1.411537707853    74.94896175   191.24251321
 C     13  12   1     2.274623412530    72.04187133   293.17051950
 C     12   1   2     1.409150683596    74.96464974    77.50045207
 H     12   1   2     1.080743950375   119.16870080   314.05659859
 C     13  12   1     1.400001217918   108.24390914   293.58810726
 H     13  12   1     1.078554551927   125.10625146   125.78681900
 H     15  12   1     1.080016698577   126.86774062   247.71253397
 H     14  13  12     1.081985311032   161.90660231   183.61856481
 H     17  13  12     1.079024362082   125.22073175   188.75352168
 C      1   2   3     2.863777464450    83.82431906   109.36881747
 H     22   1   2     1.092020549242   112.57578344     9.10088235
 H     22   1   2     1.104362804062   115.43824268   248.00902939
 H     22   1   2     1.096301195617   114.57543316   133.22870162
 C      1   2   3     3.211705788391   100.53172020   196.69215219
 H     26   1   2     2.085988835342    59.80647743   285.41660780
 H     26   1   2     1.091194202319    85.33662432    94.79928553
 H     26   1   2     1.091380516590   136.83816834   348.11929471
 H     26   1   2     1.090664380506   108.24002307   200.87561177

---------------------------
INTERNAL COORDINATES (A.U.)
---------------------------
 Lu     0   0   0     0.000000000000     0.00000000     0.00000000
 C      1   0   0     4.889560028180     0.00000000     0.00000000
 C      2   1   0     2.668474678875    71.62226569     0.00000000
 C      3   2   1     2.667287320566   107.87509283    69.00436818
 C      4   3   2     2.666230710823   108.20864774   355.27390544
 C      2   1   3     2.653747283649    73.47639850   115.68395006
 H      5   4   3     2.044282027688   126.49845649   180.73686691
 H      6   2   1     2.041726999501   125.97603959   124.94700601
 H      2   1   3     2.040444599148   127.60366078   238.90411347
 H      3   2   1     2.045438252086   125.69938658   244.02761107
 H      4   3   2     2.041930499506   125.64802274   177.22185683
 C      1   2   3     4.831150081478   151.13848693   286.99959751
 C     12   1   2     2.667419695546    74.94896175   191.24251321
 C     13  12   1     4.298415307487    72.04187133   293.17051950
 C     12   1   2     2.662908873425    74.96464974    77.50045207
 H     12   1   2     2.042310087100   119.16870080   314.05659859
 C     13  12   1     2.645618889021   108.24390914   293.58810726
 H     13  12   1     2.038172723637   125.10625146   125.78681900
 H     15  12   1     2.040935780372   126.86774062   247.71253397
 H     14  13  12     2.044655918776   161.90660231   183.61856481
 H     17  13  12     2.039060536163   125.22073175   188.75352168
 C      1   2   3     5.411755116306    83.82431906   109.36881747
 H     22   1   2     2.063619770682   112.57578344     9.10088235
 H     22   1   2     2.086943252166   115.43824268   248.00902939
 H     22   1   2     2.071709020007   114.57543316   133.22870162
 C      1   2   3     6.069244362788   100.53172020   196.69215219
 H     26   1   2     3.941947617213    59.80647743   285.41660780
 H     26   1   2     2.062058201306    85.33662432    94.79928553
 H     26   1   2     2.062410284253   136.83816834   348.11929471
 H     26   1   2     2.061056983179   108.24002307   200.87561177

---------------------
BASIS SET INFORMATION
---------------------
There are 3 groups of distinct atoms

 Group   1 Type Lu  : 14s13p9d7f1g contracted to 10s7p4d3f1g pattern {5111111111/5311111/6111/511/1}
 Group   2 Type C   : 8s4p1d contracted to 4s2p1d pattern {5111/31/1}
 Group   3 Type H   : 4s contracted to 2s pattern {31}

Atom   0Lu   basis set group =>   1
Atom   1C    basis set group =>   2
Atom   2C    basis set group =>   2
Atom   3C    basis set group =>   2
Atom   4C    basis set group =>   2
Atom   5C    basis set group =>   2
Atom   6H    basis set group =>   3
Atom   7H    basis set group =>   3
Atom   8H    basis set group =>   3
Atom   9H    basis set group =>   3
Atom  10H    basis set group =>   3
Atom  11C    basis set group =>   2
Atom  12C    basis set group =>   2
Atom  13C    basis set group =>   2
Atom  14C    basis set group =>   2
Atom  15H    basis set group =>   3
Atom  16C    basis set group =>   2
Atom  17H    basis set group =>   3
Atom  18H    basis set group =>   3
Atom  19H    basis set group =>   3
Atom  20H    basis set group =>   3
Atom  21C    basis set group =>   2
Atom  22H    basis set group =>   3
Atom  23H    basis set group =>   3
Atom  24H    basis set group =>   3
Atom  25C    basis set group =>   2
Atom  26H    basis set group =>   3
Atom  27H    basis set group =>   3
Atom  28H    basis set group =>   3
Atom  29H    basis set group =>   3
---------------------------------
AUXILIARY/J BASIS SET INFORMATION
---------------------------------
There are 3 groups of distinct atoms

 Group   1 Type Lu  : 18s7p6d6f6g3h5i contracted to 14s7p6d6f5g2h2i pattern {51111111111111/1111111/111111/111111/21111/21/41}
 Group   2 Type C   : 12s5p4d2f1g contracted to 6s4p3d1f1g pattern {711111/2111/211/2/1}
 Group   3 Type H   : 5s2p1d contracted to 3s1p1d pattern {311/2/1}

Atom   0Lu   basis set group =>   1
Atom   1C    basis set group =>   2
Atom   2C    basis set group =>   2
Atom   3C    basis set group =>   2
Atom   4C    basis set group =>   2
Atom   5C    basis set group =>   2
Atom   6H    basis set group =>   3
Atom   7H    basis set group =>   3
Atom   8H    basis set group =>   3
Atom   9H    basis set group =>   3
Atom  10H    basis set group =>   3
Atom  11C    basis set group =>   2
Atom  12C    basis set group =>   2
Atom  13C    basis set group =>   2
Atom  14C    basis set group =>   2
Atom  15H    basis set group =>   3
Atom  16C    basis set group =>   2
Atom  17H    basis set group =>   3
Atom  18H    basis set group =>   3
Atom  19H    basis set group =>   3
Atom  20H    basis set group =>   3
Atom  21C    basis set group =>   2
Atom  22H    basis set group =>   3
Atom  23H    basis set group =>   3
Atom  24H    basis set group =>   3
Atom  25C    basis set group =>   2
Atom  26H    basis set group =>   3
Atom  27H    basis set group =>   3
Atom  28H    basis set group =>   3
Atom  29H    basis set group =>   3
-------------------------
ECP PARAMETER INFORMATION
-------------------------

 Group 1, Type Lu ECP Def2-ECP (replacing 28 core electrons, lmax=5)

Atom   0Lu   ECP group =>   1

------------------------------------------------------------------------------
                           ORCA GTO INTEGRAL CALCULATION
                           -- RI-GTO INTEGRALS CHOSEN --
------------------------------------------------------------------------------
------------------------------------------------------------------------------
                   ___                                                        
                  /   \      - P O W E R E D   B Y -                         
                 /     \                                                     
                 |  |  |   _    _      __       _____    __    __             
                 |  |  |  | |  | |    /  \     |  _  \  |  |  /  |          
                  \  \/   | |  | |   /    \    | | | |  |  | /  /          
                 / \  \   | |__| |  /  /\  \   | |_| |  |  |/  /          
                |  |  |   |  __  | /  /__\  \  |    /   |      \           
                |  |  |   | |  | | |   __   |  |    \   |  |\   \          
                \     /   | |  | | |  |  |  |  | |\  \  |  | \   \       
                 \___/    |_|  |_| |__|  |__|  |_| \__\ |__|  \__/        
                                                                              
                      - O R C A' S   B I G   F R I E N D -                    
                                      &                                       
                       - I N T E G R A L  F E E D E R -                       
                                                                              
 v1 FN, 2020, v2 2021                                                         
------------------------------------------------------------------------------


Reading SHARK input file 4_0_orca.SHARKINP.tmp ... ok
----------------------
SHARK INTEGRAL PACKAGE
----------------------

Number of atoms                             ...     30
Number of basis functions                   ...    295
Number of shells                            ...    143
Maximum angular momentum                    ...      4
Integral batch strategy                     ... SHARK/LIBINT Hybrid
RI-J (if used) integral strategy            ... SPLIT-RIJ (Revised 2003 algorithm where possible)
Printlevel                                  ...      1
Contraction scheme used                     ... SEGMENTED contraction
Coulomb Range Separation                    ... NOT USED
Exchange Range Separation                   ... NOT USED
Finite Nucleus Model                        ... NOT USED
Auxiliary Coulomb fitting basis             ... AVAILABLE
   # of basis functions in Aux-J            ...    975
   # of shells in Aux-J                     ...    307
   Maximum angular momentum in Aux-J        ...      6
Auxiliary J/K fitting basis                 ... NOT available
Auxiliary Correlation fitting basis         ... NOT available
Auxiliary 'external' fitting basis          ... NOT available
Integral threshold                          ...     2.500000e-11
Primitive cut-off                           ...     2.500000e-12
Primitive pair pre-selection threshold      ...     2.500000e-12

Calculating pre-screening integrals         ... done (  0.2 sec) Dimension = 143
Organizing shell pair data                  ... done (  0.1 sec)
Shell pair information
Total number of shell pairs                 ...     10296
Shell pairs after pre-screening             ...      8687
Total number of primitive shell pairs       ...     36301
Primitive shell pairs kept                  ...     20080
          la=0 lb=0:   3292 shell pairs
          la=1 lb=0:   2581 shell pairs
          la=1 lb=1:    496 shell pairs
          la=2 lb=0:   1163 shell pairs
          la=2 lb=1:    494 shell pairs
          la=2 lb=2:    122 shell pairs
          la=3 lb=0:    249 shell pairs
          la=3 lb=1:     93 shell pairs
          la=3 lb=2:     48 shell pairs
          la=3 lb=3:      6 shell pairs
          la=4 lb=0:     92 shell pairs
          la=4 lb=1:     31 shell pairs
          la=4 lb=2:     16 shell pairs
          la=4 lb=3:      3 shell pairs
          la=4 lb=4:      1 shell pairs

Calculating one electron integrals          ... done (  0.1 sec)
Calculating ECP integrals                   ... done (  0.9 sec)
Calculating RI/J V-Matrix + Cholesky decomp.... done (  0.2 sec)
Calculating Nuclear repulsion               ... done (  0.0 sec) ENN=   1372.396667613974 Eh

SHARK setup successfully completed in   2.1 seconds

Maximum memory used throughout the entire GTOINT-calculation: 133.0 MB
-------------------------------------------------------------------------------
                                 ORCA SCF
-------------------------------------------------------------------------------

------------
SCF SETTINGS
------------
Hamiltonian:
 Density Functional     Method          .... DFT(GTOs)
 Exchange Functional    Exchange        .... PBE
   PBE kappa parameter   XKappa         ....  1.024500
   PBE mue parameter    XMuePBE         ....  0.123457
 Correlation Functional Correlation     .... PBE
   PBE beta parameter  CBetaPBE         ....  0.030000
 LDA part of GGA corr.  LDAOpt          .... PW91-LDA
 Gradients option       PostSCFGGA      .... off
 Hybrid DFT is turned on
   Fraction HF Exchange ScalHFX         ....  0.420000
   Scaling of DF-GGA-X  ScalDFX         ....  0.580000
   Scaling of DF-GGA-C  ScalDFC         ....  1.000000
   Scaling of DF-LDA-C  ScalLDAC        ....  1.000000
   Perturbative correction              ....  0.000000
   Density functional embedding theory  .... OFF
 RI-approximation to the Coulomb term is turned on
   Number of AuxJ basis functions       .... 975
   RIJ-ON(X) (HFX calculated with O(N)) .... on
   Number of AuxJ basis functions       .... 975
   RIJ-COSX (HFX calculated with COS-X)).... on


General Settings:
 Integral files         IntName         .... 4_0_orca
 Hartree-Fock type      HFTyp           .... RHF
 Total Charge           Charge          ....    0
 Multiplicity           Mult            ....    1
 Number of Electrons    NEL             ....  132
 Basis Dimension        Dim             ....  295
 Nuclear Repulsion      ENuc            ....   1372.3966676140 Eh

Convergence Acceleration:
 DIIS                   CNVDIIS         .... on
   Start iteration      DIISMaxIt       ....    12
   Startup error        DIISStart       ....  0.200000
   # of expansion vecs  DIISMaxEq       ....     5
   Bias factor          DIISBfac        ....   1.050
   Max. coefficient     DIISMaxC        ....  10.000
 Trust-Rad. Augm. Hess. CNVTRAH         .... auto
   Auto Start mean grad. ratio tolernc. ....  1.125000
   Auto Start start iteration           ....    20
   Auto Start num. interpolation iter.  ....    10
   Max. Number of Micro iterations      ....    16
   Max. Number of Macro iterations      .... Maxiter - #DIIS iter
   Number of Davidson start vectors     ....     2
   Converg. threshold I  (grad. norm)   ....   1.000e-05
   Converg. threshold II (energy diff.) ....   1.000e-08
   Grad. Scal. Fac. for Micro threshold ....   0.100
   Minimum threshold for Micro iter.    ....   0.010
   NR start threshold (gradient norm)   ....   0.001
   Initial trust radius                 ....   0.400
   Minimum AH scaling param. (alpha)    ....   1.000
   Maximum AH scaling param. (alpha)    .... 1000.000
   Orbital update algorithm             .... Taylor
   White noise on init. David. guess    .... on
   Maximum white noise                  ....   0.010
   Quad. conv. algorithm                .... NR
   COSX micro iterations for RIJONX calc.... off
 SOSCF                  CNVSOSCF        .... off
 Level Shifting         CNVShift        .... on
   Level shift para.    LevelShift      ....    0.2500
   Turn off err/grad.   ShiftErr        ....    0.0010
 Zerner damping         CNVZerner       .... off
 Static damping         CNVDamp         .... on
   Fraction old density DampFac         ....    0.7000
   Max. Damping (<1)    DampMax         ....    0.9800
   Min. Damping (>=0)   DampMin         ....    0.0000
   Turn off err/grad.   DampErr         ....    0.1000
 Fernandez-Rico         CNVRico         .... off

SCF Procedure:
 Maximum # iterations   MaxIter         ....   250
 SCF integral mode      SCFMode         .... Direct
   Integral package                     .... SHARK and LIBINT hybrid scheme
 Reset frequency        DirectResetFreq ....    20
 Integral Threshold     Thresh          ....  2.500e-11 Eh
 Primitive CutOff       TCut            ....  2.500e-12 Eh

Convergence Tolerance:
 Convergence Check Mode ConvCheckMode   .... Total+1el-Energy
 Convergence forced     ConvForced      .... 0
 Energy Change          TolE            ....  1.000e-08 Eh
 1-El. energy change                    ....  1.000e-05 Eh
 DIIS Error             TolErr          ....  5.000e-07


Diagonalization of the overlap matrix:
Smallest eigenvalue                        ... 1.302e-03
Time for diagonalization                   ...    0.024 sec
Threshold for overlap eigenvalues          ... 1.000e-08
Number of eigenvalues below threshold      ... 0
Time for construction of square roots      ...    0.016 sec
Total time needed                          ...    0.041 sec

--------------------
INITIAL GUESS: HCORE
--------------------
                      -----------------
                      INTIAL GUESS DONE 
                      -----------------
-------------------
DFT GRID GENERATION
-------------------

General Integration Accuracy     IntAcc      ... 4.159
Radial Grid Type                 RadialGrid  ... OptM3 with GC (2021)
Angular Grid (max. ang.)         AngularGrid ... 3 (Lebedev-194)
Angular grid pruning method      GridPruning ... 4 (adaptive)
Weight generation scheme         WeightScheme... Becke
Basis function cutoff            BFCut       ... 1.0000e-11
Integration weight cutoff        WCut        ... 1.0000e-14
Angular grids for H and He will be reduced by one unit
Partially contracted basis set               ... off
Rotationally invariant grid construction     ... off

Total number of grid points                  ...    67332
Total number of batches                      ...     1067
Average number of points per batch           ...       63
Average number of grid points per atom       ...     2244
Time for grid setup =    1.287 sec

--------------------
COSX GRID GENERATION
--------------------

GRIDX 1
-------
General Integration Accuracy     IntAcc      ... 3.816
Radial Grid Type                 RadialGrid  ... OptM3 with GC (2021)
Angular Grid (max. ang.)         AngularGrid ... 1 (Lebedev-50)
Angular grid pruning method      GridPruning ... 4 (adaptive)
Weight generation scheme         WeightScheme... Becke
Basis function cutoff            BFCut       ... 1.0000e-11
Integration weight cutoff        WCut        ... 1.0000e-14
Angular grids for H and He will be reduced by one unit
Partially contracted basis set               ... on
Rotationally invariant grid construction     ... off

Total number of grid points                  ...    17130
Total number of batches                      ...      282
Average number of points per batch           ...       60
Average number of grid points per atom       ...      571
UseSFitting                                  ... on

GRIDX 2
-------
General Integration Accuracy     IntAcc      ... 4.020
Radial Grid Type                 RadialGrid  ... OptM3 with GC (2021)
Angular Grid (max. ang.)         AngularGrid ... 2 (Lebedev-110)
Angular grid pruning method      GridPruning ... 4 (adaptive)
Weight generation scheme         WeightScheme... Becke
Basis function cutoff            BFCut       ... 1.0000e-11
Integration weight cutoff        WCut        ... 1.0000e-14
Angular grids for H and He will be reduced by one unit
Partially contracted basis set               ... on
Rotationally invariant grid construction     ... off

Total number of grid points                  ...    36811
Total number of batches                      ...      593
Average number of points per batch           ...       62
Average number of grid points per atom       ...     1227
UseSFitting                                  ... on

GRIDX 3
-------
General Integration Accuracy     IntAcc      ... 4.338
Radial Grid Type                 RadialGrid  ... OptM3 with GC (2021)
Angular Grid (max. ang.)         AngularGrid ... 3 (Lebedev-194)
Angular grid pruning method      GridPruning ... 4 (adaptive)
Weight generation scheme         WeightScheme... Becke
Basis function cutoff            BFCut       ... 1.0000e-11
Integration weight cutoff        WCut        ... 1.0000e-14
Angular grids for H and He will be reduced by one unit
Partially contracted basis set               ... on
Rotationally invariant grid construction     ... off

Total number of grid points                  ...    78774
Total number of batches                      ...     1248
Average number of points per batch           ...       63
Average number of grid points per atom       ...     2626
UseSFitting                                  ... on

Time for X-Grid setup             =    2.849 sec

--------------
SCF ITERATIONS
--------------
ITER       Energy         Delta-E        Max-DP      RMS-DP      [F,P]     Damp
               ***  Starting incremental Fock matrix formation  ***
  0   -478.0982641760   0.00000000000043.09053286  0.28697838  3.2595184 0.7000
  1  -1259.2146861655-781.11642198953330.00090298  0.19761830  1.5878247 0.7000
  2  -1431.7500606051-172.53537443956221.07044260  0.13651665  0.9360206 0.7000
  3  -1519.5520814714 -87.80202086632714.76352059  0.09695872  0.7719209 0.7000
  4  -1575.8435887408 -56.29150726943710.25636640  0.06836669  0.6785966 0.7000
  5  -1614.0808641990 -38.237275458158 7.14628305  0.04805743  0.6634400 0.7000
  6  -1640.6024582380 -26.521594039052 4.99356191  0.03370631  0.5201894 0.7000
  7  -1659.0994221205 -18.496963882417 3.49226971  0.02361891  0.3890723 0.7000
  8  -1672.0374868506 -12.938064730135 2.44227402  0.01655119  0.2907533 0.7000
  9  -1681.1019464296  -9.064459578974 1.70806439  0.01160209  0.2193092 0.7000
                               ***Turning on DIIS***
 10  -1687.4564727861  -6.354526356564 1.19488205  0.00813509  0.1651914 0.7000
 11  -1691.9114210823  -4.454948296184 0.83583473  0.00571648  0.1235151 0.7000
 12  -1695.0340201036  -3.122599021332 1.95256030  0.01336882  0.0868638 0.0000
 13  -1702.3360329720  -7.302012868315 0.00681426  0.00012722  0.0042194 0.0000
 14  -1702.3360592308  -0.000026258886 0.00276949  0.00004644  0.0068368 0.0000
 15  -1702.3359158424   0.000143388465 0.00106080  0.00002825  0.0036110 0.0000
 16  -1702.3359466857  -0.000030843369 0.00177721  0.00002965  0.0004398 0.0000
               *** Restarting incremental Fock matrix formation ***
                                   *** Resetting DIIS ***
 17  -1702.2194815530   0.116465132721 0.00952984  0.00009292  0.1031900 0.7000
 18  -1702.2213843477  -0.001902794635 0.02286770  0.00027895  0.0721776 0.0000
 19  -1702.2265297970  -0.005145449379 0.00896237  0.00009636  0.0247522 0.0000

 WARNING: the maximum gradient error descreased on average only by a factor   1.0
          during the last 20 iterations

                      *** Initiating the TRAH-SCF procedure ***


TRAH GRIDX
----------

General Integration Accuracy     IntAcc      ... 3.067
Radial Grid Type                 RadialGrid  ... OptM3 with GC (2021)
Angular Grid (max. ang.)         AngularGrid ... 1 (Lebedev-50)
Angular grid pruning method      GridPruning ... 4 (adaptive)
Weight generation scheme         WeightScheme... Becke
Basis function cutoff            BFCut       ... 1.0000e-11
Integration weight cutoff        WCut        ... 1.0000e-14
Angular grids for H and He will be reduced by one unit
Partially contracted basis set               ... on
Rotationally invariant grid construction     ... off

Total number of grid points                  ...     9130
Total number of batches                      ...      158
Average number of points per batch           ...       57
Average number of grid points per atom       ...      304


TRAH GRID
---------

General Integration Accuracy     IntAcc      ... 3.467
Radial Grid Type                 RadialGrid  ... OptM3 with GC (2021)
Angular Grid (max. ang.)         AngularGrid ... 1 (Lebedev-50)
Angular grid pruning method      GridPruning ... 4 (adaptive)
Weight generation scheme         WeightScheme... Becke
Basis function cutoff            BFCut       ... 1.0000e-11
Integration weight cutoff        WCut        ... 1.0000e-14
Angular grids for H and He will be reduced by one unit
Partially contracted basis set               ... off
Rotationally invariant grid construction     ... off

Total number of grid points                  ...    21888
Total number of batches                      ...      357
Average number of points per batch           ...       61
Average number of grid points per atom       ...      730

 --------------------------------------------------------------------------------------------
   Iter.        energy            ||Error||_2        Shift      TRadius  Mac/Mic        Rej.
 --------------------------------------------------------------------------------------------
    0      -1702.226609993183     1.514657e-01                     0.400 (TRAH MAcro)   No
    0     dE    -1.553723e-04     1.146145e-01    -3.1074e-04      0.002 (TRAH MIcro)
    0     dE    -2.088761e-04     1.474416e-02    -4.1775e-04      0.004 (TRAH MIcro)
    0     dE    -2.121064e-04     3.469154e-03    -4.2421e-04      0.004 (TRAH MIcro)
    1      -1702.226821924834     3.139725e-03                     0.480 (TRAH MAcro)   No
    1     dE    -1.147058e-08     6.598851e-03    -2.4002e-08      0.000 (TRAH MIcro)
    1     dE    -3.933676e-07     1.818927e-03    -7.8674e-07      0.000 (TRAH MIcro)
    1     dE    -4.852971e-07     8.547135e-04    -9.7059e-07      0.001 (TRAH MIcro)
    1     dE    -4.916635e-07     3.481687e-04    -9.8333e-07      0.001 (TRAH MIcro)
    1     dE    -4.932514e-07     5.780569e-05    -9.8650e-07      0.001 (TRAH MIcro)
    2      -1702.226822400075     9.041713e-05                           (NR   MAcro)
    2     dE    -1.866250e-10     5.088626e-05                           (NR   MIcro)
    2     dE    -2.635578e-10     1.679818e-05                           (NR   MIcro)
    2     dE    -2.715200e-10     8.455968e-06                           (NR   MIcro)
    2     dE    -2.730358e-10     2.359693e-06                           (NR   MIcro)
    2     dE    -2.732473e-10     9.428259e-07                           (NR   MIcro)
    3      -1702.226822400230     2.215769e-06                           (NR   MAcro)

               *****************************************************
               *                     SUCCESS                       *
               *           SCF CONVERGED AFTER  37 CYCLES          *
               *****************************************************

Old exchange energy                            =    -54.589579136 Eh
New exchange energy                            =    -54.589660984 Eh
Exchange energy change after final integration =     -0.000081848 Eh
Total energy after final integration           =  -1702.226904248 Eh
Final COS-X integration done in                =    33.569 sec

----------------
TOTAL SCF ENERGY
----------------

Total Energy       :        -1702.22690425 Eh          -46319.94893 eV

Components:
Nuclear Repulsion  :         1372.39666761 Eh           37344.81190 eV
Electronic Energy  :        -3074.62357186 Eh          -83664.76082 eV
One Electron Energy:        -5612.18110483 Eh         -152715.21175 eV
Two Electron Energy:         2537.55753296 Eh           69050.45093 eV
Max COSX asymmetry :            0.00001086 Eh               0.00030 eV

Virial components:
Potential Energy   :        -2968.94099698 Eh          -80788.99176 eV
Kinetic Energy     :         1266.71409273 Eh           34469.04284 eV
Virial Ratio       :            2.34381303


DFT components:
N(Alpha)           :       66.000359153638 electrons
N(Beta)            :       66.000359153638 electrons
N(Total)           :      132.000718307277 electrons
E(X)               :      -74.350292652549 Eh       
E(C)               :       -6.755282395222 Eh       
E(XC)              :      -81.105575047771 Eh       
DFET-embed. en.    :        0.000000000000 Eh       

---------------
SCF CONVERGENCE
---------------

  Last Energy change         ...   -1.5507e-10  Tolerance :   1.0000e-08
  Last Orbital Gradient      ...    2.2158e-06  Tolerance :   1.0000e-05
  Last Orbital Rotation      ...    1.7426e-05

             **** THE GBW FILE WAS UPDATED (4_0_orca.gbw) ****
             **** DENSITY 4_0_orca.scfp WAS UPDATED ****
             **** ENERGY FILE WAS UPDATED (4_0_orca.en.tmp) ****
             **** THE GBW FILE WAS UPDATED (4_0_orca.gbw) ****
             **** DENSITY 4_0_orca.scfp WAS UPDATED ****
----------------
ORBITAL ENERGIES
----------------

  NO   OCC          E(Eh)            E(eV) 
   0   2.0000     -19.255603      -523.9716 
   1   2.0000     -12.627394      -343.6089 
   2   2.0000     -12.625885      -343.5678 
   3   2.0000     -12.625699      -343.5627 
   4   2.0000     -10.467011      -284.8218 
   5   2.0000     -10.452236      -284.4198 
   6   2.0000     -10.449991      -284.3587 
   7   2.0000     -10.449188      -284.3369 
   8   2.0000     -10.447463      -284.2899 
   9   2.0000     -10.446931      -284.2754 
  10   2.0000     -10.446376      -284.2603 
  11   2.0000     -10.446341      -284.2594 
  12   2.0000     -10.444464      -284.2083 
  13   2.0000     -10.443245      -284.1751 
  14   2.0000     -10.442537      -284.1559 
  15   2.0000     -10.382299      -282.5167 
  16   2.0000      -5.896715      -160.4578 
  17   2.0000      -5.896441      -160.4503 
  18   2.0000      -5.896255      -160.4452 
  19   2.0000      -5.895360      -160.4209 
  20   2.0000      -5.895346      -160.4205 
  21   2.0000      -2.438750       -66.3618 
  22   2.0000      -1.279042       -34.8045 
  23   2.0000      -1.273898       -34.6645 
  24   2.0000      -1.266887       -34.4737 
  25   2.0000      -0.984374       -26.7862 
  26   2.0000      -0.973231       -26.4830 
  27   2.0000      -0.798053       -21.7161 
  28   2.0000      -0.797104       -21.6903 
  29   2.0000      -0.794883       -21.6299 
  30   2.0000      -0.793403       -21.5896 
  31   2.0000      -0.762578       -20.7508 
  32   2.0000      -0.698490       -19.0069 
  33   2.0000      -0.618198       -16.8220 
  34   2.0000      -0.614156       -16.7120 
  35   2.0000      -0.612222       -16.6594 
  36   2.0000      -0.610079       -16.6011 
  37   2.0000      -0.599551       -16.3146 
  38   2.0000      -0.593798       -16.1581 
  39   2.0000      -0.563968       -15.3463 
  40   2.0000      -0.563226       -15.3262 
  41   2.0000      -0.562617       -15.3096 
  42   2.0000      -0.562067       -15.2946 
  43   2.0000      -0.561998       -15.2927 
  44   2.0000      -0.561065       -15.2673 
  45   2.0000      -0.560075       -15.2404 
  46   2.0000      -0.474947       -12.9240 
  47   2.0000      -0.460423       -12.5287 
  48   2.0000      -0.457290       -12.4435 
  49   2.0000      -0.455614       -12.3979 
  50   2.0000      -0.453072       -12.3287 
  51   2.0000      -0.451832       -12.2950 
  52   2.0000      -0.449148       -12.2219 
  53   2.0000      -0.436097       -11.8668 
  54   2.0000      -0.434970       -11.8361 
  55   2.0000      -0.433864       -11.8060 
  56   2.0000      -0.431903       -11.7527 
  57   2.0000      -0.428621       -11.6634 
  58   2.0000      -0.396971       -10.8021 
  59   2.0000      -0.390344       -10.6218 
  60   2.0000      -0.325680        -8.8622 
  61   2.0000      -0.291002        -7.9186 
  62   2.0000      -0.290352        -7.9009 
  63   2.0000      -0.280698        -7.6382 
  64   2.0000      -0.274439        -7.4679 
  65   2.0000      -0.230036        -6.2596 
  66   0.0000      -0.071003        -1.9321 
  67   0.0000      -0.007147        -0.1945 
  68   0.0000       0.016332         0.4444 
  69   0.0000       0.045239         1.2310 
  70   0.0000       0.053453         1.4545 
  71   0.0000       0.064817         1.7637 
  72   0.0000       0.066540         1.8107 
  73   0.0000       0.067672         1.8414 
  74   0.0000       0.073748         2.0068 
  75   0.0000       0.081953         2.2300 
  76   0.0000       0.117979         3.2104 
  77   0.0000       0.137183         3.7329 
  78   0.0000       0.138479         3.7682 
  79   0.0000       0.155083         4.2200 
  80   0.0000       0.163257         4.4425 
  81   0.0000       0.181035         4.9262 
  82   0.0000       0.186073         5.0633 
  83   0.0000       0.190191         5.1754 
  84   0.0000       0.195319         5.3149 
  85   0.0000       0.212572         5.7844 
  86   0.0000       0.216755         5.8982 
  87   0.0000       0.222718         6.0605 
  88   0.0000       0.229774         6.2525 
  89   0.0000       0.233807         6.3622 
  90   0.0000       0.235116         6.3978 
  91   0.0000       0.242767         6.6060 
  92   0.0000       0.249469         6.7884 
  93   0.0000       0.257234         6.9997 
  94   0.0000       0.260373         7.0851 
  95   0.0000       0.263920         7.1816 
  96   0.0000       0.269370         7.3299 
  97   0.0000       0.272627         7.4186 
  98   0.0000       0.275706         7.5023 
  99   0.0000       0.280060         7.6208 
 100   0.0000       0.310949         8.4613 
 101   0.0000       0.316316         8.6074 
 102   0.0000       0.326165         8.8754 
 103   0.0000       0.347248         9.4491 
 104   0.0000       0.353857         9.6289 
 105   0.0000       0.360061         9.7977 
 106   0.0000       0.362014         9.8509 
 107   0.0000       0.368261        10.0209 
 108   0.0000       0.448410        12.2019 
 109   0.0000       0.452054        12.3010 
 110   0.0000       0.471642        12.8340 
 111   0.0000       0.478040        13.0081 
 112   0.0000       0.502008        13.6603 
 113   0.0000       0.524582        14.2746 
 114   0.0000       0.544296        14.8111 
 115   0.0000       0.545688        14.8489 
 116   0.0000       0.554776        15.0962 
 117   0.0000       0.572727        15.5847 
 118   0.0000       0.581350        15.8193 
 119   0.0000       0.599814        16.3218 
 120   0.0000       0.613184        16.6856 
 121   0.0000       0.635129        17.2828 
 122   0.0000       0.642020        17.4702 
 123   0.0000       0.648765        17.6538 
 124   0.0000       0.653998        17.7962 
 125   0.0000       0.661211        17.9925 
 126   0.0000       0.668593        18.1933 
 127   0.0000       0.675494        18.3811 
 128   0.0000       0.698202        18.9990 
 129   0.0000       0.720437        19.6041 
 130   0.0000       0.724707        19.7203 
 131   0.0000       0.732835        19.9415 
 132   0.0000       0.750149        20.4126 
 133   0.0000       0.759361        20.6633 
 134   0.0000       0.760055        20.6821 
 135   0.0000       0.766147        20.8479 
 136   0.0000       0.787461        21.4279 
 137   0.0000       0.801326        21.8052 
 138   0.0000       0.807325        21.9684 
 139   0.0000       0.821016        22.3410 
 140   0.0000       0.827356        22.5135 
 141   0.0000       0.851813        23.1790 
 142   0.0000       0.868216        23.6254 
 143   0.0000       0.884475        24.0678 
 144   0.0000       0.888557        24.1789 
 145   0.0000       0.892130        24.2761 
 146   0.0000       0.904193        24.6043 
 147   0.0000       0.917117        24.9560 
 148   0.0000       0.930622        25.3235 
 149   0.0000       0.941195        25.6112 
 150   0.0000       0.954548        25.9746 
 151   0.0000       0.964254        26.2387 
 152   0.0000       0.998603        27.1734 
 153   0.0000       1.015356        27.6292 
 154   0.0000       1.017145        27.6779 
 155   0.0000       1.023492        27.8506 
 156   0.0000       1.040609        28.3164 
 157   0.0000       1.043612        28.3981 
 158   0.0000       1.054172        28.6855 
 159   0.0000       1.054743        28.7010 
 160   0.0000       1.062646        28.9161 
 161   0.0000       1.072327        29.1795 
 162   0.0000       1.078876        29.3577 
 163   0.0000       1.087188        29.5839 
 164   0.0000       1.095619        29.8133 
 165   0.0000       1.116172        30.3726 
 166   0.0000       1.126509        30.6539 
 167   0.0000       1.131692        30.7949 
 168   0.0000       1.139090        30.9962 
 169   0.0000       1.150321        31.3018 
 170   0.0000       1.163307        31.6552 
 171   0.0000       1.167261        31.7628 
 172   0.0000       1.186438        32.2846 
 173   0.0000       1.190893        32.4059 
 174   0.0000       1.218081        33.1457 
 175   0.0000       1.231620        33.5141 
 176   0.0000       1.247374        33.9428 
 177   0.0000       1.261018        34.3141 
 178   0.0000       1.351915        36.7875 
 179   0.0000       1.374689        37.4072 
 180   0.0000       1.391020        37.8516 
 181   0.0000       1.393250        37.9123 
 182   0.0000       1.411606        38.4117 
 183   0.0000       1.427860        38.8540 
 184   0.0000       1.436025        39.0762 
 185   0.0000       1.444329        39.3022 
 186   0.0000       1.454779        39.5865 
 187   0.0000       1.457455        39.6594 
 188   0.0000       1.480790        40.2943 
 189   0.0000       1.493325        40.6354 
 190   0.0000       1.519174        41.3388 
 191   0.0000       1.627277        44.2804 
 192   0.0000       1.634889        44.4876 
 193   0.0000       1.658753        45.1370 
 194   0.0000       1.694781        46.1173 
 195   0.0000       1.696464        46.1631 
 196   0.0000       1.730614        47.0924 
 197   0.0000       1.751898        47.6716 
 198   0.0000       1.770726        48.1839 
 199   0.0000       1.791087        48.7380 
 200   0.0000       1.791470        48.7484 
 201   0.0000       1.803147        49.0661 
 202   0.0000       1.831928        49.8493 
 203   0.0000       1.865730        50.7691 
 204   0.0000       1.871994        50.9395 
 205   0.0000       1.942036        52.8455 
 206   0.0000       1.951642        53.1069 
 207   0.0000       1.958854        53.3031 
 208   0.0000       2.048163        55.7333 
 209   0.0000       2.053316        55.8736 
 210   0.0000       2.056638        55.9640 
 211   0.0000       2.061984        56.1094 
 212   0.0000       2.094834        57.0033 
 213   0.0000       2.096543        57.0498 
 214   0.0000       2.108365        57.3715 
 215   0.0000       2.118708        57.6530 
 216   0.0000       2.120142        57.6920 
 217   0.0000       2.248920        61.1962 
 218   0.0000       2.259042        61.4717 
 219   0.0000       2.260467        61.5104 
 220   0.0000       2.262953        61.5781 
 221   0.0000       2.309416        62.8424 
 222   0.0000       2.327949        63.3467 
 223   0.0000       2.341812        63.7239 
 224   0.0000       2.344424        63.7950 
 225   0.0000       2.351045        63.9752 
 226   0.0000       2.354708        64.0749 
 227   0.0000       2.360191        64.2241 
 228   0.0000       2.374050        64.6012 
 229   0.0000       2.387003        64.9536 
 230   0.0000       2.401046        65.3358 
 231   0.0000       2.409074        65.5542 
 232   0.0000       2.423117        65.9364 
 233   0.0000       2.440940        66.4213 
 234   0.0000       2.444794        66.5262 
 235   0.0000       2.574688        70.0608 
 236   0.0000       2.582903        70.2844 
 237   0.0000       2.612406        71.0872 
 238   0.0000       2.623158        71.3798 
 239   0.0000       2.625480        71.4429 
 240   0.0000       2.631260        71.6002 
 241   0.0000       2.663982        72.4906 
 242   0.0000       2.673958        72.7621 
 243   0.0000       2.683652        73.0259 
 244   0.0000       2.693172        73.2849 
 245   0.0000       2.701479        73.5110 
 246   0.0000       2.706110        73.6370 
 247   0.0000       2.714008        73.8519 
 248   0.0000       2.718464        73.9732 
 249   0.0000       2.732828        74.3640 
 250   0.0000       2.771974        75.4293 
 251   0.0000       2.790848        75.9428 
 252   0.0000       2.837862        77.2221 
 253   0.0000       2.840825        77.3028 
 254   0.0000       3.005370        81.7803 
 255   0.0000       3.013247        81.9946 
 256   0.0000       3.055899        83.1552 
 257   0.0000       3.065499        83.4165 
 258   0.0000       3.068299        83.4927 
 259   0.0000       3.071906        83.5908 
 260   0.0000       3.421544        93.1049 
 261   0.0000       3.496380        95.1413 
 262   0.0000       3.531206        96.0890 
 263   0.0000       3.589680        97.6802 
 264   0.0000       3.620560        98.5205 
 265   0.0000       3.823402       104.0401 
 266   0.0000       3.854440       104.8846 
 267   0.0000       3.909461       106.3819 
 268   0.0000       3.951087       107.5145 
 269   0.0000       3.959504       107.7436 
 270   0.0000       3.999884       108.8424 
 271   0.0000       4.003527       108.9415 
 272   0.0000      10.999702       299.3171 
 273   0.0000      13.531913       368.2221 
 274   0.0000      13.559033       368.9601 
 275   0.0000      13.627629       370.8266 
 276   0.0000      13.646199       371.3320 
 277   0.0000      13.673022       372.0618 
 278   0.0000      13.715683       373.2227 
 279   0.0000      13.805911       375.6779 
 280   0.0000      14.021525       381.5451 
 281   0.0000      14.070597       382.8804 
 282   0.0000      14.072696       382.9375 
 283   0.0000      14.143920       384.8756 
 284   0.0000      14.313592       389.4926 
 285   0.0000      14.318900       389.6371 
 286   0.0000      14.329027       389.9126 
 287   0.0000      14.368389       390.9837 
 288   0.0000      85.387026      2323.4991 
 289   0.0000      88.281761      2402.2688 
 290   0.0000      88.367651      2404.6060 
 291   0.0000      88.712142      2413.9801 
 292   0.0000      94.801624      2579.6833 
 293   0.0000     357.458417      9726.9380 
 294   0.0000     780.487118     21238.1342 

                    ********************************
                    * MULLIKEN POPULATION ANALYSIS *
                    ********************************

-----------------------
MULLIKEN ATOMIC CHARGES
-----------------------
   0 Lu:    0.747834
   1 C :   -0.233781
   2 C :   -0.331889
   3 C :   -0.242663
   4 C :   -0.312186
   5 C :   -0.287981
   6 H :    0.243543
   7 H :    0.235645
   8 H :    0.238074
   9 H :    0.248836
  10 H :    0.238751
  11 C :   -0.316889
  12 C :   -0.275755
  13 C :   -0.309833
  14 C :   -0.251115
  15 H :    0.239160
  16 C :   -0.243400
  17 H :    0.229176
  18 H :    0.236583
  19 H :    0.243237
  20 H :    0.237808
  21 C :   -0.977349
  22 H :    0.205480
  23 H :    0.208997
  24 H :    0.188423
  25 C :   -0.872704
  26 H :    0.182675
  27 H :    0.241037
  28 H :    0.244249
  29 H :    0.246037
Sum of atomic charges:   -0.0000000

--------------------------------
MULLIKEN REDUCED ORBITAL CHARGES
--------------------------------
  0 Lus       :     4.413172  s :     4.413172
      pz      :     4.180619  p :    12.595279
      px      :     4.226037
      py      :     4.188624
      dz2     :     2.301862  d :    11.201022
      dxz     :     2.291664
      dyz     :     2.193208
      dx2y2   :     2.164298
      dxy     :     2.249991
      f0      :     2.010071  f :    14.040122
      f+1     :     2.006749
      f-1     :     2.004628
      f+2     :     2.008560
      f-2     :     2.004929
      f+3     :     2.001766
      f-3     :     2.003421
      g0      :     0.000422  g :     0.002571
      g+1     :     0.000408
      g-1     :     0.000311
      g+2     :     0.000409
      g-2     :     0.000247
      g+3     :     0.000291
      g-3     :     0.000285
      g+4     :     0.000086
      g-4     :     0.000112
  1 C s       :     3.267507  s :     3.267507
      pz      :     1.017058  p :     2.923694
      px      :     1.001677
      py      :     0.904959
      dz2     :     0.006585  d :     0.042579
      dxz     :     0.009399
      dyz     :     0.008974
      dx2y2   :     0.009159
      dxy     :     0.008462
  2 C s       :     3.297274  s :     3.297274
      pz      :     1.005512  p :     2.992118
      px      :     0.943656
      py      :     1.042950
      dz2     :     0.007977  d :     0.042498
      dxz     :     0.006170
      dyz     :     0.008173
      dx2y2   :     0.010921
      dxy     :     0.009257
  3 C s       :     3.273600  s :     3.273600
      pz      :     0.992705  p :     2.925462
      px      :     0.998402
      py      :     0.934354
      dz2     :     0.007589  d :     0.043601
      dxz     :     0.008607
      dyz     :     0.007069
      dx2y2   :     0.008681
      dxy     :     0.011655
  4 C s       :     3.284023  s :     3.284023
      pz      :     1.041006  p :     2.985697
      px      :     0.951416
      py      :     0.993276
      dz2     :     0.005425  d :     0.042466
      dxz     :     0.007858
      dyz     :     0.010144
      dx2y2   :     0.010997
      dxy     :     0.008043
  5 C s       :     3.278767  s :     3.278767
      pz      :     0.956366  p :     2.966441
      px      :     0.988946
      py      :     1.021130
      dz2     :     0.009429  d :     0.042773
      dxz     :     0.005834
      dyz     :     0.007307
      dx2y2   :     0.008996
      dxy     :     0.011208
  6 H s       :     0.756457  s :     0.756457
  7 H s       :     0.764355  s :     0.764355
  8 H s       :     0.761926  s :     0.761926
  9 H s       :     0.751164  s :     0.751164
 10 H s       :     0.761249  s :     0.761249
 11 C s       :     3.281660  s :     3.281660
      pz      :     1.044095  p :     2.992533
      px      :     0.905269
      py      :     1.043170
      dz2     :     0.005223  d :     0.042696
      dxz     :     0.008496
      dyz     :     0.006019
      dx2y2   :     0.011309
      dxy     :     0.011649
 12 C s       :     3.269229  s :     3.269229
      pz      :     1.026661  p :     2.963787
      px      :     1.000421
      py      :     0.936706
      dz2     :     0.005450  d :     0.042739
      dxz     :     0.009079
      dyz     :     0.006979
      dx2y2   :     0.011491
      dxy     :     0.009739
 13 C s       :     3.283739  s :     3.283739
      pz      :     1.048222  p :     2.983634
      px      :     0.923660
      py      :     1.011752
      dz2     :     0.003290  d :     0.042461
      dxz     :     0.009261
      dyz     :     0.007746
      dx2y2   :     0.011255
      dxy     :     0.010909
 14 C s       :     3.274017  s :     3.274017
      pz      :     0.996245  p :     2.933608
      px      :     1.012190
      py      :     0.925172
      dz2     :     0.007281  d :     0.043491
      dxz     :     0.006548
      dyz     :     0.006170
      dx2y2   :     0.012038
      dxy     :     0.011454
 15 H s       :     0.760840  s :     0.760840
 16 C s       :     3.273576  s :     3.273576
      pz      :     0.977062  p :     2.926827
      px      :     0.963984
      py      :     0.985782
      dz2     :     0.006983  d :     0.042996
      dxz     :     0.006249
      dyz     :     0.005918
      dx2y2   :     0.010837
      dxy     :     0.013010
 17 H s       :     0.770824  s :     0.770824
 18 H s       :     0.763417  s :     0.763417
 19 H s       :     0.756763  s :     0.756763
 20 H s       :     0.762192  s :     0.762192
 21 C s       :     3.468732  s :     3.468732
      pz      :     1.095662  p :     3.482494
      px      :     1.248340
      py      :     1.138492
      dz2     :     0.008374  d :     0.026122
      dxz     :     0.006262
      dyz     :     0.000893
      dx2y2   :     0.010568
      dxy     :     0.000025
 22 H s       :     0.794520  s :     0.794520
 23 H s       :     0.791003  s :     0.791003
 24 H s       :     0.811577  s :     0.811577
 25 C s       :     3.483538  s :     3.483538
      pz      :     1.123455  p :     3.363236
      px      :     1.119132
      py      :     1.120648
      dz2     :     0.004403  d :     0.025931
      dxz     :     0.006715
      dyz     :     0.004326
      dx2y2   :     0.001429
      dxy     :     0.009058
 26 H s       :     0.817325  s :     0.817325
 27 H s       :     0.758963  s :     0.758963
 28 H s       :     0.755751  s :     0.755751
 29 H s       :     0.753963  s :     0.753963


                     *******************************
                     * LOEWDIN POPULATION ANALYSIS *
                     *******************************

----------------------
LOEWDIN ATOMIC CHARGES
----------------------
   0 Lu:   -0.143463
   1 C :   -0.113674
   2 C :   -0.142646
   3 C :   -0.122115
   4 C :   -0.147913
   5 C :   -0.132217
   6 H :    0.157137
   7 H :    0.156805
   8 H :    0.159981
   9 H :    0.160534
  10 H :    0.154723
  11 C :   -0.150753
  12 C :   -0.131787
  13 C :   -0.145524
  14 C :   -0.124922
  15 H :    0.154236
  16 C :   -0.111555
  17 H :    0.155031
  18 H :    0.153531
  19 H :    0.156970
  20 H :    0.160060
  21 C :   -0.629244
  22 H :    0.116593
  23 H :    0.128497
  24 H :    0.111438
  25 C :   -0.495019
  26 H :    0.242264
  27 H :    0.151455
  28 H :    0.135704
  29 H :    0.135873

-------------------------------
LOEWDIN REDUCED ORBITAL CHARGES
-------------------------------
  0 Lus       :     4.344501  s :     4.344501
      pz      :     4.305323  p :    12.986548
      px      :     4.367860
      py      :     4.313365
      dz2     :     2.427942  d :    11.719941
      dxz     :     2.404917
      dyz     :     2.280782
      dx2y2   :     2.243125
      dxy     :     2.363175
      f0      :     2.022243  f :    14.087304
      f+1     :     2.014473
      f-1     :     2.009280
      f+2     :     2.018364
      f-2     :     2.010425
      f+3     :     2.005121
      f-3     :     2.007398
      g0      :     0.000842  g :     0.005169
      g+1     :     0.000846
      g-1     :     0.000619
      g+2     :     0.000825
      g-2     :     0.000461
      g+3     :     0.000594
      g-3     :     0.000567
      g+4     :     0.000189
      g-4     :     0.000225
  1 C s       :     2.868723  s :     2.868723
      pz      :     1.042658  p :     3.150874
      px      :     1.060433
      py      :     1.047782
      dz2     :     0.013623  d :     0.094077
      dxz     :     0.017228
      dyz     :     0.021408
      dx2y2   :     0.021070
      dxy     :     0.020749
  2 C s       :     2.867578  s :     2.867578
      pz      :     1.052325  p :     3.181579
      px      :     1.050311
      py      :     1.078944
      dz2     :     0.016176  d :     0.093489
      dxz     :     0.015426
      dyz     :     0.016995
      dx2y2   :     0.022122
      dxy     :     0.022770
  3 C s       :     2.871502  s :     2.871502
      pz      :     1.050268  p :     3.155229
      px      :     1.050842
      py      :     1.054119
      dz2     :     0.016034  d :     0.095384
      dxz     :     0.017424
      dyz     :     0.016418
      dx2y2   :     0.019870
      dxy     :     0.025638
  4 C s       :     2.867814  s :     2.867814
      pz      :     1.073274  p :     3.186520
      px      :     1.051028
      py      :     1.062218
      dz2     :     0.010616  d :     0.093580
      dxz     :     0.018071
      dyz     :     0.020052
      dx2y2   :     0.024941
      dxy     :     0.019900
  5 C s       :     2.867532  s :     2.867532
      pz      :     1.042504  p :     3.170240
      px      :     1.061622
      py      :     1.066113
      dz2     :     0.019224  d :     0.094445
      dxz     :     0.013927
      dyz     :     0.017982
      dx2y2   :     0.020934
      dxy     :     0.022377
  6 H s       :     0.842863  s :     0.842863
  7 H s       :     0.843195  s :     0.843195
  8 H s       :     0.840019  s :     0.840019
  9 H s       :     0.839466  s :     0.839466
 10 H s       :     0.845277  s :     0.845277
 11 C s       :     2.867542  s :     2.867542
      pz      :     1.053888  p :     3.188914
      px      :     1.057167
      py      :     1.077858
      dz2     :     0.010245  d :     0.094297
      dxz     :     0.018806
      dyz     :     0.010842
      dx2y2   :     0.025022
      dxy     :     0.029382
 12 C s       :     2.865541  s :     2.865541
      pz      :     1.036310  p :     3.171533
      px      :     1.074116
      py      :     1.061107
      dz2     :     0.011024  d :     0.094713
      dxz     :     0.017332
      dyz     :     0.015688
      dx2y2   :     0.027303
      dxy     :     0.023367
 13 C s       :     2.869707  s :     2.869707
      pz      :     1.064403  p :     3.182359
      px      :     1.056900
      py      :     1.061057
      dz2     :     0.005862  d :     0.093458
      dxz     :     0.020052
      dyz     :     0.014324
      dx2y2   :     0.027253
      dxy     :     0.025967
 14 C s       :     2.872078  s :     2.872078
      pz      :     1.034912  p :     3.157518
      px      :     1.069707
      py      :     1.052899
      dz2     :     0.013989  d :     0.095325
      dxz     :     0.013342
      dyz     :     0.014184
      dx2y2   :     0.026394
      dxy     :     0.027416
 15 H s       :     0.845764  s :     0.845764
 16 C s       :     2.866960  s :     2.866960
      pz      :     1.023899  p :     3.149670
      px      :     1.066529
      py      :     1.059242
      dz2     :     0.013421  d :     0.094925
      dxz     :     0.012876
      dyz     :     0.013678
      dx2y2   :     0.027210
      dxy     :     0.027740
 17 H s       :     0.844969  s :     0.844969
 18 H s       :     0.846469  s :     0.846469
 19 H s       :     0.843030  s :     0.843030
 20 H s       :     0.839940  s :     0.839940
 21 C s       :     3.055790  s :     3.055790
      pz      :     1.129111  p :     3.532639
      px      :     1.249199
      py      :     1.154329
      dz2     :     0.013227  d :     0.040815
      dxz     :     0.009705
      dyz     :     0.001849
      dx2y2   :     0.015760
      dxy     :     0.000275
 22 H s       :     0.883407  s :     0.883407
 23 H s       :     0.871503  s :     0.871503
 24 H s       :     0.888562  s :     0.888562
 25 C s       :     3.071215  s :     3.071215
      pz      :     1.130741  p :     3.383930
      px      :     1.138054
      py      :     1.115135
      dz2     :     0.006169  d :     0.039875
      dxz     :     0.010503
      dyz     :     0.007014
      dx2y2   :     0.002185
      dxy     :     0.014003
 26 H s       :     0.757736  s :     0.757736
 27 H s       :     0.848545  s :     0.848545
 28 H s       :     0.864296  s :     0.864296
 29 H s       :     0.864127  s :     0.864127


                      *****************************
                      * MAYER POPULATION ANALYSIS *
                      *****************************

  NA   - Mulliken gross atomic population
  ZA   - Total nuclear charge
  QA   - Mulliken gross atomic charge
  VA   - Mayer's total valence
  BVA  - Mayer's bonded valence
  FA   - Mayer's free valence

  ATOM       NA         ZA         QA         VA         BVA        FA
  0 Lu    42.2522    43.0000     0.7478     3.8427     3.8427    -0.0000
  1 C      6.2338     6.0000    -0.2338     3.7710     3.7710    -0.0000
  2 C      6.3319     6.0000    -0.3319     3.7814     3.7814    -0.0000
  3 C      6.2427     6.0000    -0.2427     3.7580     3.7580    -0.0000
  4 C      6.3122     6.0000    -0.3122     3.7717     3.7717    -0.0000
  5 C      6.2880     6.0000    -0.2880     3.7731     3.7731    -0.0000
  6 H      0.7565     1.0000     0.2435     0.9147     0.9147    -0.0000
  7 H      0.7644     1.0000     0.2356     0.9244     0.9244     0.0000
  8 H      0.7619     1.0000     0.2381     0.9233     0.9233    -0.0000
  9 H      0.7512     1.0000     0.2488     0.9134     0.9134     0.0000
 10 H      0.7612     1.0000     0.2388     0.9162     0.9162    -0.0000
 11 C      6.3169     6.0000    -0.3169     3.7766     3.7766     0.0000
 12 C      6.2758     6.0000    -0.2758     3.7744     3.7744    -0.0000
 13 C      6.3098     6.0000    -0.3098     3.7751     3.7751     0.0000
 14 C      6.2511     6.0000    -0.2511     3.7676     3.7676     0.0000
 15 H      0.7608     1.0000     0.2392     0.9166     0.9166    -0.0000
 16 C      6.2434     6.0000    -0.2434     3.7822     3.7822    -0.0000
 17 H      0.7708     1.0000     0.2292     0.9285     0.9285    -0.0000
 18 H      0.7634     1.0000     0.2366     0.9168     0.9168    -0.0000
 19 H      0.7568     1.0000     0.2432     0.9143     0.9143    -0.0000
 20 H      0.7622     1.0000     0.2378     0.9242     0.9242    -0.0000
 21 C      6.9773     6.0000    -0.9773     3.6277     3.6277    -0.0000
 22 H      0.7945     1.0000     0.2055     0.9149     0.9149     0.0000
 23 H      0.7910     1.0000     0.2090     0.9211     0.9211    -0.0000
 24 H      0.8116     1.0000     0.1884     0.9165     0.9165    -0.0000
 25 C      6.8727     6.0000    -0.8727     3.7141     3.7141     0.0000
 26 H      0.8173     1.0000     0.1827     0.9635     0.9635    -0.0000
 27 H      0.7590     1.0000     0.2410     0.9053     0.9053    -0.0000
 28 H      0.7558     1.0000     0.2442     0.9030     0.9030     0.0000
 29 H      0.7540     1.0000     0.2460     0.8976     0.8976     0.0000

  Mayer bond orders larger than 0.100000
B(  0-Lu,  1-C ) :   0.2416 B(  0-Lu,  2-C ) :   0.2867 B(  0-Lu,  3-C ) :   0.2773 
B(  0-Lu,  4-C ) :   0.2919 B(  0-Lu,  5-C ) :   0.2678 B(  0-Lu, 11-C ) :   0.2880 
B(  0-Lu, 12-C ) :   0.2609 B(  0-Lu, 13-C ) :   0.2848 B(  0-Lu, 14-C ) :   0.2757 
B(  0-Lu, 16-C ) :   0.2416 B(  0-Lu, 21-C ) :   0.6037 B(  0-Lu, 25-C ) :   0.2473 
B(  0-Lu, 26-H ) :   0.1960 B(  1-C ,  2-C ) :   1.2786 B(  1-C ,  5-C ) :   1.3047 
B(  1-C ,  8-H ) :   0.9264 B(  2-C ,  3-C ) :   1.2790 B(  2-C ,  9-H ) :   0.9128 
B(  3-C ,  4-C ) :   1.2764 B(  3-C , 10-H ) :   0.9137 B(  4-C ,  5-C ) :   1.2633 
B(  4-C ,  6-H ) :   0.9121 B(  5-C ,  7-H ) :   0.9256 B( 11-C , 12-C ) :   1.2618 
B( 11-C , 14-C ) :   1.2869 B( 11-C , 15-H ) :   0.9144 B( 12-C , 16-C ) :   1.3108 
B( 12-C , 17-H ) :   0.9289 B( 13-C , 14-C ) :   1.2759 B( 13-C , 16-C ) :   1.2818 
B( 13-C , 19-H ) :   0.9131 B( 14-C , 18-H ) :   0.9139 B( 16-C , 20-H ) :   0.9257 
B( 21-C , 22-H ) :   0.9197 B( 21-C , 23-H ) :   0.9136 B( 21-C , 24-H ) :   0.9206 
B( 21-C , 25-C ) :   0.1057 B( 21-C , 26-H ) :   0.1309 B( 25-C , 26-H ) :   0.6154 
B( 25-C , 27-H ) :   0.8979 B( 25-C , 28-H ) :   0.9117 B( 25-C , 29-H ) :   0.9044 



------------------
HIRSHFELD ANALYSIS
------------------

Total integrated alpha density =     66.000359154
Total integrated beta density  =     66.000359154

  ATOM     CHARGE      SPIN    
   0 Lu   0.382228    0.000000
   1 C   -0.056448    0.000000
   2 C   -0.072836    0.000000
   3 C   -0.067062    0.000000
   4 C   -0.079151    0.000000
   5 C   -0.069485    0.000000
   6 H    0.051904    0.000000
   7 H    0.053133    0.000000
   8 H    0.059793    0.000000
   9 H    0.056437    0.000000
  10 H    0.051729    0.000000
  11 C   -0.080048    0.000000
  12 C   -0.067909    0.000000
  13 C   -0.074351    0.000000
  14 C   -0.068234    0.000000
  15 H    0.049006    0.000000
  16 C   -0.058401    0.000000
  17 H    0.054073    0.000000
  18 H    0.050955    0.000000
  19 H    0.052893    0.000000
  20 H    0.058226    0.000000
  21 C   -0.278299    0.000000
  22 H   -0.008660    0.000000
  23 H    0.005868    0.000000
  24 H   -0.011756    0.000000
  25 C   -0.131916    0.000000
  26 H    0.111389    0.000000
  27 H    0.040596    0.000000
  28 H    0.023970    0.000000
  29 H    0.021638    0.000000

  TOTAL  -0.000718    0.000000

-------
TIMINGS
-------

Total SCF time: 0 days 0 hours 8 min 12 sec 

Total time                  ....     492.435 sec
Sum of individual times     ....     491.503 sec  ( 99.8%)

Fock matrix formation       ....     485.409 sec  ( 98.6%)
  Split-RI-J                ....      64.298 sec  ( 13.2% of F)
  Chain of spheres X        ....     387.932 sec  ( 79.9% of F)
  XC integration            ....      33.143 sec  (  6.8% of F)
    Basis function eval.    ....       8.621 sec  ( 26.0% of XC)
    Density eval.           ....      11.545 sec  ( 34.8% of XC)
    XC-Functional eval.     ....       1.389 sec  (  4.2% of XC)
    XC-Potential eval.      ....       9.702 sec  ( 29.3% of XC)
Diagonalization             ....       0.661 sec  (  0.1%)
Density matrix formation    ....       0.053 sec  (  0.0%)
Population analysis         ....       0.651 sec  (  0.1%)
Initial guess               ....       0.048 sec  (  0.0%)
Orbital Transformation      ....       0.290 sec  (  0.1%)
Orbital Orthonormalization  ....       0.000 sec  (  0.0%)
DIIS solution               ....       0.254 sec  (  0.1%)
Grid generation             ....       4.136 sec  (  0.8%)

Maximum memory used throughout the entire SCF-calculation: 208.6 MB


-------------------------------------------------------------------------------
                          DFT DISPERSION CORRECTION                            
                                                                               
                              DFTD3 V3.1  Rev 1                                
                          USING Becke-Johnson damping                          
-------------------------------------------------------------------------------
The PBEh-3c composite method is recognized
Using three-body term ABC
Active option DFTDOPT                   ...         4   

molecular C6(AA) [au] = 10532.285664 


            DFT-D V3
 parameters
 s6 scaling factor         :     1.0000 
 a1 scaling factor         :     0.4860 
 s8 scaling factor         :     0.0000 
 a2 scaling factor         :     4.5000 
 Damping factor alpha9(ATM):    16.0000 
 ad hoc parameters k1-k3   :    16.0000     1.3333    -4.0000 

 Edisp/kcal,au: -11.240425641492  -0.017912756551 
 E6   /kcal   : -11.441147630 
 E8   /kcal   :  -0.000000000 
 E6(ABC)      :   0.200721988 
 % E8         :   0.000000000 
 % E6(ABC)    :  -1.785715190 

-------------------------   ----------------
Dispersion correction           -0.017912757
-------------------------   ----------------

 ** NOTE ** -> element lu will be treated as sc
NOTIFICATION: Different basis set in ORCA and otool_gcp:
ORCA: 295  gCP: 245 
If you are NOT using ECPs, check your basis set inputs!
------------------   -----------------
gCP correction             0.033759649
------------------   -----------------

-------------------------   --------------------
FINAL SINGLE POINT ENERGY     -1702.211057355565
-------------------------   --------------------

------------------------------------------------------------------------------
                         ORCA SCF GRADIENT CALCULATION
------------------------------------------------------------------------------

 ... reading COSX grid (gridx3)
Gradient of the Kohn-Sham DFT energy:
Kohn-Sham wavefunction type      ... RKS
Hartree-Fock exchange scaling    ...    0.420
Number of operators              ...    1
Number of atoms                  ...   30
Basis set dimensions             ...  295
Integral neglect threshold       ... 2.5e-11
Integral primitive cutoff        ... 2.5e-12
SHARK Integral package           ... ON

Nuc. rep. gradient       (SHARK) ... done (  0.0 sec)
HCore & Overlap gradient (SHARK) ... done (  1.3 sec)
ECP gradient             (SHARK) ... done (  1.8 sec)
RI-J gradient            (SHARK) ... done (  6.8 sec)
COSX-gradient                    ... done ( 40.2 sec)
Exchange-correlation gradient    ... done
Dispersion correction            ... done
gCP correction                   ... done

------------------
CARTESIAN GRADIENT
------------------

   1   Lu  :    0.046179974    0.012228082   -0.010914247
   2   C   :   -0.003705550   -0.001101817   -0.001834496
   3   C   :   -0.006382425   -0.003827084   -0.005227041
   4   C   :    0.002661416    0.005234498    0.006321117
   5   C   :   -0.002595019    0.002513078   -0.002792536
   6   C   :   -0.003554380   -0.007687827   -0.005196279
   7   H   :   -0.000675094    0.000375931   -0.001392809
   8   H   :    0.004749797    0.002995949    0.003567732
   9   H   :    0.004862303    0.003173275    0.005667007
  10   H   :   -0.000300362   -0.001222272    0.000326237
  11   H   :    0.000949545    0.000245856    0.000803396
  12   C   :   -0.004233251   -0.001287083    0.001627378
  13   C   :   -0.002239594    0.001009914    0.008181992
  14   C   :   -0.000750166   -0.000142863   -0.001340946
  15   C   :    0.002156467   -0.002558399   -0.006863366
  16   H   :   -0.000699406    0.000159049    0.000660704
  17   C   :   -0.003119722    0.007570684    0.006385764
  18   H   :    0.003896302   -0.004395536   -0.006490883
  19   H   :    0.000334470   -0.001337998    0.000889123
  20   H   :    0.000711026   -0.000455825    0.000433825
  21   H   :    0.001040692   -0.002416999   -0.006196541
  22   C   :   -0.001459906   -0.010625758    0.008462375
  23   H   :    0.000344982   -0.003751401    0.002578628
  24   H   :   -0.016893731   -0.006778250    0.004387647
  25   H   :    0.002005633   -0.005259730   -0.003865944
  26   C   :    0.035960537    0.016187881   -0.008943196
  27   H   :   -0.044163199   -0.025883228    0.029728697
  28   H   :   -0.015070810    0.015409010   -0.013405356
  29   H   :    0.000417057    0.008441978   -0.005055849
  30   H   :   -0.000357395    0.002690086   -0.006039426

Difference to translation invariance:
           :    0.0000701918   -0.0004968013   -0.0055372912

Difference to rotation invariance:
           :    0.0009566510    0.0005384762    0.0012091519

Norm of the cartesian gradient     ...    0.0986486815
RMS gradient                       ...    0.0103984841
MAX gradient                       ...    0.0461799744

-------
TIMINGS
-------

Total SCF gradient time            ...       60.675 sec

One electron gradient       ....       3.067 sec  (  5.1%)
RI-J Coulomb gradient       ....       6.779 sec  ( 11.2%)
COSX gradient               ....      40.212 sec  ( 66.3%)
XC gradient                 ....       7.870 sec  ( 13.0%)

Maximum memory used throughout the entire SCFGRAD-calculation: 206.8 MB

                            ***************************************
                            *     ORCA property calculations      *
                            ***************************************

                                    ---------------------
                                    Active property flags
                                    ---------------------
   (+) Dipole Moment


------------------------------------------------------------------------------
                       ORCA ELECTRIC PROPERTIES CALCULATION
------------------------------------------------------------------------------

Dipole Moment Calculation                       ... on
Quadrupole Moment Calculation                   ... off
Polarizability Calculation                      ... off
GBWName                                         ... 4_0_orca.gbw
Electron density                                ... 4_0_orca.scfp
The origin for moment calculation is the CENTER OF MASS  = ( 0.493579, -0.161567  0.096245)

-------------
DIPOLE MOMENT
-------------
                                X             Y             Z
Electronic contribution:      0.31117      -3.72941       5.56394
Nuclear contribution   :      0.13116       4.41595      -5.99167
                        -----------------------------------------
Total Dipole Moment    :      0.44233       0.68654      -0.42773
                        -----------------------------------------
Magnitude (a.u.)       :      0.92193
Magnitude (Debye)      :      2.34336



--------------------
Rotational spectrum 
--------------------
 
Rotational constants in cm-1:     0.028212     0.019596     0.017932 
Rotational constants in MHz :   845.771057   587.464664   537.596288 

 Dipole components along the rotational axes: 
x,y,z [a.u.] :     0.056151    -0.292427    -0.872519 
x,y,z [Debye]:     0.142723    -0.743291    -2.217768 

 

Timings for individual modules:

Sum of individual times         ...      555.263 sec (=   9.254 min)
GTO integral calculation        ...        2.090 sec (=   0.035 min)   0.4 %
SCF iterations                  ...      492.457 sec (=   8.208 min)  88.7 %
SCF Gradient evaluation         ...       60.717 sec (=   1.012 min)  10.9 %
                             ****ORCA TERMINATED NORMALLY****
TOTAL RUN TIME: 0 days 0 hours 9 minutes 15 seconds 676 msec
