
                                 *****************
                                 * O   R   C   A *
                                 *****************

                                            #,                                       
                                            ###                                      
                                            ####                                     
                                            #####                                    
                                            ######                                   
                                           ########,                                 
                                     ,,################,,,,,                         
                               ,,#################################,,                 
                          ,,##########################################,,             
                       ,#########################################, ''#####,          
                    ,#############################################,,   '####,        
                  ,##################################################,,,,####,       
                ,###########''''           ''''###############################       
              ,#####''   ,,,,##########,,,,          '''####'''          '####       
            ,##' ,,,,###########################,,,                        '##       
           ' ,,###''''                  '''############,,,                           
         ,,##''                                '''############,,,,        ,,,,,,###''
      ,#''                                            '''#######################'''  
     '                                                          ''''####''''         
             ,#######,   #######,   ,#######,      ##                                
            ,#'     '#,  ##    ##  ,#'     '#,    #''#        ######   ,####,        
            ##       ##  ##   ,#'  ##            #'  '#       #        #'  '#        
            ##       ##  #######   ##           ,######,      #####,   #    #        
            '#,     ,#'  ##    ##  '#,     ,#' ,#      #,         ##   #,  ,#        
             '#######'   ##     ##  '#######'  #'      '#     #####' # '####'        



                  #######################################################
                  #                        -***-                        #
                  #          Department of theory and spectroscopy      #
                  #    Directorship and core code : Frank Neese         #
                  #        Max Planck Institute fuer Kohlenforschung    #
                  #                Kaiser Wilhelm Platz 1               #
                  #                 D-45470 Muelheim/Ruhr               #
                  #                      Germany                        #
                  #                                                     #
                  #                  All rights reserved                #
                  #                        -***-                        #
                  #######################################################


                         Program Version 5.0.3 -  RELEASE  -


 With contributions from (in alphabetic order):
   Daniel Aravena         : Magnetic Suceptibility
   Michael Atanasov       : Ab Initio Ligand Field Theory (pilot matlab implementation)
   Alexander A. Auer      : GIAO ZORA, VPT2 properties, NMR spectrum
   Ute Becker             : Parallelization
   Giovanni Bistoni       : ED, misc. LED, open-shell LED, HFLD
   Martin Brehm           : Molecular dynamics
   Dmytro Bykov           : SCF Hessian
   Vijay G. Chilkuri      : MRCI spin determinant printing, contributions to CSF-ICE
   Dipayan Datta          : RHF DLPNO-CCSD density
   Achintya Kumar Dutta   : EOM-CC, STEOM-CC
   Dmitry Ganyushin       : Spin-Orbit,Spin-Spin,Magnetic field MRCI
   Miquel Garcia          : C-PCM and meta-GGA Hessian, CC/C-PCM, Gaussian charge scheme
   Yang Guo               : DLPNO-NEVPT2, F12-NEVPT2, CIM, IAO-localization
   Andreas Hansen         : Spin unrestricted coupled pair/coupled cluster methods
   Benjamin Helmich-Paris : MC-RPA, TRAH-SCF, COSX integrals
   Lee Huntington         : MR-EOM, pCC
   Robert Izsak           : Overlap fitted RIJCOSX, COSX-SCS-MP3, EOM
   Marcus Kettner         : VPT2
   Christian Kollmar      : KDIIS, OOCD, Brueckner-CCSD(T), CCSD density, CASPT2, CASPT2-K
   Simone Kossmann        : Meta GGA functionals, TD-DFT gradient, OOMP2, MP2 Hessian
   Martin Krupicka        : Initial AUTO-CI
   Lucas Lang             : DCDCAS
   Marvin Lechner         : AUTO-CI (C++ implementation), FIC-MRCC
   Dagmar Lenk            : GEPOL surface, SMD
   Dimitrios Liakos       : Extrapolation schemes; Compound Job, initial MDCI parallelization
   Dimitrios Manganas     : Further ROCIS development; embedding schemes
   Dimitrios Pantazis     : SARC Basis sets
   Anastasios Papadopoulos: AUTO-CI, single reference methods and gradients
   Taras Petrenko         : DFT Hessian,TD-DFT gradient, ASA, ECA, R-Raman, ABS, FL, XAS/XES, NRVS
   Peter Pinski           : DLPNO-MP2, DLPNO-MP2 Gradient
   Christoph Reimann      : Effective Core Potentials
   Marius Retegan         : Local ZFS, SOC
   Christoph Riplinger    : Optimizer, TS searches, QM/MM, DLPNO-CCSD(T), (RO)-DLPNO pert. Triples
   Tobias Risthaus        : Range-separated hybrids, TD-DFT gradient, RPA, STAB
   Michael Roemelt        : Original ROCIS implementation
   Masaaki Saitow         : Open-shell DLPNO-CCSD energy and density
   Barbara Sandhoefer     : DKH picture change effects
   Avijit Sen             : IP-ROCIS
   Kantharuban Sivalingam : CASSCF convergence, NEVPT2, FIC-MRCI
   Bernardo de Souza      : ESD, SOC TD-DFT
   Georgi Stoychev        : AutoAux, RI-MP2 NMR, DLPNO-MP2 response
   Willem Van den Heuvel  : Paramagnetic NMR
   Boris Wezisla          : Elementary symmetry handling
   Frank Wennmohs         : Technical directorship


 We gratefully acknowledge several colleagues who have allowed us to
 interface, adapt or use parts of their codes:
   Stefan Grimme, W. Hujo, H. Kruse, P. Pracht,  : VdW corrections, initial TS optimization,
                  C. Bannwarth, S. Ehlert          DFT functionals, gCP, sTDA/sTD-DF
   Ed Valeev, F. Pavosevic, A. Kumar             : LibInt (2-el integral package), F12 methods
   Garnet Chan, S. Sharma, J. Yang, R. Olivares  : DMRG
   Ulf Ekstrom                                   : XCFun DFT Library
   Mihaly Kallay                                 : mrcc  (arbitrary order and MRCC methods)
   Jiri Pittner, Ondrej Demel                    : Mk-CCSD
   Frank Weinhold                                : gennbo (NPA and NBO analysis)
   Christopher J. Cramer and Donald G. Truhlar   : smd solvation model
   Lars Goerigk                                  : TD-DFT with DH, B97 family of functionals
   V. Asgeirsson, H. Jonsson                     : NEB implementation
   FAccTs GmbH                                   : IRC, NEB, NEB-TS, DLPNO-Multilevel, CI-OPT
                                                   MM, QMMM, 2- and 3-layer-ONIOM, Crystal-QMMM,
                                                   LR-CPCM, SF, NACMEs, symmetry and pop. for TD-DFT,
                                                   nearIR, NL-DFT gradient (VV10), updates on ESD,
                                                   ML-optimized integration grids
   S Lehtola, MJT Oliveira, MAL Marques          : LibXC Library
   Liviu Ungur et al                             : ANISO software


 Your calculation uses the libint2 library for the computation of 2-el integrals
 For citations please refer to: http://libint.valeyev.net

 Your ORCA version has been built with support for libXC version: 5.1.0
 For citations please refer to: https://tddft.org/programs/libxc/

 This ORCA versions uses:
   CBLAS   interface :  Fast vector & matrix operations
   LAPACKE interface :  Fast linear algebra routines
   SCALAPACK package :  Parallel linear algebra routines
   Shared memory     :  Shared parallel matrices
   BLAS/LAPACK       :  OpenBLAS 0.3.15  USE64BITINT DYNAMIC_ARCH NO_AFFINITY SkylakeX SINGLE_THREADED
        Core in use  :  SkylakeX
   Copyright (c) 2011-2014, The OpenBLAS Project


Your calculation utilizes the geometrical counterpoise correction gCP
Please cite in your paper:
H.Kruse, S. Grimme J.Chem.Phys., 136, (2012), 154101 
   

Your calculation utilizes the atom-pairwise dispersion correction
with the Becke-Johnson damping scheme (D3BJ)
Cite in your paper:
S.Grimme, S.Ehrlich, L.Goerigk, J Comput Chem, (2011), 32, 1456–1465 
S.Grimme, J.Antony, S.Ehrlich and H.Krieg, J.Chem.Phys., 132, (2010), 154104 
   

Your calculation employs the composite approach PBEh-3c.
Please cite in your paper:
S. Grimme, J. G. Brandenburg, C. Bannwarth, A. Hansen J.Chem.Phys., 143, (2015), 054107 
   

================================================================================

cite the ECPs for Pd [Def2-ECP] as follows:
Ce-Yb(ecp-28): M. Dolg, H. Stoll, H.Preuss, J. Chem. Phys., 1989, 90, 1730-1734.
Y-Cd(ecp-28), Hf-Hg(ecp-46): D. Andrae,U. Haeussermann, M. Dolg, H. Stoll, H. Preuss, Theor. Chim. Acta, 1990, 77, 123-141.
In-Sb(ecp-28), Tl-Bi(ecp-46): B. Metz, H. Stoll, M. Dolg, J. Chem. Phys., 2000, 113, 2563-2569.
Te-Xe(ecp-28), Po-Rn(ecp-46): K. A. Peterson, D. Figgen, E. Goll, H. Stoll, M. Dolg, J. Chem. Phys., 2003, 119, 11113-11123.
Rb(ecp-28), Cs(ecp-46): T. Leininger, A. Nicklass, W. Kuechle, H. Stoll, M. Dolg, A. Bergner, Chem. Phys. Lett., 1996, 255, 274-280.
Sr(ecp-28), Ba(ecp-46): M. Kaupp, P. V. Schleyer, H. Stoll and H. Preuss, J. Chem. Phys., 1991, 94, 1360-1366.
La(ecp-46): M. Dolg, H. Stoll, A. Savin, H. Preuss, Theor. Chim. Acta, 1989, 75, 173-194.
Lu(ecp-28): X. Cao, M. Dolg, J. Chem. Phys., 2001, 115, 7348-7355.

ECP parameters for Pd [Def2-ECP] have been obtained from:
TURBOMOLE (7.0.2)

----- Orbital basis set information -----
Your calculation utilizes the basis: def2-mSVP

----- AuxJ basis set information -----
Your calculation utilizes the auxiliary basis: def2/J
   F. Weigend, Phys. Chem. Chem. Phys. 8, 1057 (2006).

================================================================================
                                        WARNINGS
                       Please study these warnings very carefully!
================================================================================


INFO   : the flag for use of the SHARK integral package has been found!

================================================================================
                                       INPUT FILE
================================================================================
NAME = 1_1_orca.inp
|  1> ! EnGrad PBEh-3c
|  2> %output 
|  3> xyzfile=True 
|  4> end 
|  5> %scf 
|  6> maxiter 250 
|  7> end
|  8> %output
|  9> Print[P_Hirshfeld] = 1
| 10> end
| 11> % maxcore
| 12> 4000
| 13> *xyz 0 1
| 14> Pd   0.75626101   0.66855921  -0.57274185 
| 15> O    2.37143791   1.68134303   0.15000080 
| 16> C    1.68870359   2.77332576   0.19151010 
| 17> O    0.47546116   2.70820041  -0.08811945 
| 18> C    2.37118609   4.07620346   0.51281745 
| 19> H    1.67874865   4.74811127   1.01073942 
| 20> H    2.68423209   4.54347398  -0.42256871 
| 21> H    3.25487713   3.92730157   1.12379023 
| 22> N   -1.14054697  -0.12578803  -1.12678493 
| 23> C   -1.21341704  -0.57638258  -2.52389463 
| 24> H   -0.93214181   0.23368806  -3.18593887 
| 25> H   -2.24015251  -0.88339293  -2.76384688 
| 26> H   -0.56096935  -1.41425245  -2.70366591 
| 27> C   -2.09284146   0.98002240  -0.96521194 
| 28> H   -2.06181933   1.39140399   0.03006111 
| 29> H   -3.10594557   0.63554326  -1.19021642 
| 30> H   -1.83765294   1.77244355  -1.66439276 
| 31> C   -1.40988353  -1.03074840   1.22471161 
| 32> C   -0.26582010  -1.47636768   1.91835073 
| 33> C   -0.17533392  -1.38873922   3.29357381 
| 34> C   -1.22805468  -0.89367362   4.02488154 
| 35> C   -2.40247641  -0.52225885   3.37626661 
| 36> C   -2.60258484  -0.51658688   1.95763829 
| 37> H   -1.16161911  -0.83049761   5.10553921 
| 38> H   -3.25229023  -0.26082296   3.98156569 
| 39> H    0.54657883  -1.93311152   1.37523025 
| 40> H    0.71077266  -1.75079005   3.79781755 
| 41> H   -3.60522770  -0.19023748   1.54622400 
| 42> C   -1.51494695  -1.27303390  -0.24416532 
| 43> H   -2.54729203  -1.55897085  -0.46804891 
| 44> H   -0.88412534  -2.12359251  -0.54305635 
| 45> O    1.64609624  -1.04323516  -1.02178440 
| 46> C    2.25255670  -0.97889830  -2.19283856 
| 47> O    2.07516234  -0.11272420  -3.00759746 
| 48> C    3.23599588  -2.11022574  -2.43757033 
| 49> H    2.81774880  -3.07290289  -2.17992787 
| 50> H    4.12387596  -1.95681753  -1.83306832 
| 51> H    3.54426835  -2.11683409  -3.48652647 
| 52> *
| 53> 
| 54>                          ****END OF INPUT****
================================================================================

                     *******************************
                     * Energy+Gradient Calculation *
                     *******************************

---------------------------------
CARTESIAN COORDINATES (ANGSTROEM)
---------------------------------
  Pd     0.756261    0.668559   -0.572742
  O      2.371438    1.681343    0.150001
  C      1.688704    2.773326    0.191510
  O      0.475461    2.708200   -0.088119
  C      2.371186    4.076203    0.512817
  H      1.678749    4.748111    1.010739
  H      2.684232    4.543474   -0.422569
  H      3.254877    3.927302    1.123790
  N     -1.140547   -0.125788   -1.126785
  C     -1.213417   -0.576383   -2.523895
  H     -0.932142    0.233688   -3.185939
  H     -2.240153   -0.883393   -2.763847
  H     -0.560969   -1.414252   -2.703666
  C     -2.092841    0.980022   -0.965212
  H     -2.061819    1.391404    0.030061
  H     -3.105946    0.635543   -1.190216
  H     -1.837653    1.772444   -1.664393
  C     -1.409884   -1.030748    1.224712
  C     -0.265820   -1.476368    1.918351
  C     -0.175334   -1.388739    3.293574
  C     -1.228055   -0.893674    4.024882
  C     -2.402476   -0.522259    3.376267
  C     -2.602585   -0.516587    1.957638
  H     -1.161619   -0.830498    5.105539
  H     -3.252290   -0.260823    3.981566
  H      0.546579   -1.933112    1.375230
  H      0.710773   -1.750790    3.797818
  H     -3.605228   -0.190237    1.546224
  C     -1.514947   -1.273034   -0.244165
  H     -2.547292   -1.558971   -0.468049
  H     -0.884125   -2.123593   -0.543056
  O      1.646096   -1.043235   -1.021784
  C      2.252557   -0.978898   -2.192839
  O      2.075162   -0.112724   -3.007597
  C      3.235996   -2.110226   -2.437570
  H      2.817749   -3.072903   -2.179928
  H      4.123876   -1.956818   -1.833068
  H      3.544268   -2.116834   -3.486526

----------------------------
CARTESIAN COORDINATES (A.U.)
----------------------------
  NO LB      ZA    FRAG     MASS         X           Y           Z
   0 Pd   18.0000*   0   106.400    1.429126    1.263394   -1.082325
   1 O     8.0000    0    15.999    4.481368    3.177278    0.283460
   2 C     6.0000    0    12.011    3.191187    5.240826    0.361902
   3 O     8.0000    0    15.999    0.898491    5.117757   -0.166522
   4 C     6.0000    0    12.011    4.480892    7.702908    0.969085
   5 H     1.0000    0     1.008    3.172375    8.972630    1.910021
   6 H     1.0000    0     1.008    5.072464    8.585922   -0.798539
   7 H     1.0000    0     1.008    6.150826    7.421524    2.123656
   8 N     7.0000    0    14.007   -2.155321   -0.237705   -2.129315
   9 C     6.0000    0    12.011   -2.293026   -1.089205   -4.769470
  10 H     1.0000    0     1.008   -1.761493    0.441606   -6.020552
  11 H     1.0000    0     1.008   -4.233275   -1.669371   -5.222914
  12 H     1.0000    0     1.008   -1.060078   -2.672550   -5.109188
  13 C     6.0000    0    12.011   -3.954897    1.851974   -1.823986
  14 H     1.0000    0     1.008   -3.896274    2.629372    0.056807
  15 H     1.0000    0     1.008   -5.869387    1.201003   -2.249183
  16 H     1.0000    0     1.008   -3.472661    3.349433   -3.145246
  17 C     6.0000    0    12.011   -2.664294   -1.947832    2.314370
  18 C     6.0000    0    12.011   -0.502327   -2.789931    3.625158
  19 C     6.0000    0    12.011   -0.331333   -2.624337    6.223953
  20 C     6.0000    0    12.011   -2.320687   -1.688798    7.605924
  21 C     6.0000    0    12.011   -4.540022   -0.986926    6.380219
  22 C     6.0000    0    12.011   -4.918173   -0.976208    3.699400
  23 H     1.0000    0     1.008   -2.195142   -1.569413    9.648071
  24 H     1.0000    0     1.008   -6.145938   -0.492884    7.524069
  25 H     1.0000    0     1.008    1.032884   -3.653051    2.598809
  26 H     1.0000    0     1.008    1.343166   -3.308514    7.176835
  27 H     1.0000    0     1.008   -6.812893   -0.359497    2.921940
  28 C     6.0000    0    12.011   -2.862835   -2.405685   -0.461406
  29 H     1.0000    0     1.008   -4.813684   -2.946028   -0.884484
  30 H     1.0000    0     1.008   -1.670755   -4.013008   -1.026228
  31 O     8.0000    0    15.999    3.110671   -1.971429   -1.930893
  32 C     6.0000    0    12.011    4.256715   -1.849850   -4.143864
  33 O     8.0000    0    15.999    3.921489   -0.213018   -5.683536
  34 C     6.0000    0    12.011    6.115146   -3.987749   -4.606340
  35 H     1.0000    0     1.008    5.324774   -5.806945   -4.119467
  36 H     1.0000    0     1.008    7.792996   -3.697849   -3.463997
  37 H     1.0000    0     1.008    6.697697   -4.000237   -6.588580
* core charge reduced due to ECP

--------------------------------
INTERNAL COORDINATES (ANGSTROEM)
--------------------------------
 Pd     0   0   0     0.000000000000     0.00000000     0.00000000
 O      1   0   0     2.038843893602     0.00000000     0.00000000
 C      2   1   0     1.288516766018    90.72423644     0.00000000
 O      3   2   1     1.246752257025   117.65362688     5.07201982
 C      3   2   1     1.505493632377   120.00600519   187.57247271
 H      5   3   2     1.085751353516   110.14031489   209.87925695
 H      5   3   2     1.091460858344   108.51865396    91.70283277
 H      5   3   2     1.084605626448   111.76291336   332.80160364
 N      1   2   3     2.129749230586   169.43487422   330.68777003
 C      9   1   2     1.469782640197   113.94016936   140.66800602
 H     10   9   1     1.083343330860   109.80279633   304.62640942
 H     10   9   1     1.098188582459   109.86183677   185.30354215
 H     10   9   1     1.077047640707   111.53793088    65.32482618
 C      9   1   2     1.468259968084   105.55215718    22.75910553
 H     14   9   1     1.077388337229   111.74989892   304.57041275
 H     14   9   1     1.093468258165   109.93842488   182.51415414
 H     14   9   1     1.087155130956   109.02292146    63.87779837
 C      9   1   2     2.533975420452    89.22391407   287.14237567
 C     18   9   1     1.410174777595   118.88687669   326.03444197
 C     19  18   9     1.380979730314   121.52953903   149.32268098
 C     20  19  18     1.374089495919   120.17593001     1.86263638
 C     21  20  19     1.392090750881   119.63567470     2.11176019
 C     22  21  20     1.432683449094   125.46800564   355.26124108
 H     21  20  19     1.084539484265   120.28918006   179.57173331
 H     22  21  20     1.075601798758   117.98173877   172.14188448
 H     19  18   9     1.078696812194   119.81162039   326.87465730
 H     20  19  18     1.081909156978   119.77242599   179.23175097
 H     23  22  21     1.131838483886   118.99924743   180.16376452
 C     18   9   1     1.492427559789    32.01783747   226.06893059
 H     29  18   9     1.094358335029   108.06992604   238.04975838
 H     29  18   9     1.100327996782   110.63935356   121.86313313
 O      1   2   3     1.980829602319    98.84493105   170.95920769
 C     32   1   2     1.320341382655   111.42549145   278.11495289
 O     33  32   1     1.202313767533   124.63680513   345.90564711
 C     33  32   1     1.518864061232   113.82959448   165.25503115
 H     35  33  32     1.080767112867   111.99240101    46.49674677
 H     35  33  32     1.085028937610   109.55764834   286.62605174
 H     35  33  32     1.093336439388   109.97751671   168.38773179

---------------------------
INTERNAL COORDINATES (A.U.)
---------------------------
 Pd     0   0   0     0.000000000000     0.00000000     0.00000000
 O      1   0   0     3.852856588725     0.00000000     0.00000000
 C      2   1   0     2.434943806741    90.72423644     0.00000000
 O      3   2   1     2.356020322626   117.65362688     5.07201982
 C      3   2   1     2.844970661555   120.00600519   187.57247271
 H      5   3   2     2.051772707679   110.14031489   209.87925695
 H      5   3   2     2.062562108164   108.51865396    91.70283277
 H      5   3   2     2.049607597297   111.76291336   332.80160364
 N      1   2   3     4.024642779738   169.43487422   330.68777003
 C      9   1   2     2.777486666365   113.94016936   140.66800602
 H     10   9   1     2.047222204335   109.80279633   304.62640942
 H     10   9   1     2.075275664247   109.86183677   185.30354215
 H     10   9   1     2.035325074123   111.53793088    65.32482618
 C      9   1   2     2.774609233079   105.55215718    22.75910553
 H     14   9   1     2.035968897244   111.74989892   304.57041275
 H     14   9   1     2.066355544067   109.93842488   182.51415414
 H     14   9   1     2.054425462593   109.02292146    63.87779837
 C      9   1   2     4.788519574742    89.22391407   287.14237567
 C     18   9   1     2.664844130618   118.88687669   326.03444197
 C     19  18   9     2.609673486790   121.52953903   149.32268098
 C     20  19  18     2.596652830786   120.17593001     1.86263638
 C     21  20  19     2.630670272730   119.63567470     2.11176019
 C     22  21  20     2.707379355389   125.46800564   355.26124108
 H     21  20  19     2.049482606686   120.28918006   179.57173331
 H     22  21  20     2.032592828806   117.98173877   172.14188448
 H     19  18   9     2.038441556581   119.81162039   326.87465730
 H     20  19  18     2.044512008469   119.77242599   179.23175097
 H     23  22  21     2.138864762377   118.99924743   180.16376452
 C     18   9   1     2.820279362718    32.01783747   226.06893059
 H     29  18   9     2.068037545578   108.06992604   238.04975838
 H     29  18   9     2.079318571404   110.63935356   121.86313313
 O      1   2   3     3.743225466347    98.84493105   170.95920769
 C     32   1   2     2.495083616501   111.42549145   278.11495289
 O     33  32   1     2.272043747681   124.63680513   345.90564711
 C     33  32   1     2.870237110385   113.82959448   165.25503115
 H     35  33  32     2.042353857868   111.99240101    46.49674677
 H     35  33  32     2.050407539462   109.55764834   286.62605174
 H     35  33  32     2.066106442680   109.97751671   168.38773179

---------------------
BASIS SET INFORMATION
---------------------
There are 5 groups of distinct atoms

 Group   1 Type Pd  : 7s6p5d1f contracted to 5s3p2d1f pattern {31111/411/41/1}
 Group   2 Type O   : 8s4p1d contracted to 4s2p1d pattern {5111/31/1}
 Group   3 Type C   : 8s4p1d contracted to 4s2p1d pattern {5111/31/1}
 Group   4 Type H   : 4s contracted to 2s pattern {31}
 Group   5 Type N   : 8s4p1d contracted to 4s2p1d pattern {5111/31/1}

Atom   0Pd   basis set group =>   1
Atom   1O    basis set group =>   2
Atom   2C    basis set group =>   3
Atom   3O    basis set group =>   2
Atom   4C    basis set group =>   3
Atom   5H    basis set group =>   4
Atom   6H    basis set group =>   4
Atom   7H    basis set group =>   4
Atom   8N    basis set group =>   5
Atom   9C    basis set group =>   3
Atom  10H    basis set group =>   4
Atom  11H    basis set group =>   4
Atom  12H    basis set group =>   4
Atom  13C    basis set group =>   3
Atom  14H    basis set group =>   4
Atom  15H    basis set group =>   4
Atom  16H    basis set group =>   4
Atom  17C    basis set group =>   3
Atom  18C    basis set group =>   3
Atom  19C    basis set group =>   3
Atom  20C    basis set group =>   3
Atom  21C    basis set group =>   3
Atom  22C    basis set group =>   3
Atom  23H    basis set group =>   4
Atom  24H    basis set group =>   4
Atom  25H    basis set group =>   4
Atom  26H    basis set group =>   4
Atom  27H    basis set group =>   4
Atom  28C    basis set group =>   3
Atom  29H    basis set group =>   4
Atom  30H    basis set group =>   4
Atom  31O    basis set group =>   2
Atom  32C    basis set group =>   3
Atom  33O    basis set group =>   2
Atom  34C    basis set group =>   3
Atom  35H    basis set group =>   4
Atom  36H    basis set group =>   4
Atom  37H    basis set group =>   4
---------------------------------
AUXILIARY/J BASIS SET INFORMATION
---------------------------------
There are 5 groups of distinct atoms

 Group   1 Type Pd  : 11s5p5d3f3g contracted to 8s5p5d2f3g pattern {41111111/11111/11111/21/111}
 Group   2 Type O   : 12s5p4d2f1g contracted to 6s4p3d1f1g pattern {711111/2111/211/2/1}
 Group   3 Type C   : 12s5p4d2f1g contracted to 6s4p3d1f1g pattern {711111/2111/211/2/1}
 Group   4 Type H   : 5s2p1d contracted to 3s1p1d pattern {311/2/1}
 Group   5 Type N   : 12s5p4d2f1g contracted to 6s4p3d1f1g pattern {711111/2111/211/2/1}

Atom   0Pd   basis set group =>   1
Atom   1O    basis set group =>   2
Atom   2C    basis set group =>   3
Atom   3O    basis set group =>   2
Atom   4C    basis set group =>   3
Atom   5H    basis set group =>   4
Atom   6H    basis set group =>   4
Atom   7H    basis set group =>   4
Atom   8N    basis set group =>   5
Atom   9C    basis set group =>   3
Atom  10H    basis set group =>   4
Atom  11H    basis set group =>   4
Atom  12H    basis set group =>   4
Atom  13C    basis set group =>   3
Atom  14H    basis set group =>   4
Atom  15H    basis set group =>   4
Atom  16H    basis set group =>   4
Atom  17C    basis set group =>   3
Atom  18C    basis set group =>   3
Atom  19C    basis set group =>   3
Atom  20C    basis set group =>   3
Atom  21C    basis set group =>   3
Atom  22C    basis set group =>   3
Atom  23H    basis set group =>   4
Atom  24H    basis set group =>   4
Atom  25H    basis set group =>   4
Atom  26H    basis set group =>   4
Atom  27H    basis set group =>   4
Atom  28C    basis set group =>   3
Atom  29H    basis set group =>   4
Atom  30H    basis set group =>   4
Atom  31O    basis set group =>   2
Atom  32C    basis set group =>   3
Atom  33O    basis set group =>   2
Atom  34C    basis set group =>   3
Atom  35H    basis set group =>   4
Atom  36H    basis set group =>   4
Atom  37H    basis set group =>   4
-------------------------
ECP PARAMETER INFORMATION
-------------------------

 Group 1, Type Pd ECP Def2-ECP (replacing 28 core electrons, lmax=3)

Atom   0Pd   ECP group =>   1

------------------------------------------------------------------------------
                           ORCA GTO INTEGRAL CALCULATION
                           -- RI-GTO INTEGRALS CHOSEN --
------------------------------------------------------------------------------
------------------------------------------------------------------------------
                   ___                                                        
                  /   \      - P O W E R E D   B Y -                         
                 /     \                                                     
                 |  |  |   _    _      __       _____    __    __             
                 |  |  |  | |  | |    /  \     |  _  \  |  |  /  |          
                  \  \/   | |  | |   /    \    | | | |  |  | /  /          
                 / \  \   | |__| |  /  /\  \   | |_| |  |  |/  /          
                |  |  |   |  __  | /  /__\  \  |    /   |      \           
                |  |  |   | |  | | |   __   |  |    \   |  |\   \          
                \     /   | |  | | |  |  |  |  | |\  \  |  | \   \       
                 \___/    |_|  |_| |__|  |__|  |_| \__\ |__|  \__/        
                                                                              
                      - O R C A' S   B I G   F R I E N D -                    
                                      &                                       
                       - I N T E G R A L  F E E D E R -                       
                                                                              
 v1 FN, 2020, v2 2021                                                         
------------------------------------------------------------------------------


Reading SHARK input file 1_1_orca.SHARKINP.tmp ... ok
----------------------
SHARK INTEGRAL PACKAGE
----------------------

Number of atoms                             ...     38
Number of basis functions                   ...    339
Number of shells                            ...    175
Maximum angular momentum                    ...      3
Integral batch strategy                     ... SHARK/LIBINT Hybrid
RI-J (if used) integral strategy            ... SPLIT-RIJ (Revised 2003 algorithm where possible)
Printlevel                                  ...      1
Contraction scheme used                     ... SEGMENTED contraction
Coulomb Range Separation                    ... NOT USED
Exchange Range Separation                   ... NOT USED
Finite Nucleus Model                        ... NOT USED
Auxiliary Coulomb fitting basis             ... AVAILABLE
   # of basis functions in Aux-J            ...   1180
   # of shells in Aux-J                     ...    388
   Maximum angular momentum in Aux-J        ...      4
Auxiliary J/K fitting basis                 ... NOT available
Auxiliary Correlation fitting basis         ... NOT available
Auxiliary 'external' fitting basis          ... NOT available
Integral threshold                          ...     2.500000e-11
Primitive cut-off                           ...     2.500000e-12
Primitive pair pre-selection threshold      ...     2.500000e-12

Calculating pre-screening integrals         ... done (  0.1 sec) Dimension = 175
Organizing shell pair data                  ... done (  0.1 sec)
Shell pair information
Total number of shell pairs                 ...     15400
Shell pairs after pre-screening             ...     10950
Total number of primitive shell pairs       ...     54591
Primitive shell pairs kept                  ...     24472
          la=0 lb=0:   4196 shell pairs
          la=1 lb=0:   3613 shell pairs
          la=1 lb=1:    720 shell pairs
          la=2 lb=0:   1486 shell pairs
          la=2 lb=1:    649 shell pairs
          la=2 lb=2:    145 shell pairs
          la=3 lb=0:     86 shell pairs
          la=3 lb=1:     37 shell pairs
          la=3 lb=2:     17 shell pairs
          la=3 lb=3:      1 shell pairs

Calculating one electron integrals          ... done (  0.1 sec)
Calculating ECP integrals                   ... done (  0.4 sec)
Calculating RI/J V-Matrix + Cholesky decomp.... done (  0.1 sec)
Calculating Nuclear repulsion               ... done (  0.0 sec) ENN=   1736.953664264240 Eh

SHARK setup successfully completed in   1.0 seconds

Maximum memory used throughout the entire GTOINT-calculation: 75.7 MB
-------------------------------------------------------------------------------
                                 ORCA SCF
-------------------------------------------------------------------------------

------------
SCF SETTINGS
------------
Hamiltonian:
 Density Functional     Method          .... DFT(GTOs)
 Exchange Functional    Exchange        .... PBE
   PBE kappa parameter   XKappa         ....  1.024500
   PBE mue parameter    XMuePBE         ....  0.123457
 Correlation Functional Correlation     .... PBE
   PBE beta parameter  CBetaPBE         ....  0.030000
 LDA part of GGA corr.  LDAOpt          .... PW91-LDA
 Gradients option       PostSCFGGA      .... off
 Hybrid DFT is turned on
   Fraction HF Exchange ScalHFX         ....  0.420000
   Scaling of DF-GGA-X  ScalDFX         ....  0.580000
   Scaling of DF-GGA-C  ScalDFC         ....  1.000000
   Scaling of DF-LDA-C  ScalLDAC        ....  1.000000
   Perturbative correction              ....  0.000000
   Density functional embedding theory  .... OFF
 RI-approximation to the Coulomb term is turned on
   Number of AuxJ basis functions       .... 1180
   RIJ-ON(X) (HFX calculated with O(N)) .... on
   Number of AuxJ basis functions       .... 1180
   RIJ-COSX (HFX calculated with COS-X)).... on


General Settings:
 Integral files         IntName         .... 1_1_orca
 Hartree-Fock type      HFTyp           .... RHF
 Total Charge           Charge          ....    0
 Multiplicity           Mult            ....    1
 Number of Electrons    NEL             ....  154
 Basis Dimension        Dim             ....  339
 Nuclear Repulsion      ENuc            ....   1736.9536642642 Eh

Convergence Acceleration:
 DIIS                   CNVDIIS         .... on
   Start iteration      DIISMaxIt       ....    12
   Startup error        DIISStart       ....  0.200000
   # of expansion vecs  DIISMaxEq       ....     5
   Bias factor          DIISBfac        ....   1.050
   Max. coefficient     DIISMaxC        ....  10.000
 Trust-Rad. Augm. Hess. CNVTRAH         .... auto
   Auto Start mean grad. ratio tolernc. ....  1.125000
   Auto Start start iteration           ....    20
   Auto Start num. interpolation iter.  ....    10
   Max. Number of Micro iterations      ....    16
   Max. Number of Macro iterations      .... Maxiter - #DIIS iter
   Number of Davidson start vectors     ....     2
   Converg. threshold I  (grad. norm)   ....   1.000e-05
   Converg. threshold II (energy diff.) ....   1.000e-08
   Grad. Scal. Fac. for Micro threshold ....   0.100
   Minimum threshold for Micro iter.    ....   0.010
   NR start threshold (gradient norm)   ....   0.001
   Initial trust radius                 ....   0.400
   Minimum AH scaling param. (alpha)    ....   1.000
   Maximum AH scaling param. (alpha)    .... 1000.000
   Orbital update algorithm             .... Taylor
   White noise on init. David. guess    .... on
   Maximum white noise                  ....   0.010
   Quad. conv. algorithm                .... NR
   COSX micro iterations for RIJONX calc.... off
 SOSCF                  CNVSOSCF        .... off
 Level Shifting         CNVShift        .... on
   Level shift para.    LevelShift      ....    0.2500
   Turn off err/grad.   ShiftErr        ....    0.0010
 Zerner damping         CNVZerner       .... off
 Static damping         CNVDamp         .... on
   Fraction old density DampFac         ....    0.7000
   Max. Damping (<1)    DampMax         ....    0.9800
   Min. Damping (>=0)   DampMin         ....    0.0000
   Turn off err/grad.   DampErr         ....    0.1000
 Fernandez-Rico         CNVRico         .... off

SCF Procedure:
 Maximum # iterations   MaxIter         ....   250
 SCF integral mode      SCFMode         .... Direct
   Integral package                     .... SHARK and LIBINT hybrid scheme
 Reset frequency        DirectResetFreq ....    20
 Integral Threshold     Thresh          ....  2.500e-11 Eh
 Primitive CutOff       TCut            ....  2.500e-12 Eh

Convergence Tolerance:
 Convergence Check Mode ConvCheckMode   .... Total+1el-Energy
 Convergence forced     ConvForced      .... 0
 Energy Change          TolE            ....  1.000e-08 Eh
 1-El. energy change                    ....  1.000e-05 Eh
 DIIS Error             TolErr          ....  5.000e-07


Diagonalization of the overlap matrix:
Smallest eigenvalue                        ... 5.287e-04
Time for diagonalization                   ...    0.016 sec
Threshold for overlap eigenvalues          ... 1.000e-08
Number of eigenvalues below threshold      ... 0
Time for construction of square roots      ...    0.006 sec
Total time needed                          ...    0.023 sec

--------------------------------
INITIAL GUESS: MINIMAL BASIS EHT
--------------------------------
The minimal basis has 122 functions
EHT matrix was diagonalized
Basis set overlap was calculated now projecting the orbitals
Using GuessMode=FMatrix for the initial guess
C*T matrix was formed
Effective Fockian was calculated
Effective Fockian was diagonalized
Initial density was built
                      ------------------
                      INITIAL GUESS DONE
                      ------------------
-------------------
DFT GRID GENERATION
-------------------

General Integration Accuracy     IntAcc      ... 4.159
Radial Grid Type                 RadialGrid  ... OptM3 with GC (2021)
Angular Grid (max. ang.)         AngularGrid ... 3 (Lebedev-194)
Angular grid pruning method      GridPruning ... 4 (adaptive)
Weight generation scheme         WeightScheme... Becke
Basis function cutoff            BFCut       ... 1.0000e-11
Integration weight cutoff        WCut        ... 1.0000e-14
Angular grids for H and He will be reduced by one unit
Partially contracted basis set               ... off
Rotationally invariant grid construction     ... off

Total number of grid points                  ...    90009
Total number of batches                      ...     1427
Average number of points per batch           ...       63
Average number of grid points per atom       ...     2369
Time for grid setup =    1.562 sec

--------------------
COSX GRID GENERATION
--------------------

GRIDX 1
-------
General Integration Accuracy     IntAcc      ... 3.816
Radial Grid Type                 RadialGrid  ... OptM3 with GC (2021)
Angular Grid (max. ang.)         AngularGrid ... 1 (Lebedev-50)
Angular grid pruning method      GridPruning ... 4 (adaptive)
Weight generation scheme         WeightScheme... Becke
Basis function cutoff            BFCut       ... 1.0000e-11
Integration weight cutoff        WCut        ... 1.0000e-14
Angular grids for H and He will be reduced by one unit
Partially contracted basis set               ... on
Rotationally invariant grid construction     ... off

Total number of grid points                  ...    22461
Total number of batches                      ...      371
Average number of points per batch           ...       60
Average number of grid points per atom       ...      591
UseSFitting                                  ... on

GRIDX 2
-------
General Integration Accuracy     IntAcc      ... 4.020
Radial Grid Type                 RadialGrid  ... OptM3 with GC (2021)
Angular Grid (max. ang.)         AngularGrid ... 2 (Lebedev-110)
Angular grid pruning method      GridPruning ... 4 (adaptive)
Weight generation scheme         WeightScheme... Becke
Basis function cutoff            BFCut       ... 1.0000e-11
Integration weight cutoff        WCut        ... 1.0000e-14
Angular grids for H and He will be reduced by one unit
Partially contracted basis set               ... on
Rotationally invariant grid construction     ... off

Total number of grid points                  ...    48252
Total number of batches                      ...      772
Average number of points per batch           ...       62
Average number of grid points per atom       ...     1270
UseSFitting                                  ... on

GRIDX 3
-------
General Integration Accuracy     IntAcc      ... 4.338
Radial Grid Type                 RadialGrid  ... OptM3 with GC (2021)
Angular Grid (max. ang.)         AngularGrid ... 3 (Lebedev-194)
Angular grid pruning method      GridPruning ... 4 (adaptive)
Weight generation scheme         WeightScheme... Becke
Basis function cutoff            BFCut       ... 1.0000e-11
Integration weight cutoff        WCut        ... 1.0000e-14
Angular grids for H and He will be reduced by one unit
Partially contracted basis set               ... on
Rotationally invariant grid construction     ... off

Total number of grid points                  ...   104483
Total number of batches                      ...     1651
Average number of points per batch           ...       63
Average number of grid points per atom       ...     2750
UseSFitting                                  ... on

Time for X-Grid setup             =    3.997 sec

--------------
SCF ITERATIONS
--------------
ITER       Energy         Delta-E        Max-DP      RMS-DP      [F,P]     Damp
               ***  Starting incremental Fock matrix formation  ***
  0   -972.2138367289   0.000000000000 3.93124531  0.02513441  5.1374785 0.7000
  1   -962.9311354326   9.282701296242 4.24501583  0.04583601  3.9467910 0.7000
  2   -957.6646329420   5.266502490618 2.56191673  0.02300644  2.6158845 0.7000
  3   -962.9213169303  -5.256683988284 4.77340184  0.03653629  1.9287152 0.7000
  4   -961.8830832283   1.038233702009 2.40586240  0.02529461  1.2333779 0.7000
  5   -963.5767646046  -1.693681376268 3.24578456  0.03667558  0.9653350 0.7000
  6   -955.8784461900   7.698318414512 2.56214061  0.02692299  0.5638339 0.7000
  7   -962.2874760027  -6.409029812702 3.57065673  0.02947306  0.4957993 0.7000
  8   -960.9796658070   1.307810195694 2.86678194  0.02676818  0.2509301 0.7000
  9   -962.9815110325  -2.001845225425 3.39357363  0.03906449  0.2734101 0.7000
 10   -953.8787322484   9.102778784093 2.76794948  0.03099960  0.3011800 0.7000
 11   -960.3377320105  -6.458999762112 2.44768107  0.02794903  0.2339096 0.7000
                               ***Turning on DIIS***
 12   -960.5586171656  -0.220885155097 2.44804416  0.02903710  0.2317240 0.7000
 13   -960.8152143437  -0.256597178154 1.57048712  0.01984003  0.2436745 0.7000
 14   -968.6462932724  -7.831078928622 1.11747268  0.01405600  0.2756669 0.7000
 15   -974.1429549195  -5.496661647144 0.79292056  0.00990560  0.2861324 0.7000
 16   -978.0487533792  -3.905798459715 0.55789729  0.00696646  0.2770550 0.7000
 17   -980.8402841019  -2.791530722711 3.28522582  0.02230049  0.2609840 0.7000
 18   -980.5156204600   0.324663641975 1.32704348  0.00930298  0.1938809 0.7000
 19   -982.5957711506  -2.080150690633 0.93140915  0.00661059  0.1750972 0.7000
               *** Restarting incremental Fock matrix formation ***
                                   *** Resetting DIIS ***

 WARNING: the maximum gradient error descreased on average only by a factor   1.1
          during the last 20 iterations

                      *** Initiating the TRAH-SCF procedure ***


TRAH GRIDX
----------

General Integration Accuracy     IntAcc      ... 3.067
Radial Grid Type                 RadialGrid  ... OptM3 with GC (2021)
Angular Grid (max. ang.)         AngularGrid ... 1 (Lebedev-50)
Angular grid pruning method      GridPruning ... 4 (adaptive)
Weight generation scheme         WeightScheme... Becke
Basis function cutoff            BFCut       ... 1.0000e-11
Integration weight cutoff        WCut        ... 1.0000e-14
Angular grids for H and He will be reduced by one unit
Partially contracted basis set               ... on
Rotationally invariant grid construction     ... off

Total number of grid points                  ...    11999
Total number of batches                      ...      209
Average number of points per batch           ...       57
Average number of grid points per atom       ...      316


TRAH GRID
---------

General Integration Accuracy     IntAcc      ... 3.467
Radial Grid Type                 RadialGrid  ... OptM3 with GC (2021)
Angular Grid (max. ang.)         AngularGrid ... 1 (Lebedev-50)
Angular grid pruning method      GridPruning ... 4 (adaptive)
Weight generation scheme         WeightScheme... Becke
Basis function cutoff            BFCut       ... 1.0000e-11
Integration weight cutoff        WCut        ... 1.0000e-14
Angular grids for H and He will be reduced by one unit
Partially contracted basis set               ... off
Rotationally invariant grid construction     ... off

Total number of grid points                  ...    28316
Total number of batches                      ...      460
Average number of points per batch           ...       61
Average number of grid points per atom       ...      745

 --------------------------------------------------------------------------------------------
   Iter.        energy            ||Error||_2        Shift      TRadius  Mac/Mic        Rej.
 --------------------------------------------------------------------------------------------
    0       -988.397234355269     1.624142e+00                     0.400 (TRAH MAcro)   No
    0     dE    -1.061375e-01     1.992429e+00    -2.0882e-01      0.129 (TRAH MIcro)
    0     dE    -1.866594e-01     3.911368e-01    -3.4283e-01      0.298 (TRAH MIcro)
    0     dE    -1.993230e-01     1.942806e-01    -3.5972e-01      0.329 (TRAH MIcro)
    0     dE    -2.020426e-01     5.569268e-02    -3.6164e-01      0.343 (TRAH MIcro)
    0     dE    -2.026128e-01     1.847629e-02    -3.6188e-01      0.346 (TRAH MIcro)
    0     dE    -2.027309e-01     1.162754e-02    -3.6195e-01      0.347 (TRAH MIcro)
    0     dE    -2.027561e-01     5.759984e-03    -3.6197e-01      0.347 (TRAH MIcro)
    1       -988.592284183050     1.989572e-01                     0.480 (TRAH MAcro)   No
    1     dE    -2.829603e-03     2.618301e-01    -5.6546e-03      0.028 (TRAH MIcro)
    1     dE    -6.142735e-03     9.125925e-02    -1.2209e-02      0.079 (TRAH MIcro)
    1     dE    -6.597789e-03     2.544139e-02    -1.3095e-02      0.088 (TRAH MIcro)
    1     dE    -6.647793e-03     1.429606e-02    -1.3190e-02      0.089 (TRAH MIcro)
    1     dE    -6.660065e-03     5.254978e-03    -1.3213e-02      0.090 (TRAH MIcro)
    2       -988.599166156261     1.623999e-02                     0.576 (TRAH MAcro)   No
    2     dE    -9.649777e-06     3.321934e-02    -1.9300e-05      0.001 (TRAH MIcro)
    2     dE    -3.413370e-05     1.319543e-02    -6.8265e-05      0.006 (TRAH MIcro)
    2     dE    -3.844711e-05     3.104004e-03    -7.6890e-05      0.007 (TRAH MIcro)
    2     dE    -3.908919e-05     1.520067e-03    -7.8174e-05      0.008 (TRAH MIcro)
    3       -988.599205537776     1.535368e-03                     0.691 (TRAH MAcro)   No
    3     dE    -1.622544e-08     1.667800e-03    -3.2683e-08      0.000 (TRAH MIcro)
    3     dE    -1.742606e-07     9.058365e-04    -3.4852e-07      0.000 (TRAH MIcro)
    3     dE    -2.881987e-07     5.393958e-04    -5.7640e-07      0.001 (TRAH MIcro)
    3     dE    -3.111158e-07     2.517464e-04    -6.2223e-07      0.001 (TRAH MIcro)
    3     dE    -3.172461e-07     1.114517e-04    -6.3449e-07      0.001 (TRAH MIcro)
    4       -988.599205863610     1.113042e-04                           (NR   MAcro)
    4     dE    -7.032927e-10     3.630554e-05                           (NR   MIcro)
    4     dE    -8.427075e-10     1.973931e-05                           (NR   MIcro)
    4     dE    -8.855624e-10     8.729995e-06                           (NR   MIcro)
    4     dE    -8.919026e-10     4.497829e-06                           (NR   MIcro)
    4     dE    -8.951625e-10     2.402014e-06                           (NR   MIcro)
    4     dE    -8.956348e-10     1.393015e-06                           (NR   MIcro)
    4     dE    -8.957877e-10     5.987993e-07                           (NR   MIcro)
    5       -988.599205864309     6.122601e-07                           (NR   MAcro)

               *****************************************************
               *                     SUCCESS                       *
               *           SCF CONVERGED AFTER  54 CYCLES          *
               *****************************************************

Old exchange energy                            =    -52.683134478 Eh
New exchange energy                            =    -52.683169009 Eh
Exchange energy change after final integration =     -0.000034531 Eh
Total energy after final integration           =   -988.599240396 Eh
Final COS-X integration done in                =    45.589 sec

----------------
TOTAL SCF ENERGY
----------------

Total Energy       :         -988.59924040 Eh          -26901.15296 eV

Components:
Nuclear Repulsion  :         1736.95366426 Eh           47264.91211 eV
Electronic Energy  :        -2725.55290466 Eh          -74166.06507 eV
One Electron Energy:        -4855.23314685 Eh         -132117.61066 eV
Two Electron Energy:         2129.68024219 Eh           57951.54559 eV
Max COSX asymmetry :            0.00004187 Eh               0.00114 eV

Virial components:
Potential Energy   :        -1890.42309550 Eh          -51441.02764 eV
Kinetic Energy     :          901.82385510 Eh           24539.87468 eV
Virial Ratio       :            2.09622210


DFT components:
N(Alpha)           :       76.999874053276 electrons
N(Beta)            :       76.999874053276 electrons
N(Total)           :      153.999748106552 electrons
E(X)               :      -70.246343531262 Eh       
E(C)               :       -6.915760342997 Eh       
E(XC)              :      -77.162103874259 Eh       
DFET-embed. en.    :        0.000000000000 Eh       

---------------
SCF CONVERGENCE
---------------

  Last Energy change         ...   -6.9883e-10  Tolerance :   1.0000e-08
  Last Orbital Gradient      ...    6.1226e-07  Tolerance :   1.0000e-05
  Last Orbital Rotation      ...    2.9618e-05

             **** THE GBW FILE WAS UPDATED (1_1_orca.gbw) ****
             **** DENSITY 1_1_orca.scfp WAS UPDATED ****
             **** ENERGY FILE WAS UPDATED (1_1_orca.en.tmp) ****
             **** THE GBW FILE WAS UPDATED (1_1_orca.gbw) ****
             **** DENSITY 1_1_orca.scfp WAS UPDATED ****
----------------
ORBITAL ENERGIES
----------------

  NO   OCC          E(Eh)            E(eV) 
   0   2.0000     -19.502261      -530.6835 
   1   2.0000     -19.497406      -530.5514 
   2   2.0000     -19.474368      -529.9245 
   3   2.0000     -19.436703      -528.8996 
   4   2.0000     -14.718962      -400.5233 
   5   2.0000     -10.574175      -287.7379 
   6   2.0000     -10.533002      -286.6176 
   7   2.0000     -10.494307      -285.5646 
   8   2.0000     -10.483011      -285.2572 
   9   2.0000     -10.482712      -285.2491 
  10   2.0000     -10.479121      -285.1514 
  11   2.0000     -10.476202      -285.0720 
  12   2.0000     -10.461465      -284.6709 
  13   2.0000     -10.457038      -284.5505 
  14   2.0000     -10.456623      -284.5392 
  15   2.0000     -10.454244      -284.4745 
  16   2.0000     -10.443067      -284.1703 
  17   2.0000     -10.415075      -283.4086 
  18   2.0000      -3.656655       -99.5027 
  19   2.0000      -2.305043       -62.7234 
  20   2.0000      -2.301369       -62.6234 
  21   2.0000      -2.265180       -61.6387 
  22   2.0000      -1.203435       -32.7471 
  23   2.0000      -1.151636       -31.3376 
  24   2.0000      -1.084713       -29.5165 
  25   2.0000      -1.074642       -29.2425 
  26   2.0000      -1.053544       -28.6684 
  27   2.0000      -0.959467       -26.1084 
  28   2.0000      -0.876536       -23.8518 
  29   2.0000      -0.843303       -22.9475 
  30   2.0000      -0.833107       -22.6700 
  31   2.0000      -0.820013       -22.3137 
  32   2.0000      -0.798081       -21.7169 
  33   2.0000      -0.794086       -21.6082 
  34   2.0000      -0.716331       -19.4924 
  35   2.0000      -0.690749       -18.7962 
  36   2.0000      -0.664559       -18.0836 
  37   2.0000      -0.615779       -16.7562 
  38   2.0000      -0.595497       -16.2043 
  39   2.0000      -0.588448       -16.0125 
  40   2.0000      -0.575926       -15.6718 
  41   2.0000      -0.567191       -15.4341 
  42   2.0000      -0.557785       -15.1781 
  43   2.0000      -0.547841       -14.9075 
  44   2.0000      -0.546794       -14.8790 
  45   2.0000      -0.528558       -14.3828 
  46   2.0000      -0.526725       -14.3329 
  47   2.0000      -0.518490       -14.1088 
  48   2.0000      -0.511099       -13.9077 
  49   2.0000      -0.496160       -13.5012 
  50   2.0000      -0.491321       -13.3695 
  51   2.0000      -0.489031       -13.3072 
  52   2.0000      -0.483215       -13.1490 
  53   2.0000      -0.469155       -12.7664 
  54   2.0000      -0.461189       -12.5496 
  55   2.0000      -0.459181       -12.4949 
  56   2.0000      -0.449862       -12.2414 
  57   2.0000      -0.446235       -12.1427 
  58   2.0000      -0.443333       -12.0637 
  59   2.0000      -0.432945       -11.7810 
  60   2.0000      -0.423669       -11.5286 
  61   2.0000      -0.418798       -11.3961 
  62   2.0000      -0.411866       -11.2074 
  63   2.0000      -0.407304       -11.0833 
  64   2.0000      -0.394022       -10.7219 
  65   2.0000      -0.390852       -10.6356 
  66   2.0000      -0.372618       -10.1395 
  67   2.0000      -0.365239        -9.9387 
  68   2.0000      -0.350242        -9.5306 
  69   2.0000      -0.342556        -9.3214 
  70   2.0000      -0.318683        -8.6718 
  71   2.0000      -0.313590        -8.5332 
  72   2.0000      -0.309544        -8.4231 
  73   2.0000      -0.300546        -8.1783 
  74   2.0000      -0.298286        -8.1168 
  75   2.0000      -0.293665        -7.9910 
  76   2.0000      -0.272520        -7.4156 
  77   0.0000      -0.039551        -1.0762 
  78   0.0000      -0.010506        -0.2859 
  79   0.0000       0.006889         0.1875 
  80   0.0000       0.044220         1.2033 
  81   0.0000       0.070006         1.9050 
  82   0.0000       0.082995         2.2584 
  83   0.0000       0.092416         2.5148 
  84   0.0000       0.096587         2.6283 
  85   0.0000       0.111794         3.0421 
  86   0.0000       0.130338         3.5467 
  87   0.0000       0.134869         3.6700 
  88   0.0000       0.161134         4.3847 
  89   0.0000       0.166119         4.5203 
  90   0.0000       0.174098         4.7374 
  91   0.0000       0.177912         4.8412 
  92   0.0000       0.189716         5.1624 
  93   0.0000       0.192304         5.2329 
  94   0.0000       0.197176         5.3654 
  95   0.0000       0.204484         5.5643 
  96   0.0000       0.207091         5.6352 
  97   0.0000       0.211608         5.7581 
  98   0.0000       0.215124         5.8538 
  99   0.0000       0.217615         5.9216 
 100   0.0000       0.221917         6.0387 
 101   0.0000       0.228064         6.2059 
 102   0.0000       0.230961         6.2848 
 103   0.0000       0.237720         6.4687 
 104   0.0000       0.245103         6.6696 
 105   0.0000       0.245869         6.6904 
 106   0.0000       0.251540         6.8448 
 107   0.0000       0.254333         6.9208 
 108   0.0000       0.263720         7.1762 
 109   0.0000       0.272396         7.4123 
 110   0.0000       0.274846         7.4789 
 111   0.0000       0.286643         7.8000 
 112   0.0000       0.305997         8.3266 
 113   0.0000       0.334220         9.0946 
 114   0.0000       0.341205         9.2847 
 115   0.0000       0.345153         9.3921 
 116   0.0000       0.353015         9.6060 
 117   0.0000       0.365563         9.9475 
 118   0.0000       0.397121        10.8062 
 119   0.0000       0.410896        11.1810 
 120   0.0000       0.420559        11.4440 
 121   0.0000       0.433149        11.7866 
 122   0.0000       0.452541        12.3143 
 123   0.0000       0.467634        12.7250 
 124   0.0000       0.473893        12.8953 
 125   0.0000       0.490143        13.3375 
 126   0.0000       0.516948        14.0669 
 127   0.0000       0.520057        14.1515 
 128   0.0000       0.530724        14.4417 
 129   0.0000       0.532854        14.4997 
 130   0.0000       0.543175        14.7805 
 131   0.0000       0.549809        14.9611 
 132   0.0000       0.551459        15.0060 
 133   0.0000       0.557344        15.1661 
 134   0.0000       0.561116        15.2687 
 135   0.0000       0.572284        15.5726 
 136   0.0000       0.578864        15.7517 
 137   0.0000       0.589091        16.0300 
 138   0.0000       0.591456        16.0943 
 139   0.0000       0.596449        16.2302 
 140   0.0000       0.599374        16.3098 
 141   0.0000       0.602239        16.3878 
 142   0.0000       0.614485        16.7210 
 143   0.0000       0.618586        16.8326 
 144   0.0000       0.629107        17.1189 
 145   0.0000       0.633302        17.2330 
 146   0.0000       0.643062        17.4986 
 147   0.0000       0.649970        17.6866 
 148   0.0000       0.655601        17.8398 
 149   0.0000       0.668064        18.1789 
 150   0.0000       0.673859        18.3366 
 151   0.0000       0.683861        18.6088 
 152   0.0000       0.692906        18.8549 
 153   0.0000       0.701944        19.1009 
 154   0.0000       0.732955        19.9447 
 155   0.0000       0.740744        20.1567 
 156   0.0000       0.756656        20.5897 
 157   0.0000       0.762822        20.7574 
 158   0.0000       0.776761        21.1367 
 159   0.0000       0.789404        21.4808 
 160   0.0000       0.811321        22.0772 
 161   0.0000       0.843713        22.9586 
 162   0.0000       0.854631        23.2557 
 163   0.0000       0.863694        23.5023 
 164   0.0000       0.873990        23.7825 
 165   0.0000       0.878132        23.8952 
 166   0.0000       0.905514        24.6403 
 167   0.0000       0.913762        24.8647 
 168   0.0000       0.925895        25.1949 
 169   0.0000       0.930370        25.3166 
 170   0.0000       0.952679        25.9237 
 171   0.0000       0.956878        26.0380 
 172   0.0000       0.961412        26.1614 
 173   0.0000       0.984094        26.7786 
 174   0.0000       0.988136        26.8885 
 175   0.0000       0.997591        27.1458 
 176   0.0000       1.001855        27.2618 
 177   0.0000       1.011496        27.5242 
 178   0.0000       1.013482        27.5783 
 179   0.0000       1.025854        27.9149 
 180   0.0000       1.030853        28.0509 
 181   0.0000       1.032833        28.1048 
 182   0.0000       1.039932        28.2980 
 183   0.0000       1.040660        28.3178 
 184   0.0000       1.052403        28.6374 
 185   0.0000       1.057789        28.7839 
 186   0.0000       1.067393        29.0452 
 187   0.0000       1.069625        29.1060 
 188   0.0000       1.073440        29.2098 
 189   0.0000       1.088561        29.6212 
 190   0.0000       1.092421        29.7263 
 191   0.0000       1.099475        29.9182 
 192   0.0000       1.111929        30.2571 
 193   0.0000       1.124564        30.6010 
 194   0.0000       1.134106        30.8606 
 195   0.0000       1.147258        31.2185 
 196   0.0000       1.162541        31.6343 
 197   0.0000       1.167614        31.7724 
 198   0.0000       1.175000        31.9734 
 199   0.0000       1.191842        32.4317 
 200   0.0000       1.213846        33.0304 
 201   0.0000       1.220952        33.2238 
 202   0.0000       1.239958        33.7410 
 203   0.0000       1.265312        34.4309 
 204   0.0000       1.272438        34.6248 
 205   0.0000       1.292256        35.1641 
 206   0.0000       1.298999        35.3476 
 207   0.0000       1.314796        35.7774 
 208   0.0000       1.320525        35.9333 
 209   0.0000       1.324413        36.0391 
 210   0.0000       1.353136        36.8207 
 211   0.0000       1.397565        38.0297 
 212   0.0000       1.416772        38.5523 
 213   0.0000       1.450889        39.4807 
 214   0.0000       1.465705        39.8839 
 215   0.0000       1.469005        39.9737 
 216   0.0000       1.482779        40.3485 
 217   0.0000       1.492007        40.5996 
 218   0.0000       1.498819        40.7849 
 219   0.0000       1.509839        41.0848 
 220   0.0000       1.520295        41.3693 
 221   0.0000       1.528800        41.6008 
 222   0.0000       1.543815        42.0093 
 223   0.0000       1.560344        42.4591 
 224   0.0000       1.564946        42.5843 
 225   0.0000       1.582379        43.0587 
 226   0.0000       1.599061        43.5127 
 227   0.0000       1.601901        43.5899 
 228   0.0000       1.654018        45.0081 
 229   0.0000       1.740471        47.3606 
 230   0.0000       1.758058        47.8392 
 231   0.0000       1.768135        48.1134 
 232   0.0000       1.779470        48.4218 
 233   0.0000       1.784748        48.5655 
 234   0.0000       1.834940        49.9313 
 235   0.0000       1.846001        50.2322 
 236   0.0000       1.860536        50.6277 
 237   0.0000       1.896415        51.6041 
 238   0.0000       1.899226        51.6806 
 239   0.0000       1.908790        51.9408 
 240   0.0000       1.914430        52.0943 
 241   0.0000       1.917052        52.1656 
 242   0.0000       1.950351        53.0718 
 243   0.0000       1.969420        53.5906 
 244   0.0000       1.971582        53.6495 
 245   0.0000       1.993958        54.2584 
 246   0.0000       2.005505        54.5726 
 247   0.0000       2.009740        54.6878 
 248   0.0000       2.017637        54.9027 
 249   0.0000       2.028434        55.1965 
 250   0.0000       2.038128        55.4603 
 251   0.0000       2.042811        55.5877 
 252   0.0000       2.047448        55.7139 
 253   0.0000       2.052931        55.8631 
 254   0.0000       2.063262        56.1442 
 255   0.0000       2.072169        56.3866 
 256   0.0000       2.077286        56.5258 
 257   0.0000       2.085204        56.7413 
 258   0.0000       2.103742        57.2457 
 259   0.0000       2.114171        57.5295 
 260   0.0000       2.127891        57.9029 
 261   0.0000       2.151243        58.5383 
 262   0.0000       2.169414        59.0328 
 263   0.0000       2.171479        59.0890 
 264   0.0000       2.178793        59.2880 
 265   0.0000       2.186052        59.4855 
 266   0.0000       2.197346        59.7928 
 267   0.0000       2.201720        59.9118 
 268   0.0000       2.234814        60.8124 
 269   0.0000       2.247395        61.1547 
 270   0.0000       2.253427        61.3189 
 271   0.0000       2.279360        62.0245 
 272   0.0000       2.293329        62.4047 
 273   0.0000       2.304646        62.7126 
 274   0.0000       2.314321        62.9759 
 275   0.0000       2.317805        63.0707 
 276   0.0000       2.330299        63.4107 
 277   0.0000       2.335149        63.5426 
 278   0.0000       2.347221        63.8711 
 279   0.0000       2.358935        64.1899 
 280   0.0000       2.384562        64.8872 
 281   0.0000       2.401750        65.3549 
 282   0.0000       2.426485        66.0280 
 283   0.0000       2.449878        66.6646 
 284   0.0000       2.454664        66.7948 
 285   0.0000       2.461610        66.9838 
 286   0.0000       2.490033        67.7572 
 287   0.0000       2.493189        67.8431 
 288   0.0000       2.499987        68.0281 
 289   0.0000       2.512614        68.3717 
 290   0.0000       2.553655        69.4885 
 291   0.0000       2.568273        69.8863 
 292   0.0000       2.588340        70.4323 
 293   0.0000       2.599895        70.7467 
 294   0.0000       2.607675        70.9584 
 295   0.0000       2.633462        71.6601 
 296   0.0000       2.658953        72.3538 
 297   0.0000       2.693595        73.2964 
 298   0.0000       2.700188        73.4759 
 299   0.0000       2.708099        73.6911 
 300   0.0000       2.737258        74.4846 
 301   0.0000       2.762000        75.1578 
 302   0.0000       2.776846        75.5618 
 303   0.0000       2.792477        75.9872 
 304   0.0000       2.810073        76.4660 
 305   0.0000       2.827024        76.9272 
 306   0.0000       2.838450        77.2382 
 307   0.0000       2.845285        77.4242 
 308   0.0000       2.847658        77.4887 
 309   0.0000       2.885340        78.5141 
 310   0.0000       2.914401        79.3049 
 311   0.0000       2.937602        79.9362 
 312   0.0000       3.013040        81.9890 
 313   0.0000       3.037185        82.6460 
 314   0.0000       3.054574        83.1192 
 315   0.0000       3.074768        83.6687 
 316   0.0000       3.093431        84.1765 
 317   0.0000       3.218211        87.5720 
 318   0.0000       3.243774        88.2676 
 319   0.0000       3.397156        92.4413 
 320   0.0000      13.274097       361.2065 
 321   0.0000      13.610358       370.3567 
 322   0.0000      13.640805       371.1852 
 323   0.0000      13.679841       372.2474 
 324   0.0000      13.709887       373.0650 
 325   0.0000      13.743743       373.9863 
 326   0.0000      13.875161       377.5623 
 327   0.0000      13.961451       379.9104 
 328   0.0000      14.060814       382.6142 
 329   0.0000      14.089718       383.4007 
 330   0.0000      14.116210       384.1216 
 331   0.0000      14.125083       384.3631 
 332   0.0000      14.485904       394.1815 
 333   0.0000      19.381428       527.3955 
 334   0.0000      25.705211       699.4743 
 335   0.0000      25.745831       700.5797 
 336   0.0000      25.806726       702.2367 
 337   0.0000      25.835700       703.0251 
 338   0.0000      51.631139      1404.9547 

                    ********************************
                    * MULLIKEN POPULATION ANALYSIS *
                    ********************************

-----------------------
MULLIKEN ATOMIC CHARGES
-----------------------
   0 Pd:    0.524270
   1 O :   -0.498296
   2 C :    0.670669
   3 O :   -0.493919
   4 C :   -0.766855
   5 H :    0.251113
   6 H :    0.262018
   7 H :    0.260523
   8 N :   -0.485717
   9 C :   -0.517960
  10 H :    0.280700
  11 H :    0.216292
  12 H :    0.274585
  13 C :   -0.534417
  14 H :    0.295299
  15 H :    0.217023
  16 H :    0.276648
  17 C :    0.040657
  18 C :   -0.234073
  19 C :   -0.214004
  20 C :   -0.201731
  21 C :   -0.222279
  22 C :   -0.267049
  23 H :    0.227048
  24 H :    0.219182
  25 H :    0.273537
  26 H :    0.230686
  27 H :    0.229611
  28 C :   -0.358168
  29 H :    0.236645
  30 H :    0.280741
  31 O :   -0.571644
  32 C :    0.558195
  33 O :   -0.429202
  34 C :   -0.744941
  35 H :    0.229414
  36 H :    0.247660
  37 H :    0.237737
Sum of atomic charges:    0.0000000

--------------------------------
MULLIKEN REDUCED ORBITAL CHARGES
--------------------------------
  0 Pds       :     2.493371  s :     2.493371
      pz      :     2.075736  p :     6.348580
      px      :     2.127953
      py      :     2.144891
      dz2     :     1.953313  d :     8.628762
      dxz     :     1.827033
      dyz     :     1.962110
      dx2y2   :     1.492249
      dxy     :     1.394057
      f0      :     0.000492  f :     0.005017
      f+1     :     0.000346
      f-1     :     0.000450
      f+2     :     0.000549
      f-2     :     0.000687
      f+3     :     0.000999
      f-3     :     0.001494
  1 O s       :     3.833323  s :     3.833323
      pz      :     1.619859  p :     4.635486
      px      :     1.629967
      py      :     1.385660
      dz2     :     0.003471  d :     0.029487
      dxz     :     0.004701
      dyz     :     0.005232
      dx2y2   :     0.006577
      dxy     :     0.009507
  2 C s       :     2.960565  s :     2.960565
      pz      :     0.704007  p :     2.228011
      px      :     0.757230
      py      :     0.766774
      dz2     :     0.008640  d :     0.140755
      dxz     :     0.025449
      dyz     :     0.015896
      dx2y2   :     0.043588
      dxy     :     0.047181
  3 O s       :     3.806599  s :     3.806599
      pz      :     1.583258  p :     4.657881
      px      :     1.383193
      py      :     1.691430
      dz2     :     0.003645  d :     0.029439
      dxz     :     0.009024
      dyz     :     0.001424
      dx2y2   :     0.009516
      dxy     :     0.005830
  4 C s       :     3.423421  s :     3.423421
      pz      :     1.157424  p :     3.310002
      px      :     1.136505
      py      :     1.016073
      dz2     :     0.005000  d :     0.033433
      dxz     :     0.008411
      dyz     :     0.006314
      dx2y2   :     0.005161
      dxy     :     0.008547
  5 H s       :     0.748887  s :     0.748887
  6 H s       :     0.737982  s :     0.737982
  7 H s       :     0.739477  s :     0.739477
  8 N s       :     3.600254  s :     3.600254
      pz      :     1.183702  p :     3.836913
      px      :     1.460480
      py      :     1.192731
      dz2     :     0.011374  d :     0.048550
      dxz     :     0.007426
      dyz     :     0.011579
      dx2y2   :     0.006879
      dxy     :     0.011293
  9 C s       :     3.354226  s :     3.354226
      pz      :     0.809951  p :     3.114702
      px      :     1.133188
      py      :     1.171563
      dz2     :     0.014182  d :     0.049032
      dxz     :     0.006850
      dyz     :     0.012040
      dx2y2   :     0.006783
      dxy     :     0.009176
 10 H s       :     0.719300  s :     0.719300
 11 H s       :     0.783708  s :     0.783708
 12 H s       :     0.725415  s :     0.725415
 13 C s       :     3.357429  s :     3.357429
      pz      :     1.206756  p :     3.127761
      px      :     0.971047
      py      :     0.949957
      dz2     :     0.010548  d :     0.049227
      dxz     :     0.003096
      dyz     :     0.011807
      dx2y2   :     0.011582
      dxy     :     0.012194
 14 H s       :     0.704701  s :     0.704701
 15 H s       :     0.782977  s :     0.782977
 16 H s       :     0.723352  s :     0.723352
 17 C s       :     3.192640  s :     3.192640
      pz      :     0.860883  p :     2.724097
      px      :     0.892054
      py      :     0.971160
      dz2     :     0.011884  d :     0.042605
      dxz     :     0.012365
      dyz     :     0.005550
      dx2y2   :     0.006319
      dxy     :     0.006488
 18 C s       :     3.253655  s :     3.253655
      pz      :     0.946765  p :     2.941122
      px      :     0.994316
      py      :     1.000042
      dz2     :     0.009671  d :     0.039295
      dxz     :     0.012652
      dyz     :     0.007512
      dx2y2   :     0.004041
      dxy     :     0.005419
 19 C s       :     3.247203  s :     3.247203
      pz      :     0.938091  p :     2.926004
      px      :     1.013623
      py      :     0.974289
      dz2     :     0.010215  d :     0.040797
      dxz     :     0.013153
      dyz     :     0.007286
      dx2y2   :     0.005069
      dxy     :     0.005072
 20 C s       :     3.241145  s :     3.241145
      pz      :     1.032429  p :     2.920327
      px      :     0.910660
      py      :     0.977238
      dz2     :     0.013127  d :     0.040260
      dxz     :     0.010318
      dyz     :     0.003636
      dx2y2   :     0.006594
      dxy     :     0.006585
 21 C s       :     3.250210  s :     3.250210
      pz      :     0.936647  p :     2.933319
      px      :     1.008520
      py      :     0.988153
      dz2     :     0.008778  d :     0.038750
      dxz     :     0.014381
      dyz     :     0.006034
      dx2y2   :     0.005206
      dxy     :     0.004351
 22 C s       :     3.295502  s :     3.295502
      pz      :     0.942475  p :     2.936505
      px      :     0.998245
      py      :     0.995785
      dz2     :     0.009924  d :     0.035041
      dxz     :     0.010435
      dyz     :     0.005603
      dx2y2   :     0.005037
      dxy     :     0.004043
 23 H s       :     0.772952  s :     0.772952
 24 H s       :     0.780818  s :     0.780818
 25 H s       :     0.726463  s :     0.726463
 26 H s       :     0.769314  s :     0.769314
 27 H s       :     0.770389  s :     0.770389
 28 C s       :     3.327324  s :     3.327324
      pz      :     0.899581  p :     2.975591
      px      :     1.146789
      py      :     0.929221
      dz2     :     0.014093  d :     0.055253
      dxz     :     0.006335
      dyz     :     0.014126
      dx2y2   :     0.009438
      dxy     :     0.011261
 29 H s       :     0.763355  s :     0.763355
 30 H s       :     0.719259  s :     0.719259
 31 O s       :     3.825257  s :     3.825257
      pz      :     1.455027  p :     4.720990
      px      :     1.613940
      py      :     1.652023
      dz2     :     0.008602  d :     0.025398
      dxz     :     0.006275
      dyz     :     0.004623
      dx2y2   :     0.003022
      dxy     :     0.002875
 32 C s       :     2.963463  s :     2.963463
      pz      :     0.756368  p :     2.335713
      px      :     0.766266
      py      :     0.813079
      dz2     :     0.044574  d :     0.142629
      dxz     :     0.029949
      dyz     :     0.030845
      dx2y2   :     0.015867
      dxy     :     0.021394
 33 O s       :     3.766307  s :     3.766307
      pz      :     1.560806  p :     4.633659
      px      :     1.606127
      py      :     1.466726
      dz2     :     0.006623  d :     0.029236
      dxz     :     0.004837
      dyz     :     0.007966
      dx2y2   :     0.005049
      dxy     :     0.004762
 34 C s       :     3.408251  s :     3.408251
      pz      :     1.156722  p :     3.302797
      px      :     1.087587
      py      :     1.058488
      dz2     :     0.009122  d :     0.033893
      dxz     :     0.007794
      dyz     :     0.002740
      dx2y2   :     0.006164
      dxy     :     0.008073
 35 H s       :     0.770586  s :     0.770586
 36 H s       :     0.752340  s :     0.752340
 37 H s       :     0.762263  s :     0.762263


                     *******************************
                     * LOEWDIN POPULATION ANALYSIS *
                     *******************************

----------------------
LOEWDIN ATOMIC CHARGES
----------------------
   0 Pd:   -0.295954
   1 O :   -0.163375
   2 C :    0.197536
   3 O :   -0.166115
   4 C :   -0.376575
   5 H :    0.152974
   6 H :    0.165089
   7 H :    0.156569
   8 N :   -0.048437
   9 C :   -0.229466
  10 H :    0.157552
  11 H :    0.118417
  12 H :    0.152542
  13 C :   -0.234850
  14 H :    0.161745
  15 H :    0.119865
  16 H :    0.155957
  17 C :   -0.045304
  18 C :   -0.105862
  19 C :   -0.120133
  20 C :   -0.133904
  21 C :   -0.129567
  22 C :   -0.136926
  23 H :    0.140768
  24 H :    0.133323
  25 H :    0.167810
  26 H :    0.141741
  27 H :    0.147113
  28 C :   -0.112586
  29 H :    0.130420
  30 H :    0.159342
  31 O :   -0.216576
  32 C :    0.132153
  33 O :   -0.225238
  34 C :   -0.384397
  35 H :    0.139805
  36 H :    0.152710
  37 H :    0.141831

-------------------------------
LOEWDIN REDUCED ORBITAL CHARGES
-------------------------------
  0 Pds       :     2.502177  s :     2.502177
      pz      :     2.149232  p :     6.719477
      px      :     2.279501
      py      :     2.290743
      dz2     :     2.014120  d :     9.067404
      dxz     :     1.888977
      dyz     :     2.008583
      dx2y2   :     1.626845
      dxy     :     1.528880
      f0      :     0.000676  f :     0.006895
      f+1     :     0.000464
      f-1     :     0.000600
      f+2     :     0.000753
      f-2     :     0.000942
      f+3     :     0.001328
      f-3     :     0.002132
  1 O s       :     3.475796  s :     3.475796
      pz      :     1.584953  p :     4.631488
      px      :     1.621122
      py      :     1.425413
      dz2     :     0.007387  d :     0.056091
      dxz     :     0.006002
      dyz     :     0.008047
      dx2y2   :     0.014217
      dxy     :     0.020438
  2 C s       :     2.805462  s :     2.805462
      pz      :     0.730753  p :     2.684252
      px      :     0.964058
      py      :     0.989441
      dz2     :     0.020693  d :     0.312750
      dxz     :     0.053456
      dyz     :     0.031017
      dx2y2   :     0.097021
      dxy     :     0.110564
  3 O s       :     3.460393  s :     3.460393
      pz      :     1.552661  p :     4.648481
      px      :     1.458097
      py      :     1.637724
      dz2     :     0.006915  d :     0.057240
      dxz     :     0.013408
      dyz     :     0.002838
      dx2y2   :     0.021127
      dxy     :     0.012951
  4 C s       :     2.955213  s :     2.955213
      pz      :     1.142358  p :     3.358940
      px      :     1.130686
      py      :     1.085897
      dz2     :     0.008509  d :     0.062422
      dxz     :     0.014379
      dyz     :     0.012031
      dx2y2   :     0.010541
      dxy     :     0.016961
  5 H s       :     0.847026  s :     0.847026
  6 H s       :     0.834911  s :     0.834911
  7 H s       :     0.843431  s :     0.843431
  8 N s       :     3.100871  s :     3.100871
      pz      :     1.207108  p :     3.839200
      px      :     1.411631
      py      :     1.220462
      dz2     :     0.026545  d :     0.108365
      dxz     :     0.014750
      dyz     :     0.027496
      dx2y2   :     0.015419
      dxy     :     0.024154
  9 C s       :     2.938416  s :     2.938416
      pz      :     0.921624  p :     3.196216
      px      :     1.132936
      py      :     1.141657
      dz2     :     0.029826  d :     0.094833
      dxz     :     0.015067
      dyz     :     0.023988
      dx2y2   :     0.010715
      dxy     :     0.015238
 10 H s       :     0.842448  s :     0.842448
 11 H s       :     0.881583  s :     0.881583
 12 H s       :     0.847458  s :     0.847458
 13 C s       :     2.937267  s :     2.937267
      pz      :     1.162326  p :     3.202415
      px      :     1.029289
      py      :     1.010799
      dz2     :     0.018803  d :     0.095168
      dxz     :     0.005539
      dyz     :     0.021154
      dx2y2   :     0.024108
      dxy     :     0.025564
 14 H s       :     0.838255  s :     0.838255
 15 H s       :     0.880135  s :     0.880135
 16 H s       :     0.844043  s :     0.844043
 17 C s       :     2.860505  s :     2.860505
      pz      :     1.036300  p :     3.085472
      px      :     1.060861
      py      :     0.988312
      dz2     :     0.029280  d :     0.099327
      dxz     :     0.030477
      dyz     :     0.012409
      dx2y2   :     0.013416
      dxy     :     0.013744
 18 C s       :     2.885952  s :     2.885952
      pz      :     1.083933  p :     3.130794
      px      :     1.054511
      py      :     0.992350
      dz2     :     0.024936  d :     0.089116
      dxz     :     0.030895
      dyz     :     0.015842
      dx2y2   :     0.007796
      dxy     :     0.009646
 19 C s       :     2.886133  s :     2.886133
      pz      :     1.092094  p :     3.140429
      px      :     1.065637
      py      :     0.982697
      dz2     :     0.026969  d :     0.093572
      dxz     :     0.031832
      dyz     :     0.016178
      dx2y2   :     0.009373
      dxy     :     0.009220
 20 C s       :     2.889631  s :     2.889631
      pz      :     1.079829  p :     3.152405
      px      :     1.078067
      py      :     0.994509
      dz2     :     0.027470  d :     0.091868
      dxz     :     0.026469
      dyz     :     0.007156
      dx2y2   :     0.015526
      dxy     :     0.015247
 21 C s       :     2.900987  s :     2.900987
      pz      :     1.080438  p :     3.142135
      px      :     1.075858
      py      :     0.985839
      dz2     :     0.023173  d :     0.086445
      dxz     :     0.032983
      dyz     :     0.012446
      dx2y2   :     0.009624
      dxy     :     0.008219
 22 C s       :     2.931004  s :     2.931004
      pz      :     1.072907  p :     3.131544
      px      :     1.053001
      py      :     1.005636
      dz2     :     0.023766  d :     0.074378
      dxz     :     0.024377
      dyz     :     0.011298
      dx2y2   :     0.008038
      dxy     :     0.006898
 23 H s       :     0.859232  s :     0.859232
 24 H s       :     0.866677  s :     0.866677
 25 H s       :     0.832190  s :     0.832190
 26 H s       :     0.858259  s :     0.858259
 27 H s       :     0.852887  s :     0.852887
 28 C s       :     2.890990  s :     2.890990
      pz      :     1.019413  p :     3.107581
      px      :     1.102295
      py      :     0.985872
      dz2     :     0.030701  d :     0.114015
      dxz     :     0.013059
      dyz     :     0.031299
      dx2y2   :     0.017661
      dxy     :     0.021295
 29 H s       :     0.869580  s :     0.869580
 30 H s       :     0.840658  s :     0.840658
 31 O s       :     3.464488  s :     3.464488
      pz      :     1.490877  p :     4.698401
      px      :     1.590462
      py      :     1.617062
      dz2     :     0.017101  d :     0.053688
      dxz     :     0.014911
      dyz     :     0.009721
      dx2y2   :     0.006210
      dxy     :     0.005745
 32 C s       :     2.809221  s :     2.809221
      pz      :     0.925974  p :     2.733735
      px      :     0.853107
      py      :     0.954655
      dz2     :     0.105974  d :     0.324891
      dxz     :     0.066133
      dyz     :     0.071624
      dx2y2   :     0.032684
      dxy     :     0.048477
 33 O s       :     3.492117  s :     3.492117
      pz      :     1.583676  p :     4.676817
      px      :     1.580627
      py      :     1.512514
      dz2     :     0.011694  d :     0.056304
      dxz     :     0.007398
      dyz     :     0.019611
      dx2y2   :     0.009214
      dxy     :     0.008387
 34 C s       :     2.961442  s :     2.961442
      pz      :     1.139433  p :     3.360117
      px      :     1.117339
      py      :     1.103345
      dz2     :     0.016373  d :     0.062837
      dxz     :     0.013308
      dyz     :     0.004719
      dx2y2   :     0.011774
      dxy     :     0.016663
 35 H s       :     0.860195  s :     0.860195
 36 H s       :     0.847290  s :     0.847290
 37 H s       :     0.858169  s :     0.858169


                      *****************************
                      * MAYER POPULATION ANALYSIS *
                      *****************************

  NA   - Mulliken gross atomic population
  ZA   - Total nuclear charge
  QA   - Mulliken gross atomic charge
  VA   - Mayer's total valence
  BVA  - Mayer's bonded valence
  FA   - Mayer's free valence

  ATOM       NA         ZA         QA         VA         BVA        FA
  0 Pd    17.4757    18.0000     0.5243     2.3993     2.3993     0.0000
  1 O      8.4983     8.0000    -0.4983     2.1551     2.1551    -0.0000
  2 C      5.3293     6.0000     0.6707     3.8555     3.8555     0.0000
  3 O      8.4939     8.0000    -0.4939     2.1554     2.1554     0.0000
  4 C      6.7669     6.0000    -0.7669     3.6840     3.6840     0.0000
  5 H      0.7489     1.0000     0.2511     0.9004     0.9004     0.0000
  6 H      0.7380     1.0000     0.2620     0.8956     0.8956     0.0000
  7 H      0.7395     1.0000     0.2605     0.8981     0.8981    -0.0000
  8 N      7.4857     7.0000    -0.4857     3.1731     3.1731     0.0000
  9 C      6.5180     6.0000    -0.5180     3.6165     3.6165     0.0000
 10 H      0.7193     1.0000     0.2807     0.8922     0.8922    -0.0000
 11 H      0.7837     1.0000     0.2163     0.9084     0.9084     0.0000
 12 H      0.7254     1.0000     0.2746     0.8962     0.8962     0.0000
 13 C      6.5344     6.0000    -0.5344     3.5975     3.5975     0.0000
 14 H      0.7047     1.0000     0.2953     0.8826     0.8826     0.0000
 15 H      0.7830     1.0000     0.2170     0.9133     0.9133     0.0000
 16 H      0.7234     1.0000     0.2766     0.8905     0.8905     0.0000
 17 C      5.9593     6.0000     0.0407     3.7440     3.7440     0.0000
 18 C      6.2341     6.0000    -0.2341     3.8013     3.8013     0.0000
 19 C      6.2140     6.0000    -0.2140     3.8269     3.8269     0.0000
 20 C      6.2017     6.0000    -0.2017     3.8022     3.8022     0.0000
 21 C      6.2223     6.0000    -0.2223     3.8378     3.8378     0.0000
 22 C      6.2670     6.0000    -0.2670     3.7990     3.7990     0.0000
 23 H      0.7730     1.0000     0.2270     0.9085     0.9085     0.0000
 24 H      0.7808     1.0000     0.2192     0.9109     0.9109     0.0000
 25 H      0.7265     1.0000     0.2735     0.8979     0.8979    -0.0000
 26 H      0.7693     1.0000     0.2307     0.9069     0.9069     0.0000
 27 H      0.7704     1.0000     0.2296     0.9192     0.9192    -0.0000
 28 C      6.3582     6.0000    -0.3582     3.6091     3.6091     0.0000
 29 H      0.7634     1.0000     0.2366     0.9004     0.9004    -0.0000
 30 H      0.7193     1.0000     0.2807     0.8935     0.8935     0.0000
 31 O      8.5716     8.0000    -0.5716     2.0562     2.0562     0.0000
 32 C      5.4418     6.0000     0.5582     4.0495     4.0495    -0.0000
 33 O      8.4292     8.0000    -0.4292     2.1572     2.1572    -0.0000
 34 C      6.7449     6.0000    -0.7449     3.6990     3.6990     0.0000
 35 H      0.7706     1.0000     0.2294     0.9078     0.9078    -0.0000
 36 H      0.7523     1.0000     0.2477     0.9010     0.9010    -0.0000
 37 H      0.7623     1.0000     0.2377     0.9075     0.9075     0.0000

  Mayer bond orders larger than 0.100000
B(  0-Pd,  1-O ) :   0.5754 B(  0-Pd,  3-O ) :   0.4810 B(  0-Pd,  8-N ) :   0.4177 
B(  0-Pd, 31-O ) :   0.6511 B(  0-Pd, 33-O ) :   0.1062 B(  1-O ,  2-C ) :   1.3983 
B(  1-O ,  3-O ) :   0.1037 B(  2-C ,  3-O ) :   1.5038 B(  2-C ,  4-C ) :   0.9573 
B(  4-C ,  5-H ) :   0.9094 B(  4-C ,  6-H ) :   0.9016 B(  4-C ,  7-H ) :   0.9074 
B(  8-N ,  9-C ) :   0.9228 B(  8-N , 13-C ) :   0.9209 B(  8-N , 28-C ) :   0.8890 
B(  9-C , 10-H ) :   0.8987 B(  9-C , 11-H ) :   0.9034 B(  9-C , 12-H ) :   0.8998 
B( 13-C , 14-H ) :   0.8848 B( 13-C , 15-H ) :   0.9060 B( 13-C , 16-H ) :   0.8994 
B( 17-C , 18-C ) :   1.4365 B( 17-C , 22-C ) :   1.3483 B( 17-C , 28-C ) :   0.9522 
B( 18-C , 19-C ) :   1.4105 B( 18-C , 25-H ) :   0.8903 B( 19-C , 20-C ) :   1.4341 
B( 19-C , 22-C ) :   0.1015 B( 19-C , 26-H ) :   0.9139 B( 20-C , 21-C ) :   1.4103 
B( 20-C , 23-H ) :   0.9167 B( 21-C , 22-C ) :   1.4508 B( 21-C , 24-H ) :   0.9181 
B( 22-C , 27-H ) :   0.9151 B( 28-C , 29-H ) :   0.9037 B( 28-C , 30-H ) :   0.8972 
B( 31-O , 32-C ) :   1.2152 B( 32-C , 33-O ) :   1.9095 B( 32-C , 34-C ) :   0.9371 
B( 34-C , 35-H ) :   0.9164 B( 34-C , 36-H ) :   0.9109 B( 34-C , 37-H ) :   0.9209 



------------------
HIRSHFELD ANALYSIS
------------------

Total integrated alpha density =     76.999874053
Total integrated beta density  =     76.999874053

  ATOM     CHARGE      SPIN    
   0 Pd   0.598051    0.000000
   1 O   -0.319391    0.000000
   2 C    0.212821    0.000000
   3 O   -0.323678    0.000000
   4 C   -0.068068    0.000000
   5 H    0.046776    0.000000
   6 H    0.055885    0.000000
   7 H    0.050183    0.000000
   8 N   -0.073407    0.000000
   9 C   -0.021777    0.000000
  10 H    0.047740    0.000000
  11 H    0.030792    0.000000
  12 H    0.045712    0.000000
  13 C   -0.031867    0.000000
  14 H    0.036660    0.000000
  15 H    0.031293    0.000000
  16 H    0.044657    0.000000
  17 C   -0.008511    0.000000
  18 C   -0.040286    0.000000
  19 C   -0.034953    0.000000
  20 C   -0.039819    0.000000
  21 C   -0.046224    0.000000
  22 C   -0.039709    0.000000
  23 H    0.049332    0.000000
  24 H    0.037285    0.000000
  25 H    0.048249    0.000000
  26 H    0.050033    0.000000
  27 H    0.056761    0.000000
  28 C    0.002388    0.000000
  29 H    0.031042    0.000000
  30 H    0.045751    0.000000
  31 O   -0.342819    0.000000
  32 C    0.196051    0.000000
  33 O   -0.358604    0.000000
  34 C   -0.083013    0.000000
  35 H    0.033823    0.000000
  36 H    0.043814    0.000000
  37 H    0.037279    0.000000

  TOTAL   0.000252    0.000000

-------
TIMINGS
-------

Total SCF time: 0 days 0 hours 12 min 46 sec 

Total time                  ....     766.279 sec
Sum of individual times     ....     764.197 sec  ( 99.7%)

Fock matrix formation       ....     756.460 sec  ( 98.7%)
  Split-RI-J                ....     112.098 sec  ( 14.8% of F)
  Chain of spheres X        ....     581.104 sec  ( 76.8% of F)
  XC integration            ....      63.182 sec  (  8.4% of F)
    Basis function eval.    ....      21.185 sec  ( 33.5% of XC)
    Density eval.           ....      15.793 sec  ( 25.0% of XC)
    XC-Functional eval.     ....       2.860 sec  (  4.5% of XC)
    XC-Potential eval.      ....      19.387 sec  ( 30.7% of XC)
Diagonalization             ....       0.403 sec  (  0.1%)
Density matrix formation    ....       0.084 sec  (  0.0%)
Population analysis         ....       1.194 sec  (  0.2%)
Initial guess               ....       0.053 sec  (  0.0%)
Orbital Transformation      ....       0.309 sec  (  0.0%)
Orbital Orthonormalization  ....       0.000 sec  (  0.0%)
DIIS solution               ....       0.134 sec  (  0.0%)
Grid generation             ....       5.559 sec  (  0.7%)

Maximum memory used throughout the entire SCF-calculation: 154.7 MB


-------------------------------------------------------------------------------
                          DFT DISPERSION CORRECTION                            
                                                                               
                              DFTD3 V3.1  Rev 1                                
                          USING Becke-Johnson damping                          
-------------------------------------------------------------------------------
The PBEh-3c composite method is recognized
Using three-body term ABC
Active option DFTDOPT                   ...         4   

molecular C6(AA) [au] = 16241.067263 


            DFT-D V3
 parameters
 s6 scaling factor         :     1.0000 
 a1 scaling factor         :     0.4860 
 s8 scaling factor         :     0.0000 
 a2 scaling factor         :     4.5000 
 Damping factor alpha9(ATM):    16.0000 
 ad hoc parameters k1-k3   :    16.0000     1.3333    -4.0000 

 Edisp/kcal,au: -16.371884723170  -0.026090256249 
 E6   /kcal   : -16.580356750 
 E8   /kcal   :  -0.000000000 
 E6(ABC)      :   0.208472027 
 % E8         :   0.000000000 
 % E6(ABC)    :  -1.273353865 

-------------------------   ----------------
Dispersion correction           -0.026090256
-------------------------   ----------------

 ** NOTE ** -> element pd will be treated as ni
------------------   -----------------
gCP correction             0.075980140
------------------   -----------------

-------------------------   --------------------
FINAL SINGLE POINT ENERGY      -988.549350512086
-------------------------   --------------------

------------------------------------------------------------------------------
                         ORCA SCF GRADIENT CALCULATION
------------------------------------------------------------------------------

 ... reading COSX grid (gridx3)
Gradient of the Kohn-Sham DFT energy:
Kohn-Sham wavefunction type      ... RKS
Hartree-Fock exchange scaling    ...    0.420
Number of operators              ...    1
Number of atoms                  ...   38
Basis set dimensions             ...  339
Integral neglect threshold       ... 2.5e-11
Integral primitive cutoff        ... 2.5e-12
SHARK Integral package           ... ON

Nuc. rep. gradient       (SHARK) ... done (  0.0 sec)
HCore & Overlap gradient (SHARK) ... done (  1.3 sec)
ECP gradient             (SHARK) ... done (  2.2 sec)
RI-J gradient            (SHARK) ... done (  6.5 sec)
COSX-gradient                    ... done ( 57.7 sec)
Exchange-correlation gradient    ... done
Dispersion correction            ... done
gCP correction                   ... done

------------------
CARTESIAN GRADIENT
------------------

   1   Pd  :   -0.002795181    0.003566179    0.001067409
   2   O   :    0.014903777   -0.019515751    0.004071518
   3   C   :   -0.030173553    0.016635014   -0.003910917
   4   O   :    0.015451459    0.003832557    0.001690776
   5   C   :    0.006106017    0.005523719    0.003149257
   6   H   :    0.000211880   -0.001855234   -0.000683122
   7   H   :    0.000172857   -0.000167636   -0.000166177
   8   H   :   -0.000828512    0.001638727   -0.001121032
   9   N   :   -0.003406846   -0.001039819   -0.006206966
  10   C   :    0.005780648   -0.002484310   -0.000223141
  11   H   :   -0.001957565   -0.001162606    0.001909819
  12   H   :   -0.001374190   -0.000449061   -0.000574651
  13   H   :   -0.005339742    0.003728427   -0.000764740
  14   C   :    0.000103542    0.000856031    0.006672081
  15   H   :    0.000197386   -0.000998975   -0.006883284
  16   H   :    0.002058706   -0.000404592   -0.000821945
  17   H   :    0.000649341   -0.001116144    0.000240343
  18   C   :    0.043128461   -0.012032085   -0.023095048
  19   C   :    0.020822809   -0.008797325    0.009650932
  20   C   :   -0.005805136    0.000974244   -0.002384757
  21   C   :    0.009188684   -0.001006305    0.004032432
  22   C   :    0.020194145   -0.007494671    0.029746663
  23   C   :   -0.059769163    0.024308957   -0.023030245
  24   H   :    0.002264813    0.000844058    0.002084852
  25   H   :    0.003149572   -0.005827451   -0.004805789
  26   H   :   -0.001238823   -0.001420284    0.005229716
  27   H   :   -0.001191817   -0.001226522    0.000756441
  28   H   :   -0.032551858    0.012122686   -0.003783349
  29   C   :   -0.005978879    0.001740519    0.010078759
  30   H   :    0.001642188   -0.000449199    0.003881544
  31   H   :    0.002024076   -0.006223881   -0.002863719
  32   O   :   -0.003537535   -0.000856158    0.011139019
  33   C   :    0.002499695    0.014172652   -0.021261261
  34   O   :    0.003283269   -0.014211275    0.011105632
  35   C   :    0.001557498   -0.005972473    0.006612940
  36   H   :    0.001788394    0.005214220   -0.002572607
  37   H   :   -0.002501263    0.000219361   -0.003622412
  38   H   :    0.001872822    0.000248465   -0.003627300

Difference to translation invariance:
           :    0.0006019754    0.0009140601    0.0007176689

Difference to rotation invariance:
           :   -0.0026565627   -0.0023154344   -0.0016373709

Norm of the cartesian gradient     ...    0.1207816030
RMS gradient                       ...    0.0113122336
MAX gradient                       ...    0.0597691628

-------
TIMINGS
-------

Total SCF gradient time            ...       78.176 sec

One electron gradient       ....       3.501 sec  (  4.5%)
RI-J Coulomb gradient       ....       6.548 sec  (  8.4%)
COSX gradient               ....      57.721 sec  ( 73.8%)
XC gradient                 ....       8.953 sec  ( 11.5%)

Maximum memory used throughout the entire SCFGRAD-calculation: 122.6 MB

                            ***************************************
                            *     ORCA property calculations      *
                            ***************************************

                                    ---------------------
                                    Active property flags
                                    ---------------------
   (+) Dipole Moment


------------------------------------------------------------------------------
                       ORCA ELECTRIC PROPERTIES CALCULATION
------------------------------------------------------------------------------

Dipole Moment Calculation                       ... on
Quadrupole Moment Calculation                   ... off
Polarizability Calculation                      ... off
GBWName                                         ... 1_1_orca.gbw
Electron density                                ... 1_1_orca.scfp
The origin for moment calculation is the CENTER OF MASS  = ( 0.664081,  0.446451 -0.236237)

-------------
DIPOLE MOMENT
-------------
                                X             Y             Z
Electronic contribution:     33.93658      33.55151     -28.84000
Nuclear contribution   :    -35.74160     -33.68431      29.59508
                        -----------------------------------------
Total Dipole Moment    :     -1.80502      -0.13280       0.75508
                        -----------------------------------------
Magnitude (a.u.)       :      1.96109
Magnitude (Debye)      :      4.98470



--------------------
Rotational spectrum 
--------------------
 
Rotational constants in cm-1:     0.013247     0.008360     0.007119 
Rotational constants in MHz :   397.129211   250.620185   213.433365 

 Dipole components along the rotational axes: 
x,y,z [a.u.] :     1.747907    -0.151818     0.876159 
x,y,z [Debye]:     4.442827    -0.385890     2.227020 

 

Timings for individual modules:

Sum of individual times         ...      845.544 sec (=  14.092 min)
GTO integral calculation        ...        1.019 sec (=   0.017 min)   0.1 %
SCF iterations                  ...      766.316 sec (=  12.772 min)  90.6 %
SCF Gradient evaluation         ...       78.209 sec (=   1.303 min)   9.2 %
                             ****ORCA TERMINATED NORMALLY****
TOTAL RUN TIME: 0 days 0 hours 14 minutes 6 seconds 75 msec
