
                                 *****************
                                 * O   R   C   A *
                                 *****************

                                            #,                                       
                                            ###                                      
                                            ####                                     
                                            #####                                    
                                            ######                                   
                                           ########,                                 
                                     ,,################,,,,,                         
                               ,,#################################,,                 
                          ,,##########################################,,             
                       ,#########################################, ''#####,          
                    ,#############################################,,   '####,        
                  ,##################################################,,,,####,       
                ,###########''''           ''''###############################       
              ,#####''   ,,,,##########,,,,          '''####'''          '####       
            ,##' ,,,,###########################,,,                        '##       
           ' ,,###''''                  '''############,,,                           
         ,,##''                                '''############,,,,        ,,,,,,###''
      ,#''                                            '''#######################'''  
     '                                                          ''''####''''         
             ,#######,   #######,   ,#######,      ##                                
            ,#'     '#,  ##    ##  ,#'     '#,    #''#        ######   ,####,        
            ##       ##  ##   ,#'  ##            #'  '#       #        #'  '#        
            ##       ##  #######   ##           ,######,      #####,   #    #        
            '#,     ,#'  ##    ##  '#,     ,#' ,#      #,         ##   #,  ,#        
             '#######'   ##     ##  '#######'  #'      '#     #####' # '####'        



                  #######################################################
                  #                        -***-                        #
                  #          Department of theory and spectroscopy      #
                  #    Directorship and core code : Frank Neese         #
                  #        Max Planck Institute fuer Kohlenforschung    #
                  #                Kaiser Wilhelm Platz 1               #
                  #                 D-45470 Muelheim/Ruhr               #
                  #                      Germany                        #
                  #                                                     #
                  #                  All rights reserved                #
                  #                        -***-                        #
                  #######################################################


                         Program Version 5.0.3 -  RELEASE  -


 With contributions from (in alphabetic order):
   Daniel Aravena         : Magnetic Suceptibility
   Michael Atanasov       : Ab Initio Ligand Field Theory (pilot matlab implementation)
   Alexander A. Auer      : GIAO ZORA, VPT2 properties, NMR spectrum
   Ute Becker             : Parallelization
   Giovanni Bistoni       : ED, misc. LED, open-shell LED, HFLD
   Martin Brehm           : Molecular dynamics
   Dmytro Bykov           : SCF Hessian
   Vijay G. Chilkuri      : MRCI spin determinant printing, contributions to CSF-ICE
   Dipayan Datta          : RHF DLPNO-CCSD density
   Achintya Kumar Dutta   : EOM-CC, STEOM-CC
   Dmitry Ganyushin       : Spin-Orbit,Spin-Spin,Magnetic field MRCI
   Miquel Garcia          : C-PCM and meta-GGA Hessian, CC/C-PCM, Gaussian charge scheme
   Yang Guo               : DLPNO-NEVPT2, F12-NEVPT2, CIM, IAO-localization
   Andreas Hansen         : Spin unrestricted coupled pair/coupled cluster methods
   Benjamin Helmich-Paris : MC-RPA, TRAH-SCF, COSX integrals
   Lee Huntington         : MR-EOM, pCC
   Robert Izsak           : Overlap fitted RIJCOSX, COSX-SCS-MP3, EOM
   Marcus Kettner         : VPT2
   Christian Kollmar      : KDIIS, OOCD, Brueckner-CCSD(T), CCSD density, CASPT2, CASPT2-K
   Simone Kossmann        : Meta GGA functionals, TD-DFT gradient, OOMP2, MP2 Hessian
   Martin Krupicka        : Initial AUTO-CI
   Lucas Lang             : DCDCAS
   Marvin Lechner         : AUTO-CI (C++ implementation), FIC-MRCC
   Dagmar Lenk            : GEPOL surface, SMD
   Dimitrios Liakos       : Extrapolation schemes; Compound Job, initial MDCI parallelization
   Dimitrios Manganas     : Further ROCIS development; embedding schemes
   Dimitrios Pantazis     : SARC Basis sets
   Anastasios Papadopoulos: AUTO-CI, single reference methods and gradients
   Taras Petrenko         : DFT Hessian,TD-DFT gradient, ASA, ECA, R-Raman, ABS, FL, XAS/XES, NRVS
   Peter Pinski           : DLPNO-MP2, DLPNO-MP2 Gradient
   Christoph Reimann      : Effective Core Potentials
   Marius Retegan         : Local ZFS, SOC
   Christoph Riplinger    : Optimizer, TS searches, QM/MM, DLPNO-CCSD(T), (RO)-DLPNO pert. Triples
   Tobias Risthaus        : Range-separated hybrids, TD-DFT gradient, RPA, STAB
   Michael Roemelt        : Original ROCIS implementation
   Masaaki Saitow         : Open-shell DLPNO-CCSD energy and density
   Barbara Sandhoefer     : DKH picture change effects
   Avijit Sen             : IP-ROCIS
   Kantharuban Sivalingam : CASSCF convergence, NEVPT2, FIC-MRCI
   Bernardo de Souza      : ESD, SOC TD-DFT
   Georgi Stoychev        : AutoAux, RI-MP2 NMR, DLPNO-MP2 response
   Willem Van den Heuvel  : Paramagnetic NMR
   Boris Wezisla          : Elementary symmetry handling
   Frank Wennmohs         : Technical directorship


 We gratefully acknowledge several colleagues who have allowed us to
 interface, adapt or use parts of their codes:
   Stefan Grimme, W. Hujo, H. Kruse, P. Pracht,  : VdW corrections, initial TS optimization,
                  C. Bannwarth, S. Ehlert          DFT functionals, gCP, sTDA/sTD-DF
   Ed Valeev, F. Pavosevic, A. Kumar             : LibInt (2-el integral package), F12 methods
   Garnet Chan, S. Sharma, J. Yang, R. Olivares  : DMRG
   Ulf Ekstrom                                   : XCFun DFT Library
   Mihaly Kallay                                 : mrcc  (arbitrary order and MRCC methods)
   Jiri Pittner, Ondrej Demel                    : Mk-CCSD
   Frank Weinhold                                : gennbo (NPA and NBO analysis)
   Christopher J. Cramer and Donald G. Truhlar   : smd solvation model
   Lars Goerigk                                  : TD-DFT with DH, B97 family of functionals
   V. Asgeirsson, H. Jonsson                     : NEB implementation
   FAccTs GmbH                                   : IRC, NEB, NEB-TS, DLPNO-Multilevel, CI-OPT
                                                   MM, QMMM, 2- and 3-layer-ONIOM, Crystal-QMMM,
                                                   LR-CPCM, SF, NACMEs, symmetry and pop. for TD-DFT,
                                                   nearIR, NL-DFT gradient (VV10), updates on ESD,
                                                   ML-optimized integration grids
   S Lehtola, MJT Oliveira, MAL Marques          : LibXC Library
   Liviu Ungur et al                             : ANISO software


 Your calculation uses the libint2 library for the computation of 2-el integrals
 For citations please refer to: http://libint.valeyev.net

 Your ORCA version has been built with support for libXC version: 5.1.0
 For citations please refer to: https://tddft.org/programs/libxc/

 This ORCA versions uses:
   CBLAS   interface :  Fast vector & matrix operations
   LAPACKE interface :  Fast linear algebra routines
   SCALAPACK package :  Parallel linear algebra routines
   Shared memory     :  Shared parallel matrices
   BLAS/LAPACK       :  OpenBLAS 0.3.15  USE64BITINT DYNAMIC_ARCH NO_AFFINITY SkylakeX SINGLE_THREADED
        Core in use  :  SkylakeX
   Copyright (c) 2011-2014, The OpenBLAS Project


Your calculation utilizes the geometrical counterpoise correction gCP
Please cite in your paper:
H.Kruse, S. Grimme J.Chem.Phys., 136, (2012), 154101 
   

Your calculation utilizes the atom-pairwise dispersion correction
with the Becke-Johnson damping scheme (D3BJ)
Cite in your paper:
S.Grimme, S.Ehrlich, L.Goerigk, J Comput Chem, (2011), 32, 1456–1465 
S.Grimme, J.Antony, S.Ehrlich and H.Krieg, J.Chem.Phys., 132, (2010), 154104 
   

Your calculation employs the composite approach PBEh-3c.
Please cite in your paper:
S. Grimme, J. G. Brandenburg, C. Bannwarth, A. Hansen J.Chem.Phys., 143, (2015), 054107 
   

================================================================================

cite the ECPs for Pd [Def2-ECP] as follows:
Ce-Yb(ecp-28): M. Dolg, H. Stoll, H.Preuss, J. Chem. Phys., 1989, 90, 1730-1734.
Y-Cd(ecp-28), Hf-Hg(ecp-46): D. Andrae,U. Haeussermann, M. Dolg, H. Stoll, H. Preuss, Theor. Chim. Acta, 1990, 77, 123-141.
In-Sb(ecp-28), Tl-Bi(ecp-46): B. Metz, H. Stoll, M. Dolg, J. Chem. Phys., 2000, 113, 2563-2569.
Te-Xe(ecp-28), Po-Rn(ecp-46): K. A. Peterson, D. Figgen, E. Goll, H. Stoll, M. Dolg, J. Chem. Phys., 2003, 119, 11113-11123.
Rb(ecp-28), Cs(ecp-46): T. Leininger, A. Nicklass, W. Kuechle, H. Stoll, M. Dolg, A. Bergner, Chem. Phys. Lett., 1996, 255, 274-280.
Sr(ecp-28), Ba(ecp-46): M. Kaupp, P. V. Schleyer, H. Stoll and H. Preuss, J. Chem. Phys., 1991, 94, 1360-1366.
La(ecp-46): M. Dolg, H. Stoll, A. Savin, H. Preuss, Theor. Chim. Acta, 1989, 75, 173-194.
Lu(ecp-28): X. Cao, M. Dolg, J. Chem. Phys., 2001, 115, 7348-7355.

ECP parameters for Pd [Def2-ECP] have been obtained from:
TURBOMOLE (7.0.2)

----- Orbital basis set information -----
Your calculation utilizes the basis: def2-mSVP

----- AuxJ basis set information -----
Your calculation utilizes the auxiliary basis: def2/J
   F. Weigend, Phys. Chem. Chem. Phys. 8, 1057 (2006).

================================================================================
                                        WARNINGS
                       Please study these warnings very carefully!
================================================================================


INFO   : the flag for use of the SHARK integral package has been found!

================================================================================
                                       INPUT FILE
================================================================================
NAME = 1_8_orca.inp
|  1> ! EnGrad PBEh-3c
|  2> %output 
|  3> xyzfile=True 
|  4> end 
|  5> %scf 
|  6> maxiter 250 
|  7> end
|  8> %output
|  9> Print[P_Hirshfeld] = 1
| 10> end
| 11> % maxcore
| 12> 4000
| 13> *xyz 0 1
| 14> Pd   0.79984735   0.66291130  -0.55720330 
| 15> O    2.33541764   1.63950479   0.15161509 
| 16> C    1.67528307   2.73172710   0.20265026 
| 17> O    0.44409341   2.68111964  -0.07668883 
| 18> C    2.38315017   4.03071123   0.52339265 
| 19> H    1.71414047   4.73863641   1.01910245 
| 20> H    2.71230992   4.50038421  -0.41108984 
| 21> H    3.27369604   3.87734366   1.14057062 
| 22> N   -1.16274665  -0.14399438  -1.15411374 
| 23> C   -1.22053195  -0.67422622  -2.53473408 
| 24> H   -0.92407596   0.11654202  -3.21330898 
| 25> H   -2.25315136  -0.97141694  -2.73802554 
| 26> H   -0.54944130  -1.52721081  -2.65646714 
| 27> C   -2.11229585   0.96723054  -1.03552004 
| 28> H   -2.07014496   1.40143600  -0.03497814 
| 29> H   -3.12379516   0.60481889  -1.24401014 
| 30> H   -1.82728656   1.71058902  -1.77233179 
| 31> C   -1.55694682  -0.99406066   1.28730712 
| 32> C   -0.37159287  -1.49149514   1.91625172 
| 33> C   -0.18637844  -1.39440370   3.30100587 
| 34> C   -1.27827521  -0.91643201   4.00972762 
| 35> C   -2.42686701  -0.40477780   3.35095337 
| 36> C   -2.52912052  -0.54487413   2.07143116 
| 37> H   -1.16666523  -0.81703476   5.10314447 
| 38> H   -3.25394141  -0.20053837   4.00096504 
| 39> H    0.45717903  -1.99162717   1.35570634 
| 40> H    0.68124293  -1.82832756   3.80311289 
| 41> H   -3.21418568   0.08251959   1.68027759 
| 42> C   -1.57045575  -1.24401875  -0.21938173 
| 43> H   -2.59984326  -1.52552015  -0.45155483 
| 44> H   -0.95831365  -2.12388785  -0.47520406 
| 45> O    1.66280236  -1.04976508  -1.05834241 
| 46> C    2.24716636  -0.93987680  -2.22142347 
| 47> O    2.01621270  -0.05418600  -3.02456743 
| 48> C    3.28670027  -2.03414323  -2.46679215 
| 49> H    2.90984056  -3.03174251  -2.22060470 
| 50> H    4.17180695  -1.85160527  -1.84863413 
| 51> H    3.57880299  -2.00013197  -3.51069413 
| 52> *
| 53> 
| 54>                          ****END OF INPUT****
================================================================================

                     *******************************
                     * Energy+Gradient Calculation *
                     *******************************

---------------------------------
CARTESIAN COORDINATES (ANGSTROEM)
---------------------------------
  Pd     0.799847    0.662911   -0.557203
  O      2.335418    1.639505    0.151615
  C      1.675283    2.731727    0.202650
  O      0.444093    2.681120   -0.076689
  C      2.383150    4.030711    0.523393
  H      1.714140    4.738636    1.019102
  H      2.712310    4.500384   -0.411090
  H      3.273696    3.877344    1.140571
  N     -1.162747   -0.143994   -1.154114
  C     -1.220532   -0.674226   -2.534734
  H     -0.924076    0.116542   -3.213309
  H     -2.253151   -0.971417   -2.738026
  H     -0.549441   -1.527211   -2.656467
  C     -2.112296    0.967231   -1.035520
  H     -2.070145    1.401436   -0.034978
  H     -3.123795    0.604819   -1.244010
  H     -1.827287    1.710589   -1.772332
  C     -1.556947   -0.994061    1.287307
  C     -0.371593   -1.491495    1.916252
  C     -0.186378   -1.394404    3.301006
  C     -1.278275   -0.916432    4.009728
  C     -2.426867   -0.404778    3.350953
  C     -2.529121   -0.544874    2.071431
  H     -1.166665   -0.817035    5.103144
  H     -3.253941   -0.200538    4.000965
  H      0.457179   -1.991627    1.355706
  H      0.681243   -1.828328    3.803113
  H     -3.214186    0.082520    1.680278
  C     -1.570456   -1.244019   -0.219382
  H     -2.599843   -1.525520   -0.451555
  H     -0.958314   -2.123888   -0.475204
  O      1.662802   -1.049765   -1.058342
  C      2.247166   -0.939877   -2.221423
  O      2.016213   -0.054186   -3.024567
  C      3.286700   -2.034143   -2.466792
  H      2.909841   -3.031743   -2.220605
  H      4.171807   -1.851605   -1.848634
  H      3.578803   -2.000132   -3.510694

----------------------------
CARTESIAN COORDINATES (A.U.)
----------------------------
  NO LB      ZA    FRAG     MASS         X           Y           Z
   0 Pd   18.0000*   0   106.400    1.511492    1.252721   -1.052962
   1 O     8.0000    0    15.999    4.413300    3.098215    0.286511
   2 C     6.0000    0    12.011    3.165826    5.162216    0.382953
   3 O     8.0000    0    15.999    0.839215    5.066582   -0.144921
   4 C     6.0000    0    12.011    4.503501    7.616940    0.989069
   5 H     1.0000    0     1.008    3.239256    8.954725    1.925825
   6 H     1.0000    0     1.008    5.125523    8.504494   -0.776847
   7 H     1.0000    0     1.008    6.186389    7.327118    2.155366
   8 N     7.0000    0    14.007   -2.197273   -0.272110   -2.180959
   9 C     6.0000    0    12.011   -2.306471   -1.274103   -4.789953
  10 H     1.0000    0     1.008   -1.746250    0.220233   -6.072274
  11 H     1.0000    0     1.008   -4.257839   -1.835712   -5.174118
  12 H     1.0000    0     1.008   -1.038294   -2.886010   -5.019995
  13 C     6.0000    0    12.011   -3.991661    1.827801   -1.956849
  14 H     1.0000    0     1.008   -3.912007    2.648330   -0.066099
  15 H     1.0000    0     1.008   -5.903117    1.142942   -2.350838
  16 H     1.0000    0     1.008   -3.453071    3.232545   -3.349222
  17 C     6.0000    0    12.011   -2.942203   -1.878502    2.432658
  18 C     6.0000    0    12.011   -0.702209   -2.818517    3.621191
  19 C     6.0000    0    12.011   -0.352204   -2.635041    6.237997
  20 C     6.0000    0    12.011   -2.415590   -1.731806    7.577287
  21 C     6.0000    0    12.011   -4.586114   -0.764919    6.332384
  22 C     6.0000    0    12.011   -4.779345   -1.029663    3.914438
  23 H     1.0000    0     1.008   -2.204678   -1.543972    9.643545
  24 H     1.0000    0     1.008   -6.149058   -0.378963    7.560728
  25 H     1.0000    0     1.008    0.863943   -3.763630    2.561914
  26 H     1.0000    0     1.008    1.287363   -3.455038    7.186842
  27 H     1.0000    0     1.008   -6.073931    0.155939    3.175264
  28 C     6.0000    0    12.011   -2.967731   -2.350855   -0.414571
  29 H     1.0000    0     1.008   -4.912992   -2.882815   -0.853315
  30 H     1.0000    0     1.008   -1.810950   -4.013566   -0.898006
  31 O     8.0000    0    15.999    3.142241   -1.983769   -1.999977
  32 C     6.0000    0    12.011    4.246529   -1.776110   -4.197882
  33 O     8.0000    0    15.999    3.810090   -0.102397   -5.715604
  34 C     6.0000    0    12.011    6.210963   -3.843974   -4.661562
  35 H     1.0000    0     1.008    5.498802   -5.729163   -4.196335
  36 H     1.0000    0     1.008    7.883573   -3.499027   -3.493412
  37 H     1.0000    0     1.008    6.762958   -3.779702   -6.634250
* core charge reduced due to ECP

--------------------------------
INTERNAL COORDINATES (ANGSTROEM)
--------------------------------
 Pd     0   0   0     0.000000000000     0.00000000     0.00000000
 O      1   0   0     1.952980919068     0.00000000     0.00000000
 C      2   1   0     1.277236005423    92.04814940     0.00000000
 O      3   2   1     1.263494923259   117.42233196     5.55979333
 C      3   2   1     1.513707792805   120.04038766   188.40794742
 H      5   3   2     1.092913649374   111.45112486   208.90438978
 H      5   3   2     1.096447159365   109.11049301    90.92455733
 H      5   3   2     1.094304438790   112.32124958   332.15037784
 N      1   2   3     2.204353433239   168.92054902   333.17992501
 C      9   1   2     1.480066710749   114.73932083   142.09198096
 H     10   9   1     1.083357954837   108.18578488   303.14881667
 H     10   9   1     1.093596172118   107.91609141   184.28908624
 H     10   9   1     1.092137495553   111.08691676    63.23809424
 C      9   1   2     1.466468196631   106.09418456    21.99175404
 H     14   9   1     1.091510500489   110.52173441   305.72421204
 H     14   9   1     1.094504993129   109.39562584   184.46204789
 H     14   9   1     1.084759733818   107.11046290    65.39048376
 C      9   1   2     2.615060662789    90.02254848   287.61507785
 C     18   9   1     1.431110183928   113.48012805   322.67495124
 C     19  18   9     1.400455350500   121.33207063   149.27619208
 C     20  19  18     1.386716269358   115.15759820     6.32666762
 C     21  20  19     1.419519871682   121.61233915   352.21727550
 C     22  21  20     1.291224166390   119.00237658     9.00995167
 H     21  20  19     1.103583711735   117.24410530   180.55858794
 H     22  21  20     1.071578732076   114.31215771   171.53873943
 H     19  18   9     1.118573212937   123.28896996   328.38041087
 H     20  19  18     1.092322396315   122.14219733   175.83016347
 H     23  22  21     1.007937631337   111.76771761   197.50959676
 C      9   1   2     1.500001418444   109.98028994   263.98378309
 H     29   9   1     1.092147440738   108.22412623   172.10954281
 H     29   9   1     1.101967625774   106.85143149   285.37601860
 O      1   2   3     1.982193769404   100.45799727   169.88907657
 C     32   1   2     1.306259649039   110.31499859   278.33392066
 O     33  32   1     1.217714254970   124.30498361   342.77816153
 C     33  32   1     1.529135559390   112.75521739   161.59128196
 H     35  33  32     1.094456863022   112.46389851    47.21970450
 H     35  33  32     1.094921586011   109.85577818   287.33321223
 H     35  33  32     1.084533129363   108.36732001   168.71888979

---------------------------
INTERNAL COORDINATES (A.U.)
---------------------------
 Pd     0   0   0     0.000000000000     0.00000000     0.00000000
 O      1   0   0     3.690599081812     0.00000000     0.00000000
 C      2   1   0     2.413626258632    92.04814940     0.00000000
 O      3   2   1     2.387659376559   117.42233196     5.55979333
 C      3   2   1     2.860493175183   120.04038766   188.40794742
 H      5   3   2     2.065307485341   111.45112486   208.90438978
 H      5   3   2     2.071984851515   109.11049301    90.92455733
 H      5   3   2     2.067935696447   112.32124958   332.15037784
 N      1   2   3     4.165624291191   168.92054902   333.17992501
 C      9   1   2     2.796920743249   114.73932083   142.09198096
 H     10   9   1     2.047249839648   108.18578488   303.14881667
 H     10   9   1     2.066597266408   107.91609141   184.28908624
 H     10   9   1     2.063840767181   111.08691676    63.23809424
 C      9   1   2     2.771223275737   106.09418456    21.99175404
 H     14   9   1     2.062655918223   110.52173441   305.72421204
 H     14   9   1     2.068314689223   109.39562584   184.46204789
 H     14   9   1     2.049898818021   107.11046290    65.39048376
 C      9   1   2     4.941748476261    90.02254848   287.61507785
 C     18   9   1     2.704406315090   113.48012805   322.67495124
 C     19  18   9     2.646477075229   121.33207063   149.27619208
 C     20  19  18     2.620513974539   115.15759820     6.32666762
 C     21  20  19     2.682503799139   121.61233915   352.21727550
 C     22  21  20     2.440060051978   119.00237658     9.00995167
 H     21  20  19     2.085470981036   117.24410530   180.55858794
 H     22  21  20     2.024990334559   114.31215771   171.53873943
 H     19  18   9     2.113797033192   123.28896996   328.38041087
 H     20  19  18     2.064190178984   122.14219733   175.83016347
 H     23  22  21     1.904726083300   111.76771761   197.50959676
 C      9   1   2     2.834591881353   109.98028994   263.98378309
 H     29   9   1     2.063859560857   108.22412623   172.10954281
 H     29   9   1     2.082417021160   106.85143149   285.37601860
 O      1   2   3     3.745803368539   100.45799727   169.88907657
 C     32   1   2     2.468472996476   110.31499859   278.33392066
 O     33  32   1     2.301146451265   124.30498361   342.77816153
 C     33  32   1     2.889647428887   112.75521739   161.59128196
 H     35  33  32     2.068223736502   112.46389851    47.21970450
 H     35  33  32     2.069101935679   109.85577818   287.33321223
 H     35  33  32     2.049470597661   108.36732001   168.71888979

---------------------
BASIS SET INFORMATION
---------------------
There are 5 groups of distinct atoms

 Group   1 Type Pd  : 7s6p5d1f contracted to 5s3p2d1f pattern {31111/411/41/1}
 Group   2 Type O   : 8s4p1d contracted to 4s2p1d pattern {5111/31/1}
 Group   3 Type C   : 8s4p1d contracted to 4s2p1d pattern {5111/31/1}
 Group   4 Type H   : 4s contracted to 2s pattern {31}
 Group   5 Type N   : 8s4p1d contracted to 4s2p1d pattern {5111/31/1}

Atom   0Pd   basis set group =>   1
Atom   1O    basis set group =>   2
Atom   2C    basis set group =>   3
Atom   3O    basis set group =>   2
Atom   4C    basis set group =>   3
Atom   5H    basis set group =>   4
Atom   6H    basis set group =>   4
Atom   7H    basis set group =>   4
Atom   8N    basis set group =>   5
Atom   9C    basis set group =>   3
Atom  10H    basis set group =>   4
Atom  11H    basis set group =>   4
Atom  12H    basis set group =>   4
Atom  13C    basis set group =>   3
Atom  14H    basis set group =>   4
Atom  15H    basis set group =>   4
Atom  16H    basis set group =>   4
Atom  17C    basis set group =>   3
Atom  18C    basis set group =>   3
Atom  19C    basis set group =>   3
Atom  20C    basis set group =>   3
Atom  21C    basis set group =>   3
Atom  22C    basis set group =>   3
Atom  23H    basis set group =>   4
Atom  24H    basis set group =>   4
Atom  25H    basis set group =>   4
Atom  26H    basis set group =>   4
Atom  27H    basis set group =>   4
Atom  28C    basis set group =>   3
Atom  29H    basis set group =>   4
Atom  30H    basis set group =>   4
Atom  31O    basis set group =>   2
Atom  32C    basis set group =>   3
Atom  33O    basis set group =>   2
Atom  34C    basis set group =>   3
Atom  35H    basis set group =>   4
Atom  36H    basis set group =>   4
Atom  37H    basis set group =>   4
---------------------------------
AUXILIARY/J BASIS SET INFORMATION
---------------------------------
There are 5 groups of distinct atoms

 Group   1 Type Pd  : 11s5p5d3f3g contracted to 8s5p5d2f3g pattern {41111111/11111/11111/21/111}
 Group   2 Type O   : 12s5p4d2f1g contracted to 6s4p3d1f1g pattern {711111/2111/211/2/1}
 Group   3 Type C   : 12s5p4d2f1g contracted to 6s4p3d1f1g pattern {711111/2111/211/2/1}
 Group   4 Type H   : 5s2p1d contracted to 3s1p1d pattern {311/2/1}
 Group   5 Type N   : 12s5p4d2f1g contracted to 6s4p3d1f1g pattern {711111/2111/211/2/1}

Atom   0Pd   basis set group =>   1
Atom   1O    basis set group =>   2
Atom   2C    basis set group =>   3
Atom   3O    basis set group =>   2
Atom   4C    basis set group =>   3
Atom   5H    basis set group =>   4
Atom   6H    basis set group =>   4
Atom   7H    basis set group =>   4
Atom   8N    basis set group =>   5
Atom   9C    basis set group =>   3
Atom  10H    basis set group =>   4
Atom  11H    basis set group =>   4
Atom  12H    basis set group =>   4
Atom  13C    basis set group =>   3
Atom  14H    basis set group =>   4
Atom  15H    basis set group =>   4
Atom  16H    basis set group =>   4
Atom  17C    basis set group =>   3
Atom  18C    basis set group =>   3
Atom  19C    basis set group =>   3
Atom  20C    basis set group =>   3
Atom  21C    basis set group =>   3
Atom  22C    basis set group =>   3
Atom  23H    basis set group =>   4
Atom  24H    basis set group =>   4
Atom  25H    basis set group =>   4
Atom  26H    basis set group =>   4
Atom  27H    basis set group =>   4
Atom  28C    basis set group =>   3
Atom  29H    basis set group =>   4
Atom  30H    basis set group =>   4
Atom  31O    basis set group =>   2
Atom  32C    basis set group =>   3
Atom  33O    basis set group =>   2
Atom  34C    basis set group =>   3
Atom  35H    basis set group =>   4
Atom  36H    basis set group =>   4
Atom  37H    basis set group =>   4
-------------------------
ECP PARAMETER INFORMATION
-------------------------

 Group 1, Type Pd ECP Def2-ECP (replacing 28 core electrons, lmax=3)

Atom   0Pd   ECP group =>   1

------------------------------------------------------------------------------
                           ORCA GTO INTEGRAL CALCULATION
                           -- RI-GTO INTEGRALS CHOSEN --
------------------------------------------------------------------------------
------------------------------------------------------------------------------
                   ___                                                        
                  /   \      - P O W E R E D   B Y -                         
                 /     \                                                     
                 |  |  |   _    _      __       _____    __    __             
                 |  |  |  | |  | |    /  \     |  _  \  |  |  /  |          
                  \  \/   | |  | |   /    \    | | | |  |  | /  /          
                 / \  \   | |__| |  /  /\  \   | |_| |  |  |/  /          
                |  |  |   |  __  | /  /__\  \  |    /   |      \           
                |  |  |   | |  | | |   __   |  |    \   |  |\   \          
                \     /   | |  | | |  |  |  |  | |\  \  |  | \   \       
                 \___/    |_|  |_| |__|  |__|  |_| \__\ |__|  \__/        
                                                                              
                      - O R C A' S   B I G   F R I E N D -                    
                                      &                                       
                       - I N T E G R A L  F E E D E R -                       
                                                                              
 v1 FN, 2020, v2 2021                                                         
------------------------------------------------------------------------------


Reading SHARK input file 1_8_orca.SHARKINP.tmp ... ok
----------------------
SHARK INTEGRAL PACKAGE
----------------------

Number of atoms                             ...     38
Number of basis functions                   ...    339
Number of shells                            ...    175
Maximum angular momentum                    ...      3
Integral batch strategy                     ... SHARK/LIBINT Hybrid
RI-J (if used) integral strategy            ... SPLIT-RIJ (Revised 2003 algorithm where possible)
Printlevel                                  ...      1
Contraction scheme used                     ... SEGMENTED contraction
Coulomb Range Separation                    ... NOT USED
Exchange Range Separation                   ... NOT USED
Finite Nucleus Model                        ... NOT USED
Auxiliary Coulomb fitting basis             ... AVAILABLE
   # of basis functions in Aux-J            ...   1180
   # of shells in Aux-J                     ...    388
   Maximum angular momentum in Aux-J        ...      4
Auxiliary J/K fitting basis                 ... NOT available
Auxiliary Correlation fitting basis         ... NOT available
Auxiliary 'external' fitting basis          ... NOT available
Integral threshold                          ...     2.500000e-11
Primitive cut-off                           ...     2.500000e-12
Primitive pair pre-selection threshold      ...     2.500000e-12

Calculating pre-screening integrals         ... done (  0.1 sec) Dimension = 175
Organizing shell pair data                  ... done (  0.1 sec)
Shell pair information
Total number of shell pairs                 ...     15400
Shell pairs after pre-screening             ...     10950
Total number of primitive shell pairs       ...     54591
Primitive shell pairs kept                  ...     24448
          la=0 lb=0:   4205 shell pairs
          la=1 lb=0:   3609 shell pairs
          la=1 lb=1:    718 shell pairs
          la=2 lb=0:   1483 shell pairs
          la=2 lb=1:    649 shell pairs
          la=2 lb=2:    145 shell pairs
          la=3 lb=0:     86 shell pairs
          la=3 lb=1:     37 shell pairs
          la=3 lb=2:     17 shell pairs
          la=3 lb=3:      1 shell pairs

Calculating one electron integrals          ... done (  0.1 sec)
Calculating ECP integrals                   ... done (  0.4 sec)
Calculating RI/J V-Matrix + Cholesky decomp.... done (  0.1 sec)
Calculating Nuclear repulsion               ... done (  0.0 sec) ENN=   1738.741754044483 Eh

SHARK setup successfully completed in   0.9 seconds

Maximum memory used throughout the entire GTOINT-calculation: 75.6 MB
-------------------------------------------------------------------------------
                                 ORCA SCF
-------------------------------------------------------------------------------

------------
SCF SETTINGS
------------
Hamiltonian:
 Density Functional     Method          .... DFT(GTOs)
 Exchange Functional    Exchange        .... PBE
   PBE kappa parameter   XKappa         ....  1.024500
   PBE mue parameter    XMuePBE         ....  0.123457
 Correlation Functional Correlation     .... PBE
   PBE beta parameter  CBetaPBE         ....  0.030000
 LDA part of GGA corr.  LDAOpt          .... PW91-LDA
 Gradients option       PostSCFGGA      .... off
 Hybrid DFT is turned on
   Fraction HF Exchange ScalHFX         ....  0.420000
   Scaling of DF-GGA-X  ScalDFX         ....  0.580000
   Scaling of DF-GGA-C  ScalDFC         ....  1.000000
   Scaling of DF-LDA-C  ScalLDAC        ....  1.000000
   Perturbative correction              ....  0.000000
   Density functional embedding theory  .... OFF
 RI-approximation to the Coulomb term is turned on
   Number of AuxJ basis functions       .... 1180
   RIJ-ON(X) (HFX calculated with O(N)) .... on
   Number of AuxJ basis functions       .... 1180
   RIJ-COSX (HFX calculated with COS-X)).... on


General Settings:
 Integral files         IntName         .... 1_8_orca
 Hartree-Fock type      HFTyp           .... RHF
 Total Charge           Charge          ....    0
 Multiplicity           Mult            ....    1
 Number of Electrons    NEL             ....  154
 Basis Dimension        Dim             ....  339
 Nuclear Repulsion      ENuc            ....   1738.7417540445 Eh

Convergence Acceleration:
 DIIS                   CNVDIIS         .... on
   Start iteration      DIISMaxIt       ....    12
   Startup error        DIISStart       ....  0.200000
   # of expansion vecs  DIISMaxEq       ....     5
   Bias factor          DIISBfac        ....   1.050
   Max. coefficient     DIISMaxC        ....  10.000
 Trust-Rad. Augm. Hess. CNVTRAH         .... auto
   Auto Start mean grad. ratio tolernc. ....  1.125000
   Auto Start start iteration           ....    20
   Auto Start num. interpolation iter.  ....    10
   Max. Number of Micro iterations      ....    16
   Max. Number of Macro iterations      .... Maxiter - #DIIS iter
   Number of Davidson start vectors     ....     2
   Converg. threshold I  (grad. norm)   ....   1.000e-05
   Converg. threshold II (energy diff.) ....   1.000e-08
   Grad. Scal. Fac. for Micro threshold ....   0.100
   Minimum threshold for Micro iter.    ....   0.010
   NR start threshold (gradient norm)   ....   0.001
   Initial trust radius                 ....   0.400
   Minimum AH scaling param. (alpha)    ....   1.000
   Maximum AH scaling param. (alpha)    .... 1000.000
   Orbital update algorithm             .... Taylor
   White noise on init. David. guess    .... on
   Maximum white noise                  ....   0.010
   Quad. conv. algorithm                .... NR
   COSX micro iterations for RIJONX calc.... off
 SOSCF                  CNVSOSCF        .... off
 Level Shifting         CNVShift        .... on
   Level shift para.    LevelShift      ....    0.2500
   Turn off err/grad.   ShiftErr        ....    0.0010
 Zerner damping         CNVZerner       .... off
 Static damping         CNVDamp         .... on
   Fraction old density DampFac         ....    0.7000
   Max. Damping (<1)    DampMax         ....    0.9800
   Min. Damping (>=0)   DampMin         ....    0.0000
   Turn off err/grad.   DampErr         ....    0.1000
 Fernandez-Rico         CNVRico         .... off

SCF Procedure:
 Maximum # iterations   MaxIter         ....   250
 SCF integral mode      SCFMode         .... Direct
   Integral package                     .... SHARK and LIBINT hybrid scheme
 Reset frequency        DirectResetFreq ....    20
 Integral Threshold     Thresh          ....  2.500e-11 Eh
 Primitive CutOff       TCut            ....  2.500e-12 Eh

Convergence Tolerance:
 Convergence Check Mode ConvCheckMode   .... Total+1el-Energy
 Convergence forced     ConvForced      .... 0
 Energy Change          TolE            ....  1.000e-08 Eh
 1-El. energy change                    ....  1.000e-05 Eh
 DIIS Error             TolErr          ....  5.000e-07


Diagonalization of the overlap matrix:
Smallest eigenvalue                        ... 9.342e-04
Time for diagonalization                   ...    0.018 sec
Threshold for overlap eigenvalues          ... 1.000e-08
Number of eigenvalues below threshold      ... 0
Time for construction of square roots      ...    0.009 sec
Total time needed                          ...    0.027 sec

--------------------------------
INITIAL GUESS: MINIMAL BASIS EHT
--------------------------------
The minimal basis has 122 functions
EHT matrix was diagonalized
Basis set overlap was calculated now projecting the orbitals
Using GuessMode=FMatrix for the initial guess
C*T matrix was formed
Effective Fockian was calculated
Effective Fockian was diagonalized
Initial density was built
                      ------------------
                      INITIAL GUESS DONE
                      ------------------
-------------------
DFT GRID GENERATION
-------------------

General Integration Accuracy     IntAcc      ... 4.159
Radial Grid Type                 RadialGrid  ... OptM3 with GC (2021)
Angular Grid (max. ang.)         AngularGrid ... 3 (Lebedev-194)
Angular grid pruning method      GridPruning ... 4 (adaptive)
Weight generation scheme         WeightScheme... Becke
Basis function cutoff            BFCut       ... 1.0000e-11
Integration weight cutoff        WCut        ... 1.0000e-14
Angular grids for H and He will be reduced by one unit
Partially contracted basis set               ... off
Rotationally invariant grid construction     ... off

Total number of grid points                  ...    89985
Total number of batches                      ...     1425
Average number of points per batch           ...       63
Average number of grid points per atom       ...     2368
Time for grid setup =    1.601 sec

--------------------
COSX GRID GENERATION
--------------------

GRIDX 1
-------
General Integration Accuracy     IntAcc      ... 3.816
Radial Grid Type                 RadialGrid  ... OptM3 with GC (2021)
Angular Grid (max. ang.)         AngularGrid ... 1 (Lebedev-50)
Angular grid pruning method      GridPruning ... 4 (adaptive)
Weight generation scheme         WeightScheme... Becke
Basis function cutoff            BFCut       ... 1.0000e-11
Integration weight cutoff        WCut        ... 1.0000e-14
Angular grids for H and He will be reduced by one unit
Partially contracted basis set               ... on
Rotationally invariant grid construction     ... off

Total number of grid points                  ...    22475
Total number of batches                      ...      373
Average number of points per batch           ...       60
Average number of grid points per atom       ...      591
UseSFitting                                  ... on

GRIDX 2
-------
General Integration Accuracy     IntAcc      ... 4.020
Radial Grid Type                 RadialGrid  ... OptM3 with GC (2021)
Angular Grid (max. ang.)         AngularGrid ... 2 (Lebedev-110)
Angular grid pruning method      GridPruning ... 4 (adaptive)
Weight generation scheme         WeightScheme... Becke
Basis function cutoff            BFCut       ... 1.0000e-11
Integration weight cutoff        WCut        ... 1.0000e-14
Angular grids for H and He will be reduced by one unit
Partially contracted basis set               ... on
Rotationally invariant grid construction     ... off

Total number of grid points                  ...    48266
Total number of batches                      ...      770
Average number of points per batch           ...       62
Average number of grid points per atom       ...     1270
UseSFitting                                  ... on

GRIDX 3
-------
General Integration Accuracy     IntAcc      ... 4.338
Radial Grid Type                 RadialGrid  ... OptM3 with GC (2021)
Angular Grid (max. ang.)         AngularGrid ... 3 (Lebedev-194)
Angular grid pruning method      GridPruning ... 4 (adaptive)
Weight generation scheme         WeightScheme... Becke
Basis function cutoff            BFCut       ... 1.0000e-11
Integration weight cutoff        WCut        ... 1.0000e-14
Angular grids for H and He will be reduced by one unit
Partially contracted basis set               ... on
Rotationally invariant grid construction     ... off

Total number of grid points                  ...   104467
Total number of batches                      ...     1651
Average number of points per batch           ...       63
Average number of grid points per atom       ...     2749
UseSFitting                                  ... on

Time for X-Grid setup             =    4.264 sec

--------------
SCF ITERATIONS
--------------
ITER       Energy         Delta-E        Max-DP      RMS-DP      [F,P]     Damp
               ***  Starting incremental Fock matrix formation  ***
  0   -977.4779624686   0.000000000000 2.46531762  0.01976249  5.2642782 0.7000
  1   -980.3723546663  -2.894392197686 0.48827429  0.00625940  3.8749193 0.7000
  2   -982.6817085720  -2.309353905644 0.48787176  0.00488046  2.7739331 0.7000
  3   -984.3281500125  -1.646441440523 0.40667286  0.00360319  1.9558651 0.7000
  4   -985.5523086586  -1.224158646110 0.29448038  0.00256776  1.3664807 0.7000
  5   -986.4317592301  -0.879450571510 0.20273526  0.00180499  0.9530691 0.7000
  6   -987.0585620881  -0.626802857995 0.13819119  0.00127096  0.6660301 0.7000
  7   -987.5036892244  -0.445127136270 0.09526304  0.00090131  0.4664427 0.7000
  8   -987.8187100714  -0.315020847000 0.06662980  0.00064311  0.3269559 0.7000
  9   -988.0410565913  -0.222346519908 0.04699223  0.00046062  0.2291226 0.7000
                               ***Turning on DIIS***
 10   -988.1976881076  -0.156631516321 0.03320267  0.00033069  0.1604466 0.7000
 11   -988.3078694030  -0.110181295430 0.02362347  0.00024415  0.1122814 0.7000
 12   -988.3853068744  -0.077437471406 0.05543383  0.00059628  0.0785314 0.0000
 13   -988.5671761354  -0.181869260996 0.00237178  0.00003864  0.0016380 0.0000
 14   -988.5672398609  -0.000063725485 0.00456121  0.00005336  0.0009162 0.0000
               *** Restarting incremental Fock matrix formation ***
                                   *** Resetting DIIS ***
 15   -988.5676851927  -0.000445331739 0.00205623  0.00002787  0.0004801 0.0000
 16   -988.5676911596  -0.000005966963 0.00070222  0.00000812  0.0003533 0.0000
 17   -988.5676929852  -0.000001825585 0.00125003  0.00000910  0.0002569 0.0000
 18   -988.5676944218  -0.000001436582 0.00058172  0.00000489  0.0001561 0.0000
 19   -988.5676947987  -0.000000376939 0.00067799  0.00000467  0.0000967 0.0000
 20   -988.5676950091  -0.000000210353 0.00024907  0.00000174  0.0000388 0.0000
 21   -988.5676950275  -0.000000018463 0.00006627  0.00000045  0.0000241 0.0000
 22   -988.5676950188   0.000000008734 0.00003427  0.00000021  0.0000096 0.0000
 23   -988.5676950104   0.000000008391 0.00001892  0.00000011  0.0000041 0.0000
 24   -988.5676950080   0.000000002370 0.00001080  0.00000006  0.0000022 0.0000
                 **** Energy Check signals convergence ****

               *****************************************************
               *                     SUCCESS                       *
               *           SCF CONVERGED AFTER  25 CYCLES          *
               *****************************************************

Old exchange energy                            =    -52.728536614 Eh
New exchange energy                            =    -52.728569031 Eh
Exchange energy change after final integration =     -0.000032417 Eh
Total energy after final integration           =   -988.567727417 Eh
Final COS-X integration done in                =    47.565 sec

----------------
TOTAL SCF ENERGY
----------------

Total Energy       :         -988.56772742 Eh          -26900.29545 eV

Components:
Nuclear Repulsion  :         1738.74175404 Eh           47313.56850 eV
Electronic Energy  :        -2727.30948146 Eh          -74213.86395 eV
One Electron Energy:        -4858.58235846 Eh         -132208.74734 eV
Two Electron Energy:         2131.27287699 Eh           57994.88339 eV
Max COSX asymmetry :            0.00002346 Eh               0.00064 eV

Virial components:
Potential Energy   :        -1890.90806720 Eh          -51454.22439 eV
Kinetic Energy     :          902.34033979 Eh           24553.92894 eV
Virial Ratio       :            2.09555972


DFT components:
N(Alpha)           :       76.999822828673 electrons
N(Beta)            :       76.999822828673 electrons
N(Total)           :      153.999645657346 electrons
E(X)               :      -70.304248997505 Eh       
E(C)               :       -6.921830601224 Eh       
E(XC)              :      -77.226079598729 Eh       
DFET-embed. en.    :        0.000000000000 Eh       

---------------
SCF CONVERGENCE
---------------

  Last Energy change         ...    7.3753e-09  Tolerance :   1.0000e-08
  Last MAX-Density change    ...    0.0000e+00  Tolerance :   1.0000e-07
  Last RMS-Density change    ...    0.0000e+00  Tolerance :   5.0000e-09
  Last DIIS Error            ...    1.1095e-06  Tolerance :   5.0000e-07

             **** THE GBW FILE WAS UPDATED (1_8_orca.gbw) ****
             **** DENSITY 1_8_orca.scfp WAS UPDATED ****
             **** ENERGY FILE WAS UPDATED (1_8_orca.en.tmp) ****
             **** THE GBW FILE WAS UPDATED (1_8_orca.gbw) ****
             **** DENSITY 1_8_orca.scfp WAS UPDATED ****
----------------
ORBITAL ENERGIES
----------------

  NO   OCC          E(Eh)            E(eV) 
   0   2.0000     -19.511372      -530.9314 
   1   2.0000     -19.508468      -530.8524 
   2   2.0000     -19.474300      -529.9227 
   3   2.0000     -19.436017      -528.8809 
   4   2.0000     -14.712462      -400.3464 
   5   2.0000     -10.584096      -288.0079 
   6   2.0000     -10.534226      -286.6509 
   7   2.0000     -10.494751      -285.5767 
   8   2.0000     -10.478967      -285.1472 
   9   2.0000     -10.475767      -285.0601 
  10   2.0000     -10.467291      -284.8295 
  11   2.0000     -10.460657      -284.6490 
  12   2.0000     -10.457759      -284.5701 
  13   2.0000     -10.455489      -284.5083 
  14   2.0000     -10.450992      -284.3860 
  15   2.0000     -10.446778      -284.2713 
  16   2.0000     -10.435642      -283.9683 
  17   2.0000     -10.417407      -283.4720 
  18   2.0000      -3.657824       -99.5344 
  19   2.0000      -2.307531       -62.7911 
  20   2.0000      -2.302302       -62.6488 
  21   2.0000      -2.266028       -61.6618 
  22   2.0000      -1.212555       -32.9953 
  23   2.0000      -1.149789       -31.2873 
  24   2.0000      -1.096203       -29.8292 
  25   2.0000      -1.066770       -29.0283 
  26   2.0000      -1.052362       -28.6362 
  27   2.0000      -0.980258       -26.6742 
  28   2.0000      -0.872027       -23.7291 
  29   2.0000      -0.861202       -23.4345 
  30   2.0000      -0.835638       -22.7389 
  31   2.0000      -0.816160       -22.2089 
  32   2.0000      -0.795436       -21.6449 
  33   2.0000      -0.791549       -21.5391 
  34   2.0000      -0.712190       -19.3797 
  35   2.0000      -0.692848       -18.8534 
  36   2.0000      -0.674367       -18.3505 
  37   2.0000      -0.625050       -17.0085 
  38   2.0000      -0.599323       -16.3084 
  39   2.0000      -0.589765       -16.0483 
  40   2.0000      -0.571946       -15.5634 
  41   2.0000      -0.563327       -15.3289 
  42   2.0000      -0.557256       -15.1637 
  43   2.0000      -0.556925       -15.1547 
  44   2.0000      -0.547804       -14.9065 
  45   2.0000      -0.534909       -14.5556 
  46   2.0000      -0.532735       -14.4965 
  47   2.0000      -0.518269       -14.1028 
  48   2.0000      -0.508967       -13.8497 
  49   2.0000      -0.497215       -13.5299 
  50   2.0000      -0.495581       -13.4854 
  51   2.0000      -0.489693       -13.3252 
  52   2.0000      -0.477400       -12.9907 
  53   2.0000      -0.469753       -12.7826 
  54   2.0000      -0.464001       -12.6261 
  55   2.0000      -0.454758       -12.3746 
  56   2.0000      -0.450093       -12.2476 
  57   2.0000      -0.445675       -12.1274 
  58   2.0000      -0.440818       -11.9953 
  59   2.0000      -0.434907       -11.8344 
  60   2.0000      -0.433211       -11.7883 
  61   2.0000      -0.419933       -11.4270 
  62   2.0000      -0.413874       -11.2621 
  63   2.0000      -0.400948       -10.9104 
  64   2.0000      -0.395381       -10.7589 
  65   2.0000      -0.386659       -10.5215 
  66   2.0000      -0.381835       -10.3903 
  67   2.0000      -0.363964        -9.9040 
  68   2.0000      -0.350211        -9.5297 
  69   2.0000      -0.344828        -9.3833 
  70   2.0000      -0.319086        -8.6828 
  71   2.0000      -0.314519        -8.5585 
  72   2.0000      -0.313278        -8.5247 
  73   2.0000      -0.307066        -8.3557 
  74   2.0000      -0.298873        -8.1327 
  75   2.0000      -0.291067        -7.9203 
  76   2.0000      -0.271739        -7.3944 
  77   0.0000      -0.037062        -1.0085 
  78   0.0000      -0.003654        -0.0994 
  79   0.0000       0.011754         0.3198 
  80   0.0000       0.035741         0.9726 
  81   0.0000       0.067217         1.8291 
  82   0.0000       0.081712         2.2235 
  83   0.0000       0.088599         2.4109 
  84   0.0000       0.095210         2.5908 
  85   0.0000       0.107719         2.9312 
  86   0.0000       0.133160         3.6235 
  87   0.0000       0.143906         3.9159 
  88   0.0000       0.161430         4.3927 
  89   0.0000       0.167502         4.5580 
  90   0.0000       0.183691         4.9985 
  91   0.0000       0.185369         5.0442 
  92   0.0000       0.190034         5.1711 
  93   0.0000       0.196212         5.3392 
  94   0.0000       0.197462         5.3732 
  95   0.0000       0.204776         5.5723 
  96   0.0000       0.206245         5.6122 
  97   0.0000       0.210070         5.7163 
  98   0.0000       0.214468         5.8360 
  99   0.0000       0.218498         5.9456 
 100   0.0000       0.222253         6.0478 
 101   0.0000       0.224246         6.1020 
 102   0.0000       0.230565         6.2740 
 103   0.0000       0.238365         6.4862 
 104   0.0000       0.239881         6.5275 
 105   0.0000       0.246569         6.7095 
 106   0.0000       0.251543         6.8448 
 107   0.0000       0.253407         6.8955 
 108   0.0000       0.267192         7.2707 
 109   0.0000       0.273421         7.4402 
 110   0.0000       0.274964         7.4822 
 111   0.0000       0.284274         7.7355 
 112   0.0000       0.315554         8.5866 
 113   0.0000       0.333454         9.0738 
 114   0.0000       0.342442         9.3183 
 115   0.0000       0.345421         9.3994 
 116   0.0000       0.352426         9.5900 
 117   0.0000       0.376262        10.2386 
 118   0.0000       0.399728        10.8772 
 119   0.0000       0.408563        11.1176 
 120   0.0000       0.409277        11.1370 
 121   0.0000       0.428428        11.6581 
 122   0.0000       0.437696        11.9103 
 123   0.0000       0.460073        12.5192 
 124   0.0000       0.472210        12.8495 
 125   0.0000       0.473587        12.8869 
 126   0.0000       0.496431        13.5086 
 127   0.0000       0.521705        14.1963 
 128   0.0000       0.526770        14.3341 
 129   0.0000       0.533260        14.5107 
 130   0.0000       0.545372        14.8403 
 131   0.0000       0.548509        14.9257 
 132   0.0000       0.548799        14.9336 
 133   0.0000       0.556154        15.1337 
 134   0.0000       0.565706        15.3936 
 135   0.0000       0.568746        15.4764 
 136   0.0000       0.578803        15.7500 
 137   0.0000       0.584454        15.9038 
 138   0.0000       0.589163        16.0319 
 139   0.0000       0.594444        16.1756 
 140   0.0000       0.600185        16.3319 
 141   0.0000       0.602988        16.4081 
 142   0.0000       0.613793        16.7021 
 143   0.0000       0.619028        16.8446 
 144   0.0000       0.621420        16.9097 
 145   0.0000       0.625831        17.0297 
 146   0.0000       0.636328        17.3154 
 147   0.0000       0.647389        17.6164 
 148   0.0000       0.658587        17.9211 
 149   0.0000       0.664272        18.0758 
 150   0.0000       0.675545        18.3825 
 151   0.0000       0.688377        18.7317 
 152   0.0000       0.692518        18.8444 
 153   0.0000       0.699848        19.0438 
 154   0.0000       0.726242        19.7621 
 155   0.0000       0.731114        19.8946 
 156   0.0000       0.754081        20.5196 
 157   0.0000       0.758327        20.6351 
 158   0.0000       0.767744        20.8914 
 159   0.0000       0.793149        21.5827 
 160   0.0000       0.828747        22.5513 
 161   0.0000       0.836670        22.7669 
 162   0.0000       0.848352        23.0848 
 163   0.0000       0.862525        23.4705 
 164   0.0000       0.870361        23.6837 
 165   0.0000       0.880120        23.9493 
 166   0.0000       0.903750        24.5923 
 167   0.0000       0.911478        24.8026 
 168   0.0000       0.927546        25.2398 
 169   0.0000       0.941666        25.6240 
 170   0.0000       0.943255        25.6673 
 171   0.0000       0.956226        26.0202 
 172   0.0000       0.970682        26.4136 
 173   0.0000       0.978423        26.6242 
 174   0.0000       0.984472        26.7889 
 175   0.0000       0.996579        27.1183 
 176   0.0000       1.002781        27.2871 
 177   0.0000       1.006684        27.3933 
 178   0.0000       1.010033        27.4844 
 179   0.0000       1.024147        27.8685 
 180   0.0000       1.033092        28.1119 
 181   0.0000       1.040892        28.3241 
 182   0.0000       1.046431        28.4748 
 183   0.0000       1.049526        28.5590 
 184   0.0000       1.057216        28.7683 
 185   0.0000       1.065926        29.0053 
 186   0.0000       1.070857        29.1395 
 187   0.0000       1.077551        29.3216 
 188   0.0000       1.085073        29.5263 
 189   0.0000       1.093581        29.7579 
 190   0.0000       1.100464        29.9451 
 191   0.0000       1.108641        30.1676 
 192   0.0000       1.110527        30.2190 
 193   0.0000       1.124454        30.5980 
 194   0.0000       1.136193        30.9174 
 195   0.0000       1.142748        31.0958 
 196   0.0000       1.159216        31.5439 
 197   0.0000       1.164682        31.6926 
 198   0.0000       1.171070        31.8664 
 199   0.0000       1.183417        32.2024 
 200   0.0000       1.212137        32.9839 
 201   0.0000       1.217880        33.1402 
 202   0.0000       1.233198        33.5570 
 203   0.0000       1.241085        33.7716 
 204   0.0000       1.258368        34.2419 
 205   0.0000       1.265439        34.4343 
 206   0.0000       1.291870        35.1536 
 207   0.0000       1.304210        35.4894 
 208   0.0000       1.323565        36.0160 
 209   0.0000       1.325554        36.0702 
 210   0.0000       1.347012        36.6541 
 211   0.0000       1.378827        37.5198 
 212   0.0000       1.396346        37.9965 
 213   0.0000       1.408737        38.3337 
 214   0.0000       1.453712        39.5575 
 215   0.0000       1.467779        39.9403 
 216   0.0000       1.468248        39.9531 
 217   0.0000       1.483355        40.3642 
 218   0.0000       1.513534        41.1854 
 219   0.0000       1.518180        41.3118 
 220   0.0000       1.524605        41.4866 
 221   0.0000       1.546089        42.0712 
 222   0.0000       1.550403        42.1886 
 223   0.0000       1.570783        42.7432 
 224   0.0000       1.588628        43.2288 
 225   0.0000       1.597704        43.4757 
 226   0.0000       1.632381        44.4193 
 227   0.0000       1.645170        44.7674 
 228   0.0000       1.729800        47.0702 
 229   0.0000       1.731559        47.1181 
 230   0.0000       1.748420        47.5769 
 231   0.0000       1.755132        47.7596 
 232   0.0000       1.784755        48.5656 
 233   0.0000       1.817387        49.4536 
 234   0.0000       1.831644        49.8416 
 235   0.0000       1.856761        50.5250 
 236   0.0000       1.864679        50.7405 
 237   0.0000       1.877257        51.0828 
 238   0.0000       1.882153        51.2160 
 239   0.0000       1.891307        51.4651 
 240   0.0000       1.908786        51.9407 
 241   0.0000       1.912495        52.0416 
 242   0.0000       1.944481        52.9120 
 243   0.0000       1.952359        53.1264 
 244   0.0000       1.976442        53.7817 
 245   0.0000       1.985119        54.0178 
 246   0.0000       2.001058        54.4516 
 247   0.0000       2.008535        54.6550 
 248   0.0000       2.017328        54.8943 
 249   0.0000       2.031624        55.2833 
 250   0.0000       2.035763        55.3959 
 251   0.0000       2.041373        55.5486 
 252   0.0000       2.047304        55.7100 
 253   0.0000       2.055738        55.9395 
 254   0.0000       2.063171        56.1418 
 255   0.0000       2.071222        56.3608 
 256   0.0000       2.075222        56.4697 
 257   0.0000       2.100636        57.1612 
 258   0.0000       2.120708        57.7074 
 259   0.0000       2.144149        58.3453 
 260   0.0000       2.149729        58.4971 
 261   0.0000       2.161369        58.8139 
 262   0.0000       2.171496        59.0894 
 263   0.0000       2.180861        59.3443 
 264   0.0000       2.185199        59.4623 
 265   0.0000       2.217061        60.3293 
 266   0.0000       2.225784        60.5667 
 267   0.0000       2.244814        61.0845 
 268   0.0000       2.246374        61.1270 
 269   0.0000       2.249796        61.2201 
 270   0.0000       2.281369        62.0792 
 271   0.0000       2.282815        62.1186 
 272   0.0000       2.297979        62.5312 
 273   0.0000       2.301626        62.6304 
 274   0.0000       2.303835        62.6905 
 275   0.0000       2.309107        62.8340 
 276   0.0000       2.322769        63.2057 
 277   0.0000       2.341448        63.7140 
 278   0.0000       2.354289        64.0635 
 279   0.0000       2.362117        64.2765 
 280   0.0000       2.393458        65.1293 
 281   0.0000       2.418226        65.8033 
 282   0.0000       2.428007        66.0694 
 283   0.0000       2.444560        66.5199 
 284   0.0000       2.452314        66.7309 
 285   0.0000       2.481212        67.5172 
 286   0.0000       2.486119        67.6507 
 287   0.0000       2.497879        67.9708 
 288   0.0000       2.500728        68.0483 
 289   0.0000       2.514576        68.4251 
 290   0.0000       2.540618        69.1337 
 291   0.0000       2.571244        69.9671 
 292   0.0000       2.586770        70.3896 
 293   0.0000       2.608157        70.9716 
 294   0.0000       2.627677        71.5027 
 295   0.0000       2.635203        71.7075 
 296   0.0000       2.661019        72.4100 
 297   0.0000       2.683051        73.0095 
 298   0.0000       2.728231        74.2389 
 299   0.0000       2.750600        74.8476 
 300   0.0000       2.769313        75.3568 
 301   0.0000       2.782440        75.7141 
 302   0.0000       2.785117        75.7869 
 303   0.0000       2.801510        76.2330 
 304   0.0000       2.816410        76.6384 
 305   0.0000       2.838683        77.2445 
 306   0.0000       2.853284        77.6418 
 307   0.0000       2.865949        77.9864 
 308   0.0000       2.876165        78.2644 
 309   0.0000       2.904782        79.0431 
 310   0.0000       2.908594        79.1469 
 311   0.0000       2.932139        79.7876 
 312   0.0000       3.010115        81.9094 
 313   0.0000       3.026359        82.3514 
 314   0.0000       3.057600        83.2015 
 315   0.0000       3.085261        83.9542 
 316   0.0000       3.153218        85.8034 
 317   0.0000       3.208213        87.2999 
 318   0.0000       3.237759        88.1039 
 319   0.0000       3.496285        95.1387 
 320   0.0000      13.289604       361.6285 
 321   0.0000      13.638338       371.1180 
 322   0.0000      13.659802       371.7021 
 323   0.0000      13.672859       372.0574 
 324   0.0000      13.710319       373.0767 
 325   0.0000      13.748296       374.1102 
 326   0.0000      13.867364       377.3502 
 327   0.0000      13.962996       379.9524 
 328   0.0000      14.068837       382.8325 
 329   0.0000      14.105280       383.8242 
 330   0.0000      14.117892       384.1674 
 331   0.0000      14.193453       386.2235 
 332   0.0000      14.535950       395.5433 
 333   0.0000      19.368647       527.0477 
 334   0.0000      25.698225       699.2843 
 335   0.0000      25.757094       700.8862 
 336   0.0000      25.804330       702.1715 
 337   0.0000      25.838783       703.1090 
 338   0.0000      51.621190      1404.6840 

                    ********************************
                    * MULLIKEN POPULATION ANALYSIS *
                    ********************************

-----------------------
MULLIKEN ATOMIC CHARGES
-----------------------
   0 Pd:    0.535169
   1 O :   -0.497342
   2 C :    0.682706
   3 O :   -0.499983
   4 C :   -0.771393
   5 H :    0.254048
   6 H :    0.264797
   7 H :    0.260772
   8 N :   -0.474000
   9 C :   -0.510088
  10 H :    0.278075
  11 H :    0.214780
  12 H :    0.268804
  13 C :   -0.520688
  14 H :    0.279285
  15 H :    0.216781
  16 H :    0.269980
  17 C :    0.084704
  18 C :   -0.284890
  19 C :   -0.187418
  20 C :   -0.254948
  21 C :   -0.211493
  22 C :   -0.223998
  23 H :    0.218361
  24 H :    0.223879
  25 H :    0.267157
  26 H :    0.230770
  27 H :    0.216148
  28 C :   -0.360534
  29 H :    0.230703
  30 H :    0.277473
  31 O :   -0.560610
  32 C :    0.558805
  33 O :   -0.445757
  34 C :   -0.742065
  35 H :    0.228326
  36 H :    0.245269
  37 H :    0.238413
Sum of atomic charges:   -0.0000000

--------------------------------
MULLIKEN REDUCED ORBITAL CHARGES
--------------------------------
  0 Pds       :     2.494543  s :     2.494543
      pz      :     2.078474  p :     6.347828
      px      :     2.125350
      py      :     2.144004
      dz2     :     1.955831  d :     8.616936
      dxz     :     1.808522
      dyz     :     1.959331
      dx2y2   :     1.516925
      dxy     :     1.376326
      f0      :     0.000555  f :     0.005525
      f+1     :     0.000367
      f-1     :     0.000462
      f+2     :     0.000612
      f-2     :     0.000865
      f+3     :     0.001091
      f-3     :     0.001572
  1 O s       :     3.829745  s :     3.829745
      pz      :     1.615806  p :     4.635131
      px      :     1.636856
      py      :     1.382469
      dz2     :     0.003875  d :     0.032466
      dxz     :     0.005411
      dyz     :     0.005739
      dx2y2   :     0.007292
      dxy     :     0.010148
  2 C s       :     2.965080  s :     2.965080
      pz      :     0.700580  p :     2.212576
      px      :     0.748722
      py      :     0.763274
      dz2     :     0.008582  d :     0.139638
      dxz     :     0.024622
      dyz     :     0.016329
      dx2y2   :     0.043021
      dxy     :     0.047084
  3 O s       :     3.818575  s :     3.818575
      pz      :     1.588218  p :     4.651893
      px      :     1.376769
      py      :     1.686905
      dz2     :     0.003690  d :     0.029515
      dxz     :     0.008859
      dyz     :     0.001469
      dx2y2   :     0.009658
      dxy     :     0.005839
  4 C s       :     3.429657  s :     3.429657
      pz      :     1.158954  p :     3.308704
      px      :     1.133385
      py      :     1.016365
      dz2     :     0.004867  d :     0.033032
      dxz     :     0.008242
      dyz     :     0.006340
      dx2y2   :     0.004907
      dxy     :     0.008676
  5 H s       :     0.745952  s :     0.745952
  6 H s       :     0.735203  s :     0.735203
  7 H s       :     0.739228  s :     0.739228
  8 N s       :     3.602476  s :     3.602476
      pz      :     1.173183  p :     3.824772
      px      :     1.466862
      py      :     1.184727
      dz2     :     0.010414  d :     0.046751
      dxz     :     0.007034
      dyz     :     0.011911
      dx2y2   :     0.006336
      dxy     :     0.011057
  9 C s       :     3.360250  s :     3.360250
      pz      :     0.818803  p :     3.101532
      px      :     1.128879
      py      :     1.153850
      dz2     :     0.013563  d :     0.048306
      dxz     :     0.006183
      dyz     :     0.012284
      dx2y2   :     0.006976
      dxy     :     0.009300
 10 H s       :     0.721925  s :     0.721925
 11 H s       :     0.785220  s :     0.785220
 12 H s       :     0.731196  s :     0.731196
 13 C s       :     3.359490  s :     3.359490
      pz      :     1.196613  p :     3.111724
      px      :     0.973162
      py      :     0.941949
      dz2     :     0.010530  d :     0.049474
      dxz     :     0.003101
      dyz     :     0.011824
      dx2y2   :     0.011263
      dxy     :     0.012757
 14 H s       :     0.720715  s :     0.720715
 15 H s       :     0.783219  s :     0.783219
 16 H s       :     0.730020  s :     0.730020
 17 C s       :     3.156065  s :     3.156065
      pz      :     0.837762  p :     2.712890
      px      :     0.898135
      py      :     0.976993
      dz2     :     0.012638  d :     0.046341
      dxz     :     0.013623
      dyz     :     0.006577
      dx2y2   :     0.007000
      dxy     :     0.006504
 18 C s       :     3.280199  s :     3.280199
      pz      :     0.976788  p :     2.965866
      px      :     1.015246
      py      :     0.973832
      dz2     :     0.010011  d :     0.038825
      dxz     :     0.011915
      dyz     :     0.007007
      dx2y2   :     0.003979
      dxy     :     0.005912
 19 C s       :     3.249073  s :     3.249073
      pz      :     0.936330  p :     2.898865
      px      :     0.972890
      py      :     0.989645
      dz2     :     0.009982  d :     0.039479
      dxz     :     0.012585
      dyz     :     0.006793
      dx2y2   :     0.004527
      dxy     :     0.005593
 20 C s       :     3.267686  s :     3.267686
      pz      :     1.074780  p :     2.947656
      px      :     0.920333
      py      :     0.952544
      dz2     :     0.012886  d :     0.039605
      dxz     :     0.009973
      dyz     :     0.003883
      dx2y2   :     0.006388
      dxy     :     0.006476
 21 C s       :     3.238355  s :     3.238355
      pz      :     0.932070  p :     2.929292
      px      :     0.992364
      py      :     1.004858
      dz2     :     0.009539  d :     0.043846
      dxz     :     0.017070
      dyz     :     0.008139
      dx2y2   :     0.005037
      dxy     :     0.004060
 22 C s       :     3.225123  s :     3.225123
      pz      :     0.928810  p :     2.950729
      px      :     1.028796
      py      :     0.993123
      dz2     :     0.011122  d :     0.048147
      dxz     :     0.013491
      dyz     :     0.011491
      dx2y2   :     0.003672
      dxy     :     0.008370
 23 H s       :     0.781639  s :     0.781639
 24 H s       :     0.776121  s :     0.776121
 25 H s       :     0.732843  s :     0.732843
 26 H s       :     0.769230  s :     0.769230
 27 H s       :     0.783852  s :     0.783852
 28 C s       :     3.331515  s :     3.331515
      pz      :     0.889080  p :     2.974557
      px      :     1.138289
      py      :     0.947189
      dz2     :     0.014454  d :     0.054462
      dxz     :     0.006153
      dyz     :     0.013484
      dx2y2   :     0.009284
      dxy     :     0.011087
 29 H s       :     0.769297  s :     0.769297
 30 H s       :     0.722527  s :     0.722527
 31 O s       :     3.820049  s :     3.820049
      pz      :     1.442675  p :     4.714458
      px      :     1.623533
      py      :     1.648250
      dz2     :     0.008821  d :     0.026102
      dxz     :     0.006250
      dyz     :     0.004920
      dx2y2   :     0.003053
      dxy     :     0.003058
 32 C s       :     2.965277  s :     2.965277
      pz      :     0.760014  p :     2.334178
      px      :     0.771088
      py      :     0.803076
      dz2     :     0.044189  d :     0.141740
      dxz     :     0.030000
      dyz     :     0.030361
      dx2y2   :     0.015605
      dxy     :     0.021584
 33 O s       :     3.776497  s :     3.776497
      pz      :     1.573028  p :     4.640844
      px      :     1.615858
      py      :     1.451957
      dz2     :     0.006123  d :     0.028416
      dxz     :     0.004617
      dyz     :     0.007855
      dx2y2   :     0.005289
      dxy     :     0.004533
 34 C s       :     3.412798  s :     3.412798
      pz      :     1.154314  p :     3.295622
      px      :     1.077691
      py      :     1.063617
      dz2     :     0.009564  d :     0.033646
      dxz     :     0.007573
      dyz     :     0.002479
      dx2y2   :     0.006287
      dxy     :     0.007743
 35 H s       :     0.771674  s :     0.771674
 36 H s       :     0.754731  s :     0.754731
 37 H s       :     0.761587  s :     0.761587


                     *******************************
                     * LOEWDIN POPULATION ANALYSIS *
                     *******************************

----------------------
LOEWDIN ATOMIC CHARGES
----------------------
   0 Pd:   -0.292005
   1 O :   -0.133768
   2 C :    0.210935
   3 O :   -0.172020
   4 C :   -0.376829
   5 H :    0.154098
   6 H :    0.166267
   7 H :    0.157493
   8 N :   -0.064759
   9 C :   -0.228568
  10 H :    0.156803
  11 H :    0.118160
  12 H :    0.152875
  13 C :   -0.233719
  14 H :    0.157595
  15 H :    0.119503
  16 H :    0.153433
  17 C :   -0.058172
  18 C :   -0.090302
  19 C :   -0.132803
  20 C :   -0.116622
  21 C :   -0.135911
  22 C :   -0.145249
  23 H :    0.133230
  24 H :    0.141505
  25 H :    0.162799
  26 H :    0.143427
  27 H :    0.141290
  28 C :   -0.109988
  29 H :    0.126778
  30 H :    0.158250
  31 O :   -0.206976
  32 C :    0.135932
  33 O :   -0.242108
  34 C :   -0.384570
  35 H :    0.140583
  36 H :    0.152386
  37 H :    0.141027

-------------------------------
LOEWDIN REDUCED ORBITAL CHARGES
-------------------------------
  0 Pds       :     2.502756  s :     2.502756
      pz      :     2.153954  p :     6.717427
      px      :     2.276376
      py      :     2.287098
      dz2     :     2.016815  d :     9.064209
      dxz     :     1.874239
      dyz     :     2.007727
      dx2y2   :     1.651026
      dxy     :     1.514402
      f0      :     0.000766  f :     0.007613
      f+1     :     0.000489
      f-1     :     0.000602
      f+2     :     0.000840
      f-2     :     0.001204
      f+3     :     0.001458
      f-3     :     0.002254
  1 O s       :     3.452816  s :     3.452816
      pz      :     1.575136  p :     4.617820
      px      :     1.623880
      py      :     1.418803
      dz2     :     0.008309  d :     0.063132
      dxz     :     0.007277
      dyz     :     0.009243
      dx2y2   :     0.016315
      dxy     :     0.021988
  2 C s       :     2.806465  s :     2.806465
      pz      :     0.728027  p :     2.673482
      px      :     0.956095
      py      :     0.989360
      dz2     :     0.020415  d :     0.309118
      dxz     :     0.051425
      dyz     :     0.031896
      dx2y2   :     0.096357
      dxy     :     0.109025
  3 O s       :     3.472134  s :     3.472134
      pz      :     1.558332  p :     4.644017
      px      :     1.449302
      py      :     1.636382
      dz2     :     0.006869  d :     0.055868
      dxz     :     0.012945
      dyz     :     0.002848
      dx2y2   :     0.020970
      dxy     :     0.012236
  4 C s       :     2.959729  s :     2.959729
      pz      :     1.144039  p :     3.355691
      px      :     1.129256
      py      :     1.082396
      dz2     :     0.008284  d :     0.061409
      dxz     :     0.014030
      dyz     :     0.011950
      dx2y2   :     0.009989
      dxy     :     0.017156
  5 H s       :     0.845902  s :     0.845902
  6 H s       :     0.833733  s :     0.833733
  7 H s       :     0.842507  s :     0.842507
  8 N s       :     3.113038  s :     3.113038
      pz      :     1.203114  p :     3.847261
      px      :     1.423615
      py      :     1.220532
      dz2     :     0.024477  d :     0.104459
      dxz     :     0.013901
      dyz     :     0.028329
      dx2y2   :     0.014239
      dxy     :     0.023513
  9 C s       :     2.946238  s :     2.946238
      pz      :     0.926799  p :     3.189673
      px      :     1.130380
      py      :     1.132495
      dz2     :     0.028158  d :     0.092656
      dxz     :     0.013447
      dyz     :     0.024400
      dx2y2   :     0.011024
      dxy     :     0.015628
 10 H s       :     0.843197  s :     0.843197
 11 H s       :     0.881840  s :     0.881840
 12 H s       :     0.847125  s :     0.847125
 13 C s       :     2.941325  s :     2.941325
      pz      :     1.155344  p :     3.196878
      px      :     1.032246
      py      :     1.009288
      dz2     :     0.018788  d :     0.095516
      dxz     :     0.005406
      dyz     :     0.021276
      dx2y2   :     0.023571
      dxy     :     0.026475
 14 H s       :     0.842405  s :     0.842405
 15 H s       :     0.880497  s :     0.880497
 16 H s       :     0.846567  s :     0.846567
 17 C s       :     2.835590  s :     2.835590
      pz      :     1.032793  p :     3.110331
      px      :     1.071723
      py      :     1.005815
      dz2     :     0.033072  d :     0.112251
      dxz     :     0.033246
      dyz     :     0.014246
      dx2y2   :     0.016321
      dxy     :     0.015366
 18 C s       :     2.904842  s :     2.904842
      pz      :     1.082653  p :     3.100108
      px      :     1.039921
      py      :     0.977534
      dz2     :     0.024710  d :     0.085353
      dxz     :     0.028342
      dyz     :     0.014479
      dx2y2   :     0.007351
      dxy     :     0.010470
 19 C s       :     2.898353  s :     2.898353
      pz      :     1.089913  p :     3.144961
      px      :     1.063778
      py      :     0.991270
      dz2     :     0.026208  d :     0.089488
      dxz     :     0.030086
      dyz     :     0.014961
      dx2y2   :     0.008593
      dxy     :     0.009640
 20 C s       :     2.904740  s :     2.904740
      pz      :     1.075020  p :     3.123963
      px      :     1.071348
      py      :     0.977594
      dz2     :     0.026616  d :     0.087919
      dxz     :     0.024464
      dyz     :     0.007655
      dx2y2   :     0.014399
      dxy     :     0.014785
 21 C s       :     2.872634  s :     2.872634
      pz      :     1.101309  p :     3.160730
      px      :     1.056464
      py      :     1.002957
      dz2     :     0.024832  d :     0.102547
      dxz     :     0.042398
      dyz     :     0.018451
      dx2y2   :     0.008693
      dxy     :     0.008173
 22 C s       :     2.841506  s :     2.841506
      pz      :     1.115305  p :     3.187296
      px      :     1.069090
      py      :     1.002902
      dz2     :     0.031338  d :     0.116447
      dxz     :     0.036278
      dyz     :     0.026209
      dx2y2   :     0.007999
      dxy     :     0.014623
 23 H s       :     0.866770  s :     0.866770
 24 H s       :     0.858495  s :     0.858495
 25 H s       :     0.837201  s :     0.837201
 26 H s       :     0.856573  s :     0.856573
 27 H s       :     0.858710  s :     0.858710
 28 C s       :     2.897489  s :     2.897489
      pz      :     1.004714  p :     3.101930
      px      :     1.101163
      py      :     0.996053
      dz2     :     0.030893  d :     0.110568
      dxz     :     0.012430
      dyz     :     0.029371
      dx2y2   :     0.016947
      dxy     :     0.020928
 29 H s       :     0.873222  s :     0.873222
 30 H s       :     0.841750  s :     0.841750
 31 O s       :     3.457601  s :     3.457601
      pz      :     1.482289  p :     4.694074
      px      :     1.599395
      py      :     1.612390
      dz2     :     0.017784  d :     0.055301
      dxz     :     0.015103
      dyz     :     0.010362
      dx2y2   :     0.006101
      dxy     :     0.005951
 32 C s       :     2.811218  s :     2.811218
      pz      :     0.925898  p :     2.730735
      px      :     0.862694
      py      :     0.942142
      dz2     :     0.104263  d :     0.322115
      dxz     :     0.065685
      dyz     :     0.071562
      dx2y2   :     0.031762
      dxy     :     0.048842
 33 O s       :     3.502276  s :     3.502276
      pz      :     1.591652  p :     4.685513
      px      :     1.594615
      py      :     1.499246
      dz2     :     0.010641  d :     0.054319
      dxz     :     0.007138
      dyz     :     0.018931
      dx2y2   :     0.009251
      dxy     :     0.008358
 34 C s       :     2.966325  s :     2.966325
      pz      :     1.138884  p :     3.356241
      px      :     1.113107
      py      :     1.104250
      dz2     :     0.016969  d :     0.062003
      dxz     :     0.013018
      dyz     :     0.004184
      dx2y2   :     0.011863
      dxy     :     0.015970
 35 H s       :     0.859417  s :     0.859417
 36 H s       :     0.847614  s :     0.847614
 37 H s       :     0.858973  s :     0.858973


                      *****************************
                      * MAYER POPULATION ANALYSIS *
                      *****************************

  NA   - Mulliken gross atomic population
  ZA   - Total nuclear charge
  QA   - Mulliken gross atomic charge
  VA   - Mayer's total valence
  BVA  - Mayer's bonded valence
  FA   - Mayer's free valence

  ATOM       NA         ZA         QA         VA         BVA        FA
  0 Pd    17.4648    18.0000     0.5352     2.3907     2.3907    -0.0000
  1 O      8.4973     8.0000    -0.4973     2.1599     2.1599    -0.0000
  2 C      5.3173     6.0000     0.6827     3.8303     3.8303    -0.0000
  3 O      8.5000     8.0000    -0.5000     2.1516     2.1516     0.0000
  4 C      6.7714     6.0000    -0.7714     3.6802     3.6802    -0.0000
  5 H      0.7460     1.0000     0.2540     0.8993     0.8993    -0.0000
  6 H      0.7352     1.0000     0.2648     0.8941     0.8941    -0.0000
  7 H      0.7392     1.0000     0.2608     0.8981     0.8981    -0.0000
  8 N      7.4740     7.0000    -0.4740     3.1580     3.1580    -0.0000
  9 C      6.5101     6.0000    -0.5101     3.6226     3.6226    -0.0000
 10 H      0.7219     1.0000     0.2781     0.8951     0.8951     0.0000
 11 H      0.7852     1.0000     0.2148     0.9097     0.9097    -0.0000
 12 H      0.7312     1.0000     0.2688     0.9015     0.9015    -0.0000
 13 C      6.5207     6.0000    -0.5207     3.6139     3.6139    -0.0000
 14 H      0.7207     1.0000     0.2793     0.8917     0.8917    -0.0000
 15 H      0.7832     1.0000     0.2168     0.9134     0.9134    -0.0000
 16 H      0.7300     1.0000     0.2700     0.8955     0.8955    -0.0000
 17 C      5.9153     6.0000     0.0847     3.7267     3.7267     0.0000
 18 C      6.2849     6.0000    -0.2849     3.8184     3.8184     0.0000
 19 C      6.1874     6.0000    -0.1874     3.7941     3.7941    -0.0000
 20 C      6.2549     6.0000    -0.2549     3.8285     3.8285     0.0000
 21 C      6.2115     6.0000    -0.2115     3.8123     3.8123    -0.0000
 22 C      6.2240     6.0000    -0.2240     3.7942     3.7942     0.0000
 23 H      0.7816     1.0000     0.2184     0.9140     0.9140     0.0000
 24 H      0.7761     1.0000     0.2239     0.9059     0.9059    -0.0000
 25 H      0.7328     1.0000     0.2672     0.9030     0.9030    -0.0000
 26 H      0.7692     1.0000     0.2308     0.9093     0.9093     0.0000
 27 H      0.7839     1.0000     0.2161     0.9000     0.9000     0.0000
 28 C      6.3605     6.0000    -0.3605     3.6160     3.6160    -0.0000
 29 H      0.7693     1.0000     0.2307     0.9001     0.9001     0.0000
 30 H      0.7225     1.0000     0.2775     0.8935     0.8935    -0.0000
 31 O      8.5606     8.0000    -0.5606     2.0652     2.0652    -0.0000
 32 C      5.4412     6.0000     0.5588     4.0430     4.0430     0.0000
 33 O      8.4458     8.0000    -0.4458     2.1409     2.1409     0.0000
 34 C      6.7421     6.0000    -0.7421     3.6973     3.6973     0.0000
 35 H      0.7717     1.0000     0.2283     0.9100     0.9100    -0.0000
 36 H      0.7547     1.0000     0.2453     0.9035     0.9035     0.0000
 37 H      0.7616     1.0000     0.2384     0.9056     0.9056    -0.0000

  Mayer bond orders larger than 0.100000
B(  0-Pd,  1-O ) :   0.5899 B(  0-Pd,  3-O ) :   0.4932 B(  0-Pd,  8-N ) :   0.3927 
B(  0-Pd, 31-O ) :   0.6439 B(  0-Pd, 33-O ) :   0.1114 B(  1-O ,  2-C ) :   1.3901 
B(  1-O ,  3-O ) :   0.1049 B(  2-C ,  3-O ) :   1.4841 B(  2-C ,  4-C ) :   0.9557 
B(  4-C ,  5-H ) :   0.9081 B(  4-C ,  6-H ) :   0.8994 B(  4-C ,  7-H ) :   0.9066 
B(  8-N ,  9-C ) :   0.9215 B(  8-N , 13-C ) :   0.9265 B(  8-N , 28-C ) :   0.8980 
B(  9-C , 10-H ) :   0.8998 B(  9-C , 11-H ) :   0.9036 B(  9-C , 12-H ) :   0.9025 
B( 13-C , 14-H ) :   0.8936 B( 13-C , 15-H ) :   0.9046 B( 13-C , 16-H ) :   0.9037 
B( 17-C , 18-C ) :   1.3963 B( 17-C , 22-C ) :   1.3931 B( 17-C , 28-C ) :   0.9518 
B( 18-C , 19-C ) :   1.4175 B( 18-C , 25-H ) :   0.8928 B( 19-C , 20-C ) :   1.4374 
B( 19-C , 26-H ) :   0.9151 B( 20-C , 21-C ) :   1.4022 B( 20-C , 23-H ) :   0.9187 
B( 21-C , 22-C ) :   1.4475 B( 21-C , 24-H ) :   0.9162 B( 22-C , 27-H ) :   0.9165 
B( 28-C , 29-H ) :   0.9041 B( 28-C , 30-H ) :   0.8996 B( 31-O , 32-C ) :   1.2363 
B( 32-C , 33-O ) :   1.8855 B( 32-C , 34-C ) :   0.9330 B( 34-C , 35-H ) :   0.9175 
B( 34-C , 36-H ) :   0.9122 B( 34-C , 37-H ) :   0.9187 


------------------
HIRSHFELD ANALYSIS
------------------

Total integrated alpha density =     76.999822830
Total integrated beta density  =     76.999822830

  ATOM     CHARGE      SPIN    
   0 Pd   0.594844    0.000000
   1 O   -0.299376    0.000000
   2 C    0.216298    0.000000
   3 O   -0.322254    0.000000
   4 C   -0.066278    0.000000
   5 H    0.048064    0.000000
   6 H    0.056460    0.000000
   7 H    0.050960    0.000000
   8 N   -0.082377    0.000000
   9 C   -0.019356    0.000000
  10 H    0.047686    0.000000
  11 H    0.029992    0.000000
  12 H    0.047814    0.000000
  13 C   -0.028829    0.000000
  14 H    0.041224    0.000000
  15 H    0.031696    0.000000
  16 H    0.043845    0.000000
  17 C   -0.006289    0.000000
  18 C   -0.033695    0.000000
  19 C   -0.041125    0.000000
  20 C   -0.033519    0.000000
  21 C   -0.040499    0.000000
  22 C   -0.057868    0.000000
  23 H    0.041206    0.000000
  24 H    0.048152    0.000000
  25 H    0.045634    0.000000
  26 H    0.054103    0.000000
  27 H    0.036444    0.000000
  28 C    0.008233    0.000000
  29 H    0.026897    0.000000
  30 H    0.045803    0.000000
  31 O   -0.341779    0.000000
  32 C    0.194211    0.000000
  33 O   -0.367424    0.000000
  34 C   -0.082833    0.000000
  35 H    0.035362    0.000000
  36 H    0.044082    0.000000
  37 H    0.034845    0.000000

  TOTAL   0.000354    0.000000

-------
TIMINGS
-------

Total SCF time: 0 days 0 hours 7 min 49 sec 

Total time                  ....     469.848 sec
Sum of individual times     ....     469.322 sec  ( 99.9%)

Fock matrix formation       ....     461.172 sec  ( 98.2%)
  Split-RI-J                ....      45.186 sec  (  9.8% of F)
  Chain of spheres X        ....     377.167 sec  ( 81.8% of F)
  XC integration            ....      38.714 sec  (  8.4% of F)
    Basis function eval.    ....      16.640 sec  ( 43.0% of XC)
    Density eval.           ....       9.295 sec  ( 24.0% of XC)
    XC-Functional eval.     ....       2.989 sec  (  7.7% of XC)
    XC-Potential eval.      ....       8.542 sec  ( 22.1% of XC)
Diagonalization             ....       0.569 sec  (  0.1%)
Density matrix formation    ....       0.080 sec  (  0.0%)
Population analysis         ....       1.374 sec  (  0.3%)
Initial guess               ....       0.058 sec  (  0.0%)
Orbital Transformation      ....       0.000 sec  (  0.0%)
Orbital Orthonormalization  ....       0.000 sec  (  0.0%)
DIIS solution               ....       0.203 sec  (  0.0%)
Grid generation             ....       5.865 sec  (  1.2%)

Maximum memory used throughout the entire SCF-calculation: 154.6 MB


-------------------------------------------------------------------------------
                          DFT DISPERSION CORRECTION                            
                                                                               
                              DFTD3 V3.1  Rev 1                                
                          USING Becke-Johnson damping                          
-------------------------------------------------------------------------------
The PBEh-3c composite method is recognized
Using three-body term ABC
Active option DFTDOPT                   ...         4   

molecular C6(AA) [au] = 16170.719170 


            DFT-D V3
 parameters
 s6 scaling factor         :     1.0000 
 a1 scaling factor         :     0.4860 
 s8 scaling factor         :     0.0000 
 a2 scaling factor         :     4.5000 
 Damping factor alpha9(ATM):    16.0000 
 ad hoc parameters k1-k3   :    16.0000     1.3333    -4.0000 

 Edisp/kcal,au: -16.307331140647  -0.025987383578 
 E6   /kcal   : -16.516539441 
 E8   /kcal   :  -0.000000000 
 E6(ABC)      :   0.209208300 
 % E8         :   0.000000000 
 % E6(ABC)    :  -1.282909501 

-------------------------   ----------------
Dispersion correction           -0.025987384
-------------------------   ----------------

 ** NOTE ** -> element pd will be treated as ni
------------------   -----------------
gCP correction             0.075867486
------------------   -----------------

-------------------------   --------------------
FINAL SINGLE POINT ENERGY      -988.517847315355
-------------------------   --------------------

------------------------------------------------------------------------------
                         ORCA SCF GRADIENT CALCULATION
------------------------------------------------------------------------------

 ... reading COSX grid (gridx3)
Gradient of the Kohn-Sham DFT energy:
Kohn-Sham wavefunction type      ... RKS
Hartree-Fock exchange scaling    ...    0.420
Number of operators              ...    1
Number of atoms                  ...   38
Basis set dimensions             ...  339
Integral neglect threshold       ... 2.5e-11
Integral primitive cutoff        ... 2.5e-12
SHARK Integral package           ... ON

Nuc. rep. gradient       (SHARK) ... done (  0.0 sec)
HCore & Overlap gradient (SHARK) ... done (  1.5 sec)
ECP gradient             (SHARK) ... done (  2.2 sec)
RI-J gradient            (SHARK) ... done (  6.9 sec)
COSX-gradient                    ... done ( 60.0 sec)
Exchange-correlation gradient    ... done
Dispersion correction            ... done
gCP correction                   ... done

------------------
CARTESIAN GRADIENT
------------------

   1   Pd  :    0.034504851    0.017873314    0.013660112
   2   O   :   -0.008056403   -0.019925885   -0.003189712
   3   C   :   -0.009489427   -0.003177692   -0.002751626
   4   O   :   -0.010101751    0.006445451   -0.003702381
   5   C   :    0.003358493    0.002435571    0.000783990
   6   H   :   -0.000779694    0.003498564    0.001268757
   7   H   :    0.001470378    0.002884016   -0.001829793
   8   H   :    0.004684914    0.002366452    0.002500386
   9   N   :   -0.010052262    0.005841962   -0.018000763
  10   C   :   -0.001711403   -0.003469183   -0.010908369
  11   H   :   -0.001294984    0.000744607    0.003907296
  12   H   :   -0.000677361    0.002486926    0.004174197
  13   H   :    0.003058977   -0.004101949   -0.001332953
  14   C   :   -0.005625292    0.003668794    0.000477625
  15   H   :    0.001167500   -0.000040038    0.003726859
  16   H   :    0.001897381   -0.002980834   -0.000179731
  17   H   :    0.004093432   -0.005841785   -0.000970442
  18   C   :   -0.108325935    0.054799780    0.037959976
  19   C   :   -0.010238301    0.003899641    0.003667493
  20   C   :    0.023686534    0.008508033    0.013698369
  21   C   :   -0.002502942   -0.019818160   -0.019033578
  22   C   :   -0.042368373    0.039506090   -0.132897610
  23   C   :    0.013285248   -0.024798492    0.056294373
  24   H   :    0.007733615    0.003480449    0.012040320
  25   H   :    0.007288144   -0.017170376    0.001454580
  26   H   :    0.020163700   -0.013786850   -0.002469507
  27   H   :    0.004074455   -0.007585755    0.004968678
  28   H   :    0.063730416   -0.022154946    0.038389095
  29   C   :    0.010577443   -0.001650285   -0.000233732
  30   H   :    0.004449012    0.000240989    0.008104895
  31   H   :    0.001614498   -0.008774318   -0.006307477
  32   O   :   -0.001306355   -0.004032677    0.000896213
  33   C   :   -0.000482788    0.003932660   -0.005589137
  34   O   :   -0.003961650    0.005354504   -0.002007144
  35   C   :    0.005411684   -0.005351629    0.001635510
  36   H   :   -0.000420921   -0.004010799   -0.000023688
  37   H   :    0.003214211    0.000058860    0.001006838
  38   H   :   -0.002565447    0.002628358    0.001788408

Difference to translation invariance:
           :   -0.0004964022    0.0019833713    0.0009763237

Difference to rotation invariance:
           :   -0.0023271374   -0.0008926828    0.0061970836

Norm of the cartesian gradient     ...    0.2323940652
RMS gradient                       ...    0.0217656984
MAX gradient                       ...    0.1328976099

-------
TIMINGS
-------

Total SCF gradient time            ...       83.464 sec

One electron gradient       ....       3.774 sec  (  4.5%)
RI-J Coulomb gradient       ....       6.896 sec  (  8.3%)
COSX gradient               ....      59.979 sec  ( 71.9%)
XC gradient                 ....      11.169 sec  ( 13.4%)

Maximum memory used throughout the entire SCFGRAD-calculation: 122.5 MB

                            ***************************************
                            *     ORCA property calculations      *
                            ***************************************

                                    ---------------------
                                    Active property flags
                                    ---------------------
   (+) Dipole Moment


------------------------------------------------------------------------------
                       ORCA ELECTRIC PROPERTIES CALCULATION
------------------------------------------------------------------------------

Dipole Moment Calculation                       ... on
Quadrupole Moment Calculation                   ... off
Polarizability Calculation                      ... off
GBWName                                         ... 1_8_orca.gbw
Electron density                                ... 1_8_orca.scfp
The origin for moment calculation is the CENTER OF MASS  = ( 0.660507,  0.442364 -0.229906)

-------------
DIPOLE MOMENT
-------------
                                X             Y             Z
Electronic contribution:     36.87842      33.42947     -27.89445
Nuclear contribution   :    -38.36799     -33.41120      28.72128
                        -----------------------------------------
Total Dipole Moment    :     -1.48957       0.01827       0.82683
                        -----------------------------------------
Magnitude (a.u.)       :      1.70376
Magnitude (Debye)      :      4.33061



--------------------
Rotational spectrum 
--------------------
 
Rotational constants in cm-1:     0.013405     0.008292     0.007076 
Rotational constants in MHz :   401.871851   248.588017   212.130828 

 Dipole components along the rotational axes: 
x,y,z [a.u.] :     1.564896     0.046768     0.672093 
x,y,z [Debye]:     3.977650     0.118876     1.708326 

 

Timings for individual modules:

Sum of individual times         ...      554.337 sec (=   9.239 min)
GTO integral calculation        ...        0.955 sec (=   0.016 min)   0.2 %
SCF iterations                  ...      469.886 sec (=   7.831 min)  84.8 %
SCF Gradient evaluation         ...       83.497 sec (=   1.392 min)  15.1 %
                             ****ORCA TERMINATED NORMALLY****
TOTAL RUN TIME: 0 days 0 hours 9 minutes 14 seconds 864 msec
