
                                 *****************
                                 * O   R   C   A *
                                 *****************

                                            #,                                       
                                            ###                                      
                                            ####                                     
                                            #####                                    
                                            ######                                   
                                           ########,                                 
                                     ,,################,,,,,                         
                               ,,#################################,,                 
                          ,,##########################################,,             
                       ,#########################################, ''#####,          
                    ,#############################################,,   '####,        
                  ,##################################################,,,,####,       
                ,###########''''           ''''###############################       
              ,#####''   ,,,,##########,,,,          '''####'''          '####       
            ,##' ,,,,###########################,,,                        '##       
           ' ,,###''''                  '''############,,,                           
         ,,##''                                '''############,,,,        ,,,,,,###''
      ,#''                                            '''#######################'''  
     '                                                          ''''####''''         
             ,#######,   #######,   ,#######,      ##                                
            ,#'     '#,  ##    ##  ,#'     '#,    #''#        ######   ,####,        
            ##       ##  ##   ,#'  ##            #'  '#       #        #'  '#        
            ##       ##  #######   ##           ,######,      #####,   #    #        
            '#,     ,#'  ##    ##  '#,     ,#' ,#      #,         ##   #,  ,#        
             '#######'   ##     ##  '#######'  #'      '#     #####' # '####'        



                  #######################################################
                  #                        -***-                        #
                  #          Department of theory and spectroscopy      #
                  #    Directorship and core code : Frank Neese         #
                  #        Max Planck Institute fuer Kohlenforschung    #
                  #                Kaiser Wilhelm Platz 1               #
                  #                 D-45470 Muelheim/Ruhr               #
                  #                      Germany                        #
                  #                                                     #
                  #                  All rights reserved                #
                  #                        -***-                        #
                  #######################################################


                         Program Version 5.0.3 -  RELEASE  -


 With contributions from (in alphabetic order):
   Daniel Aravena         : Magnetic Suceptibility
   Michael Atanasov       : Ab Initio Ligand Field Theory (pilot matlab implementation)
   Alexander A. Auer      : GIAO ZORA, VPT2 properties, NMR spectrum
   Ute Becker             : Parallelization
   Giovanni Bistoni       : ED, misc. LED, open-shell LED, HFLD
   Martin Brehm           : Molecular dynamics
   Dmytro Bykov           : SCF Hessian
   Vijay G. Chilkuri      : MRCI spin determinant printing, contributions to CSF-ICE
   Dipayan Datta          : RHF DLPNO-CCSD density
   Achintya Kumar Dutta   : EOM-CC, STEOM-CC
   Dmitry Ganyushin       : Spin-Orbit,Spin-Spin,Magnetic field MRCI
   Miquel Garcia          : C-PCM and meta-GGA Hessian, CC/C-PCM, Gaussian charge scheme
   Yang Guo               : DLPNO-NEVPT2, F12-NEVPT2, CIM, IAO-localization
   Andreas Hansen         : Spin unrestricted coupled pair/coupled cluster methods
   Benjamin Helmich-Paris : MC-RPA, TRAH-SCF, COSX integrals
   Lee Huntington         : MR-EOM, pCC
   Robert Izsak           : Overlap fitted RIJCOSX, COSX-SCS-MP3, EOM
   Marcus Kettner         : VPT2
   Christian Kollmar      : KDIIS, OOCD, Brueckner-CCSD(T), CCSD density, CASPT2, CASPT2-K
   Simone Kossmann        : Meta GGA functionals, TD-DFT gradient, OOMP2, MP2 Hessian
   Martin Krupicka        : Initial AUTO-CI
   Lucas Lang             : DCDCAS
   Marvin Lechner         : AUTO-CI (C++ implementation), FIC-MRCC
   Dagmar Lenk            : GEPOL surface, SMD
   Dimitrios Liakos       : Extrapolation schemes; Compound Job, initial MDCI parallelization
   Dimitrios Manganas     : Further ROCIS development; embedding schemes
   Dimitrios Pantazis     : SARC Basis sets
   Anastasios Papadopoulos: AUTO-CI, single reference methods and gradients
   Taras Petrenko         : DFT Hessian,TD-DFT gradient, ASA, ECA, R-Raman, ABS, FL, XAS/XES, NRVS
   Peter Pinski           : DLPNO-MP2, DLPNO-MP2 Gradient
   Christoph Reimann      : Effective Core Potentials
   Marius Retegan         : Local ZFS, SOC
   Christoph Riplinger    : Optimizer, TS searches, QM/MM, DLPNO-CCSD(T), (RO)-DLPNO pert. Triples
   Tobias Risthaus        : Range-separated hybrids, TD-DFT gradient, RPA, STAB
   Michael Roemelt        : Original ROCIS implementation
   Masaaki Saitow         : Open-shell DLPNO-CCSD energy and density
   Barbara Sandhoefer     : DKH picture change effects
   Avijit Sen             : IP-ROCIS
   Kantharuban Sivalingam : CASSCF convergence, NEVPT2, FIC-MRCI
   Bernardo de Souza      : ESD, SOC TD-DFT
   Georgi Stoychev        : AutoAux, RI-MP2 NMR, DLPNO-MP2 response
   Willem Van den Heuvel  : Paramagnetic NMR
   Boris Wezisla          : Elementary symmetry handling
   Frank Wennmohs         : Technical directorship


 We gratefully acknowledge several colleagues who have allowed us to
 interface, adapt or use parts of their codes:
   Stefan Grimme, W. Hujo, H. Kruse, P. Pracht,  : VdW corrections, initial TS optimization,
                  C. Bannwarth, S. Ehlert          DFT functionals, gCP, sTDA/sTD-DF
   Ed Valeev, F. Pavosevic, A. Kumar             : LibInt (2-el integral package), F12 methods
   Garnet Chan, S. Sharma, J. Yang, R. Olivares  : DMRG
   Ulf Ekstrom                                   : XCFun DFT Library
   Mihaly Kallay                                 : mrcc  (arbitrary order and MRCC methods)
   Jiri Pittner, Ondrej Demel                    : Mk-CCSD
   Frank Weinhold                                : gennbo (NPA and NBO analysis)
   Christopher J. Cramer and Donald G. Truhlar   : smd solvation model
   Lars Goerigk                                  : TD-DFT with DH, B97 family of functionals
   V. Asgeirsson, H. Jonsson                     : NEB implementation
   FAccTs GmbH                                   : IRC, NEB, NEB-TS, DLPNO-Multilevel, CI-OPT
                                                   MM, QMMM, 2- and 3-layer-ONIOM, Crystal-QMMM,
                                                   LR-CPCM, SF, NACMEs, symmetry and pop. for TD-DFT,
                                                   nearIR, NL-DFT gradient (VV10), updates on ESD,
                                                   ML-optimized integration grids
   S Lehtola, MJT Oliveira, MAL Marques          : LibXC Library
   Liviu Ungur et al                             : ANISO software


 Your calculation uses the libint2 library for the computation of 2-el integrals
 For citations please refer to: http://libint.valeyev.net

 Your ORCA version has been built with support for libXC version: 5.1.0
 For citations please refer to: https://tddft.org/programs/libxc/

 This ORCA versions uses:
   CBLAS   interface :  Fast vector & matrix operations
   LAPACKE interface :  Fast linear algebra routines
   SCALAPACK package :  Parallel linear algebra routines
   Shared memory     :  Shared parallel matrices
   BLAS/LAPACK       :  OpenBLAS 0.3.15  USE64BITINT DYNAMIC_ARCH NO_AFFINITY Prescott SINGLE_THREADED
        Core in use  :  Prescott
   Copyright (c) 2011-2014, The OpenBLAS Project


Your calculation utilizes the geometrical counterpoise correction gCP
Please cite in your paper:
H.Kruse, S. Grimme J.Chem.Phys., 136, (2012), 154101 
   

Your calculation utilizes the atom-pairwise dispersion correction
with the Becke-Johnson damping scheme (D3BJ)
Cite in your paper:
S.Grimme, S.Ehrlich, L.Goerigk, J Comput Chem, (2011), 32, 1456–1465 
S.Grimme, J.Antony, S.Ehrlich and H.Krieg, J.Chem.Phys., 132, (2010), 154104 
   

Your calculation employs the composite approach PBEh-3c.
Please cite in your paper:
S. Grimme, J. G. Brandenburg, C. Bannwarth, A. Hansen J.Chem.Phys., 143, (2015), 054107 
   

================================================================================

cite the ECPs for Pd [Def2-ECP] as follows:
Ce-Yb(ecp-28): M. Dolg, H. Stoll, H.Preuss, J. Chem. Phys., 1989, 90, 1730-1734.
Y-Cd(ecp-28), Hf-Hg(ecp-46): D. Andrae,U. Haeussermann, M. Dolg, H. Stoll, H. Preuss, Theor. Chim. Acta, 1990, 77, 123-141.
In-Sb(ecp-28), Tl-Bi(ecp-46): B. Metz, H. Stoll, M. Dolg, J. Chem. Phys., 2000, 113, 2563-2569.
Te-Xe(ecp-28), Po-Rn(ecp-46): K. A. Peterson, D. Figgen, E. Goll, H. Stoll, M. Dolg, J. Chem. Phys., 2003, 119, 11113-11123.
Rb(ecp-28), Cs(ecp-46): T. Leininger, A. Nicklass, W. Kuechle, H. Stoll, M. Dolg, A. Bergner, Chem. Phys. Lett., 1996, 255, 274-280.
Sr(ecp-28), Ba(ecp-46): M. Kaupp, P. V. Schleyer, H. Stoll and H. Preuss, J. Chem. Phys., 1991, 94, 1360-1366.
La(ecp-46): M. Dolg, H. Stoll, A. Savin, H. Preuss, Theor. Chim. Acta, 1989, 75, 173-194.
Lu(ecp-28): X. Cao, M. Dolg, J. Chem. Phys., 2001, 115, 7348-7355.

ECP parameters for Pd [Def2-ECP] have been obtained from:
TURBOMOLE (7.0.2)

----- Orbital basis set information -----
Your calculation utilizes the basis: def2-mSVP

----- AuxJ basis set information -----
Your calculation utilizes the auxiliary basis: def2/J
   F. Weigend, Phys. Chem. Chem. Phys. 8, 1057 (2006).

================================================================================
                                        WARNINGS
                       Please study these warnings very carefully!
================================================================================


INFO   : the flag for use of the SHARK integral package has been found!

================================================================================
                                       INPUT FILE
================================================================================
NAME = 2_2_orca.inp
|  1> ! EnGrad PBEh-3c
|  2> %output 
|  3> xyzfile=True 
|  4> end 
|  5> %scf 
|  6> maxiter 250 
|  7> end
|  8> %output
|  9> Print[P_Hirshfeld] = 1
| 10> end
| 11> % maxcore
| 12> 4000
| 13> *xyz -1 1
| 14> C   -2.49475733  -0.20819461   0.70165715 
| 15> C   -1.94434056   0.92896546   1.36346925 
| 16> C   -3.82404738  -0.51423200   0.89094008 
| 17> C   -4.67292228   0.40759261   1.46471241 
| 18> C   -4.22188961   1.59478128   2.00620514 
| 19> C   -2.88369908   1.82155792   2.04856656 
| 20> H   -2.48263480  -1.20204313  -1.03764713 
| 21> H   -4.12803433  -1.52468205   0.80139995 
| 22> H   -2.49532987   2.72887943   2.46810493 
| 23> H   -5.73923985   0.26201161   1.29891051 
| 24> H   -4.90670451   2.32990938   2.36173761 
| 25> C   -0.53927725   1.46484882   1.27984032 
| 26> C    0.63814603   0.48641152   1.67790843 
| 27> H   -0.43311854   2.35962015   1.86622537 
| 28> H   -0.47607843   1.75747631   0.25198351 
| 29> C    1.78551756   0.57854374   0.76264234 
| 30> H    0.23367710  -0.51083352   1.72291445 
| 31> H    0.92852291   0.75372378   2.68158064 
| 32> C    1.76698519  -0.05773919  -0.49932192 
| 33> C    2.82817021   0.12915793  -1.37678803 
| 34> C    3.80300665   1.09645820  -1.09023221 
| 35> C    2.82302310   1.44951692   1.04857108 
| 36> C    3.82521760   1.73053928   0.12373333 
| 37> H    2.91608957  -0.46103659  -2.27464807 
| 38> H    4.57169593   1.30177805  -1.83116361 
| 39> H    2.93103570   1.80225179   2.07052160 
| 40> H    4.51052509   2.54421298   0.32225399 
| 41> Pd   0.23219542  -1.49159785  -1.05502069 
| 42> Br  -1.38242032  -3.69028922  -1.01294919 
| 43> P    1.36627329  -2.99440585   0.22337795 
| 44> H    0.72193188  -3.50158066   1.33290318 
| 45> C    0.39575432  -1.35778103  -4.01121000 
| 46> O    1.65459386  -1.61728048  -4.19424402 
| 47> O   -0.40832593  -1.68497995  -3.03212833 
| 48> O    0.04824704  -0.03745338  -4.54049425 
| 49> H    2.62357540  -2.76071115   0.75692061 
| 50> H    1.66044663  -4.18074293  -0.46821275 
| 51> H    0.76866228   0.26872847  -5.09377607 
| 52> *
| 53> 
| 54>                          ****END OF INPUT****
================================================================================

                     *******************************
                     * Energy+Gradient Calculation *
                     *******************************

---------------------------------
CARTESIAN COORDINATES (ANGSTROEM)
---------------------------------
  C     -2.494757   -0.208195    0.701657
  C     -1.944341    0.928965    1.363469
  C     -3.824047   -0.514232    0.890940
  C     -4.672922    0.407593    1.464712
  C     -4.221890    1.594781    2.006205
  C     -2.883699    1.821558    2.048567
  H     -2.482635   -1.202043   -1.037647
  H     -4.128034   -1.524682    0.801400
  H     -2.495330    2.728879    2.468105
  H     -5.739240    0.262012    1.298911
  H     -4.906705    2.329909    2.361738
  C     -0.539277    1.464849    1.279840
  C      0.638146    0.486412    1.677908
  H     -0.433119    2.359620    1.866225
  H     -0.476078    1.757476    0.251984
  C      1.785518    0.578544    0.762642
  H      0.233677   -0.510834    1.722914
  H      0.928523    0.753724    2.681581
  C      1.766985   -0.057739   -0.499322
  C      2.828170    0.129158   -1.376788
  C      3.803007    1.096458   -1.090232
  C      2.823023    1.449517    1.048571
  C      3.825218    1.730539    0.123733
  H      2.916090   -0.461037   -2.274648
  H      4.571696    1.301778   -1.831164
  H      2.931036    1.802252    2.070522
  H      4.510525    2.544213    0.322254
  Pd     0.232195   -1.491598   -1.055021
  Br    -1.382420   -3.690289   -1.012949
  P      1.366273   -2.994406    0.223378
  H      0.721932   -3.501581    1.332903
  C      0.395754   -1.357781   -4.011210
  O      1.654594   -1.617280   -4.194244
  O     -0.408326   -1.684980   -3.032128
  O      0.048247   -0.037453   -4.540494
  H      2.623575   -2.760711    0.756921
  H      1.660447   -4.180743   -0.468213
  H      0.768662    0.268728   -5.093776

----------------------------
CARTESIAN COORDINATES (A.U.)
----------------------------
  NO LB      ZA    FRAG     MASS         X           Y           Z
   0 C     6.0000    0    12.011   -4.714408   -0.393431    1.325940
   1 C     6.0000    0    12.011   -3.674271    1.755490    2.576583
   2 C     6.0000    0    12.011   -7.226402   -0.971758    1.683633
   3 C     6.0000    0    12.011   -8.830543    0.770238    2.767905
   4 C     6.0000    0    12.011   -7.978215    3.013700    3.791178
   5 C     6.0000    0    12.011   -5.449402    3.442246    3.871230
   6 H     1.0000    0     1.008   -4.691500   -2.271532   -1.960869
   7 H     1.0000    0     1.008   -7.800854   -2.881232    1.514426
   8 H     1.0000    0     1.008   -4.715490    5.156835    4.664042
   9 H     1.0000    0     1.008  -10.845592    0.495130    2.454585
  10 H     1.0000    0     1.008   -9.272328    4.402891    4.463037
  11 C     6.0000    0    12.011   -1.019086    2.768163    2.418548
  12 C     6.0000    0    12.011    1.205921    0.919185    3.170787
  13 H     1.0000    0     1.008   -0.818475    4.459036    3.526655
  14 H     1.0000    0     1.008   -0.899658    3.321149    0.476180
  15 C     6.0000    0    12.011    3.374139    1.093289    1.441185
  16 H     1.0000    0     1.008    0.441586   -0.965335    3.255836
  17 H     1.0000    0     1.008    1.754654    1.424332    5.067453
  18 C     6.0000    0    12.011    3.339118   -0.109111   -0.943582
  19 C     6.0000    0    12.011    5.344467    0.244073   -2.601752
  20 C     6.0000    0    12.011    7.186641    2.072006   -2.060240
  21 C     6.0000    0    12.011    5.334741    2.739190    1.981512
  22 C     6.0000    0    12.011    7.228614    3.270245    0.233822
  23 H     1.0000    0     1.008    5.510611   -0.871233   -4.298462
  24 H     1.0000    0     1.008    8.639253    2.460004   -3.460398
  25 H     1.0000    0     1.008    5.538855    3.405762    3.912719
  26 H     1.0000    0     1.008    8.523657    4.807866    0.608972
  27 Pd   18.0000*   0   106.400    0.438786   -2.818711   -1.993700
  28 Br   35.0000    0    79.900   -2.612396   -6.973636   -1.914197
  29 P    15.0000    0    30.974    2.581882   -5.658607    0.422123
  30 H     1.0000    0     1.008    1.364254   -6.617028    2.518822
  31 C     6.0000    0    12.011    0.747867   -2.565834   -7.580088
  32 O     8.0000    0    15.999    3.126729   -3.056217   -7.925973
  33 O     8.0000    0    15.999   -0.771624   -3.184151   -5.729892
  34 O     8.0000    0    15.999    0.091174   -0.070777   -8.580291
  35 H     1.0000    0     1.008    4.957839   -5.216988    1.430373
  36 H     1.0000    0     1.008    3.137789   -7.900459   -0.884794
  37 H     1.0000    0     1.008    1.452561    0.507823   -9.625842
* core charge reduced due to ECP

--------------------------------
INTERNAL COORDINATES (ANGSTROEM)
--------------------------------
 C      0   0   0     0.000000000000     0.00000000     0.00000000
 C      1   0   0     1.426214184899     0.00000000     0.00000000
 C      1   2   0     1.377134324856   119.07334713     0.00000000
 C      3   1   2     1.378246673903   120.20510357    13.89387575
 C      4   3   1     1.380601964444   122.49371168   352.55884923
 C      5   4   3     1.357930789450   118.54082208   355.77811706
 H      1   2   3     2.003262642507   142.76134400   139.43596793
 H      3   1   2     1.058978188725   118.52266545   207.88186159
 H      6   5   4     1.072415688848   120.68888745   180.43886171
 H      4   3   1     1.088906450387   116.76445258   160.51764189
 H      5   4   3     1.065733600810   120.93536746   174.26199584
 C      2   1   3     1.506110115020   128.16761549   181.48235961
 C     12   2   1     1.581810149960   117.40989019   302.36633819
 H     12   2   1     1.075050153045   110.97592295   177.92017289
 H     12   2   1     1.070567401249   101.86692083    64.44724229
 C     13  12   2     1.470599125976   112.66690147   137.84793714
 H     13  12   2     1.077087891946   107.67988637    13.65884254
 H     13  12   2     1.078486199221   106.33750875   259.29771421
 C     16  13  12     1.413418978670   121.14815015   281.34301764
 C     19  16  13     1.389601005446   119.55302872   175.42551164
 C     20  19  16     1.402886358573   119.63070829   350.48436128
 C     16  13  12     1.384473643725   119.70620243    92.12174941
 C     21  20  19     1.369768036794   120.76221886     8.93511343
 H     20  19  16     1.078059384603   120.96745481   170.27977300
 H     21  20  19     1.087206875207   118.83644479   186.04711849
 H     22  16  13     1.086495041683   118.22892776    19.38382683
 H     23  21  20     1.082183763678   121.39274901   185.98606838
 Pd    19  16  13     2.172632370635   122.32526886   348.99479066
 Br     7   1   2     2.720744474338   116.63373536   113.07740090
 P     28  19  16     2.275712543983    86.56594311   282.23701103
 H     30  28  19     1.379655165810   117.50240945   116.45904550
 C     28  19  16     2.963733066867   100.73913593   158.02051086
 O     32  28  19     1.298275165169   100.66749857    55.16719338
 O     32  28  19     1.308512551800    37.67050844   202.36920601
 O     32  28  19     1.464297862563   112.83972053   296.73313123
 H     30  28  19     1.385672969592   123.85558922   350.41961885
 H     30  28  19     1.404361533821   112.68052284   232.66382777
 H     35  32  28     0.958575096503   108.55910231   125.55931521

---------------------------
INTERNAL COORDINATES (A.U.)
---------------------------
 C      0   0   0     0.000000000000     0.00000000     0.00000000
 C      1   0   0     2.695154217772     0.00000000     0.00000000
 C      1   2   0     2.602406723600   119.07334713     0.00000000
 C      3   1   2     2.604508758665   120.20510357    13.89387575
 C      4   3   1     2.608959612753   122.49371168   352.55884923
 C      5   4   3     2.566117300880   118.54082208   355.77811706
 H      1   2   3     3.785617768655   142.76134400   139.43596793
 H      3   1   2     2.001178758487   118.52266545   207.88186159
 H      6   5   4     2.026571953643   120.68888745   180.43886171
 H      4   3   1     2.057734976693   116.76445258   160.51764189
 H      5   4   3     2.013944637249   120.93536746   174.26199584
 C      2   1   3     2.846135644917   128.16761549   181.48235961
 C     12   2   1     2.989187979281   117.40989019   302.36633819
 H     12   2   1     2.031550369485   110.97592295   177.92017289
 H     12   2   1     2.023079196264   101.86692083    64.44724229
 C     13  12   2     2.779029600878   112.66690147   137.84793714
 H     13  12   2     2.035401137940   107.67988637    13.65884254
 H     13  12   2     2.038043555742   106.33750875   259.29771421
 C     16  13  12     2.670974782173   121.14815015   281.34301764
 C     19  16  13     2.625965335714   119.55302872   175.42551164
 C     20  19  16     2.651071014717   119.63070829   350.48436128
 C     16  13  12     2.616276026272   119.70620243    92.12174941
 C     21  20  19     2.588486456539   120.76221886     8.93511343
 H     20  19  16     2.037236993003   120.96745481   170.27977300
 H     21  20  19     2.054523245057   118.83644479   186.04711849
 H     22  16  13     2.053178074644   118.22892776    19.38382683
 H     23  21  20     2.045030939928   121.39274901   185.98606838
 Pd    19  16  13     4.105680170193   122.32526886   348.99479066
 Br     7   1   2     5.141461936879   116.63373536   113.07740090
 P     28  19  16     4.300473467657    86.56594311   282.23701103
 H     30  28  19     2.607170422630   117.50240945   116.45904550
 C     28  19  16     5.600643830426   100.73913593   158.02051086
 O     32  28  19     2.453384508641   100.66749857    55.16719338
 O     32  28  19     2.472730365701    37.67050844   202.36920601
 O     32  28  19     2.767121938730   112.83972053   296.73313123
 H     30  28  19     2.618542423707   123.85558922   350.41961885
 H     30  28  19     2.653858691935   112.68052284   232.66382777
 H     35  32  28     1.811444411188   108.55910231   125.55931521

---------------------
BASIS SET INFORMATION
---------------------
There are 6 groups of distinct atoms

 Group   1 Type C   : 8s4p1d contracted to 4s2p1d pattern {5111/31/1}
 Group   2 Type H   : 4s contracted to 2s pattern {31}
 Group   3 Type Pd  : 7s6p5d1f contracted to 5s3p2d1f pattern {31111/411/41/1}
 Group   4 Type Br  : 14s10p6d contracted to 5s4p3d pattern {63311/5311/411}
 Group   5 Type P   : 10s7p1d contracted to 4s3p1d pattern {5311/511/1}
 Group   6 Type O   : 8s4p1d contracted to 4s2p1d pattern {5111/31/1}

Atom   0C    basis set group =>   1
Atom   1C    basis set group =>   1
Atom   2C    basis set group =>   1
Atom   3C    basis set group =>   1
Atom   4C    basis set group =>   1
Atom   5C    basis set group =>   1
Atom   6H    basis set group =>   2
Atom   7H    basis set group =>   2
Atom   8H    basis set group =>   2
Atom   9H    basis set group =>   2
Atom  10H    basis set group =>   2
Atom  11C    basis set group =>   1
Atom  12C    basis set group =>   1
Atom  13H    basis set group =>   2
Atom  14H    basis set group =>   2
Atom  15C    basis set group =>   1
Atom  16H    basis set group =>   2
Atom  17H    basis set group =>   2
Atom  18C    basis set group =>   1
Atom  19C    basis set group =>   1
Atom  20C    basis set group =>   1
Atom  21C    basis set group =>   1
Atom  22C    basis set group =>   1
Atom  23H    basis set group =>   2
Atom  24H    basis set group =>   2
Atom  25H    basis set group =>   2
Atom  26H    basis set group =>   2
Atom  27Pd   basis set group =>   3
Atom  28Br   basis set group =>   4
Atom  29P    basis set group =>   5
Atom  30H    basis set group =>   2
Atom  31C    basis set group =>   1
Atom  32O    basis set group =>   6
Atom  33O    basis set group =>   6
Atom  34O    basis set group =>   6
Atom  35H    basis set group =>   2
Atom  36H    basis set group =>   2
Atom  37H    basis set group =>   2
---------------------------------
AUXILIARY/J BASIS SET INFORMATION
---------------------------------
There are 6 groups of distinct atoms

 Group   1 Type C   : 12s5p4d2f1g contracted to 6s4p3d1f1g pattern {711111/2111/211/2/1}
 Group   2 Type H   : 5s2p1d contracted to 3s1p1d pattern {311/2/1}
 Group   3 Type Pd  : 11s5p5d3f3g contracted to 8s5p5d2f3g pattern {41111111/11111/11111/21/111}
 Group   4 Type Br  : 19s5p5d3f1g contracted to 8s4p3d2f1g pattern {121111111/2111/311/21/1}
 Group   5 Type P   : 14s5p5d2f1g contracted to 8s4p3d1f1g pattern {71111111/2111/311/2/1}
 Group   6 Type O   : 12s5p4d2f1g contracted to 6s4p3d1f1g pattern {711111/2111/211/2/1}

Atom   0C    basis set group =>   1
Atom   1C    basis set group =>   1
Atom   2C    basis set group =>   1
Atom   3C    basis set group =>   1
Atom   4C    basis set group =>   1
Atom   5C    basis set group =>   1
Atom   6H    basis set group =>   2
Atom   7H    basis set group =>   2
Atom   8H    basis set group =>   2
Atom   9H    basis set group =>   2
Atom  10H    basis set group =>   2
Atom  11C    basis set group =>   1
Atom  12C    basis set group =>   1
Atom  13H    basis set group =>   2
Atom  14H    basis set group =>   2
Atom  15C    basis set group =>   1
Atom  16H    basis set group =>   2
Atom  17H    basis set group =>   2
Atom  18C    basis set group =>   1
Atom  19C    basis set group =>   1
Atom  20C    basis set group =>   1
Atom  21C    basis set group =>   1
Atom  22C    basis set group =>   1
Atom  23H    basis set group =>   2
Atom  24H    basis set group =>   2
Atom  25H    basis set group =>   2
Atom  26H    basis set group =>   2
Atom  27Pd   basis set group =>   3
Atom  28Br   basis set group =>   4
Atom  29P    basis set group =>   5
Atom  30H    basis set group =>   2
Atom  31C    basis set group =>   1
Atom  32O    basis set group =>   6
Atom  33O    basis set group =>   6
Atom  34O    basis set group =>   6
Atom  35H    basis set group =>   2
Atom  36H    basis set group =>   2
Atom  37H    basis set group =>   2
-------------------------
ECP PARAMETER INFORMATION
-------------------------

 Group 1, Type Pd ECP Def2-ECP (replacing 28 core electrons, lmax=3)

Atom  27Pd   ECP group =>   1

------------------------------------------------------------------------------
                           ORCA GTO INTEGRAL CALCULATION
                           -- RI-GTO INTEGRALS CHOSEN --
------------------------------------------------------------------------------
------------------------------------------------------------------------------
                   ___                                                        
                  /   \      - P O W E R E D   B Y -                         
                 /     \                                                     
                 |  |  |   _    _      __       _____    __    __             
                 |  |  |  | |  | |    /  \     |  _  \  |  |  /  |          
                  \  \/   | |  | |   /    \    | | | |  |  | /  /          
                 / \  \   | |__| |  /  /\  \   | |_| |  |  |/  /          
                |  |  |   |  __  | /  /__\  \  |    /   |      \           
                |  |  |   | |  | | |   __   |  |    \   |  |\   \          
                \     /   | |  | | |  |  |  |  | |\  \  |  | \   \       
                 \___/    |_|  |_| |__|  |__|  |_| \__\ |__|  \__/        
                                                                              
                      - O R C A' S   B I G   F R I E N D -                    
                                      &                                       
                       - I N T E G R A L  F E E D E R -                       
                                                                              
 v1 FN, 2020, v2 2021                                                         
------------------------------------------------------------------------------


Reading SHARK input file 2_2_orca.SHARKINP.tmp ... ok
----------------------
SHARK INTEGRAL PACKAGE
----------------------

Number of atoms                             ...     38
Number of basis functions                   ...    385
Number of shells                            ...    191
Maximum angular momentum                    ...      3
Integral batch strategy                     ... SHARK/LIBINT Hybrid
RI-J (if used) integral strategy            ... SPLIT-RIJ (Revised 2003 algorithm where possible)
Printlevel                                  ...      1
Contraction scheme used                     ... SEGMENTED contraction
Coulomb Range Separation                    ... NOT USED
Exchange Range Separation                   ... NOT USED
Finite Nucleus Model                        ... NOT USED
Auxiliary Coulomb fitting basis             ... AVAILABLE
   # of basis functions in Aux-J            ...   1267
   # of shells in Aux-J                     ...    413
   Maximum angular momentum in Aux-J        ...      4
Auxiliary J/K fitting basis                 ... NOT available
Auxiliary Correlation fitting basis         ... NOT available
Auxiliary 'external' fitting basis          ... NOT available
Integral threshold                          ...     2.500000e-11
Primitive cut-off                           ...     2.500000e-12
Primitive pair pre-selection threshold      ...     2.500000e-12

Calculating pre-screening integrals         ... done (  0.1 sec) Dimension = 191
Organizing shell pair data                  ... done (  0.1 sec)
Shell pair information
Total number of shell pairs                 ...     18336
Shell pairs after pre-screening             ...     11989
Total number of primitive shell pairs       ...     68628
Primitive shell pairs kept                  ...     27505
          la=0 lb=0:   4250 shell pairs
          la=1 lb=0:   4026 shell pairs
          la=1 lb=1:    914 shell pairs
          la=2 lb=0:   1668 shell pairs
          la=2 lb=1:    817 shell pairs
          la=2 lb=2:    176 shell pairs
          la=3 lb=0:     76 shell pairs
          la=3 lb=1:     42 shell pairs
          la=3 lb=2:     19 shell pairs
          la=3 lb=3:      1 shell pairs

Calculating one electron integrals          ... done (  0.1 sec)
Calculating ECP integrals                   ... done (  0.5 sec)
Calculating RI/J V-Matrix + Cholesky decomp.... done (  0.2 sec)
Calculating Nuclear repulsion               ... done (  0.0 sec) ENN=   2488.858640305591 Eh

SHARK setup successfully completed in   1.3 seconds

Maximum memory used throughout the entire GTOINT-calculation: 92.6 MB
-------------------------------------------------------------------------------
                                 ORCA SCF
-------------------------------------------------------------------------------

------------
SCF SETTINGS
------------
Hamiltonian:
 Density Functional     Method          .... DFT(GTOs)
 Exchange Functional    Exchange        .... PBE
   PBE kappa parameter   XKappa         ....  1.024500
   PBE mue parameter    XMuePBE         ....  0.123457
 Correlation Functional Correlation     .... PBE
   PBE beta parameter  CBetaPBE         ....  0.030000
 LDA part of GGA corr.  LDAOpt          .... PW91-LDA
 Gradients option       PostSCFGGA      .... off
 Hybrid DFT is turned on
   Fraction HF Exchange ScalHFX         ....  0.420000
   Scaling of DF-GGA-X  ScalDFX         ....  0.580000
   Scaling of DF-GGA-C  ScalDFC         ....  1.000000
   Scaling of DF-LDA-C  ScalLDAC        ....  1.000000
   Perturbative correction              ....  0.000000
   Density functional embedding theory  .... OFF
 RI-approximation to the Coulomb term is turned on
   Number of AuxJ basis functions       .... 1267
   RIJ-ON(X) (HFX calculated with O(N)) .... on
   Number of AuxJ basis functions       .... 1267
   RIJ-COSX (HFX calculated with COS-X)).... on


General Settings:
 Integral files         IntName         .... 2_2_orca
 Hartree-Fock type      HFTyp           .... RHF
 Total Charge           Charge          ....   -1
 Multiplicity           Mult            ....    1
 Number of Electrons    NEL             ....  200
 Basis Dimension        Dim             ....  385
 Nuclear Repulsion      ENuc            ....   2488.8586403056 Eh

Convergence Acceleration:
 DIIS                   CNVDIIS         .... on
   Start iteration      DIISMaxIt       ....    12
   Startup error        DIISStart       ....  0.200000
   # of expansion vecs  DIISMaxEq       ....     5
   Bias factor          DIISBfac        ....   1.050
   Max. coefficient     DIISMaxC        ....  10.000
 Trust-Rad. Augm. Hess. CNVTRAH         .... auto
   Auto Start mean grad. ratio tolernc. ....  1.125000
   Auto Start start iteration           ....    20
   Auto Start num. interpolation iter.  ....    10
   Max. Number of Micro iterations      ....    16
   Max. Number of Macro iterations      .... Maxiter - #DIIS iter
   Number of Davidson start vectors     ....     2
   Converg. threshold I  (grad. norm)   ....   1.000e-05
   Converg. threshold II (energy diff.) ....   1.000e-08
   Grad. Scal. Fac. for Micro threshold ....   0.100
   Minimum threshold for Micro iter.    ....   0.010
   NR start threshold (gradient norm)   ....   0.001
   Initial trust radius                 ....   0.400
   Minimum AH scaling param. (alpha)    ....   1.000
   Maximum AH scaling param. (alpha)    .... 1000.000
   Orbital update algorithm             .... Taylor
   White noise on init. David. guess    .... on
   Maximum white noise                  ....   0.010
   Quad. conv. algorithm                .... NR
   COSX micro iterations for RIJONX calc.... off
 SOSCF                  CNVSOSCF        .... off
 Level Shifting         CNVShift        .... on
   Level shift para.    LevelShift      ....    0.2500
   Turn off err/grad.   ShiftErr        ....    0.0010
 Zerner damping         CNVZerner       .... off
 Static damping         CNVDamp         .... on
   Fraction old density DampFac         ....    0.7000
   Max. Damping (<1)    DampMax         ....    0.9800
   Min. Damping (>=0)   DampMin         ....    0.0000
   Turn off err/grad.   DampErr         ....    0.1000
 Fernandez-Rico         CNVRico         .... off

SCF Procedure:
 Maximum # iterations   MaxIter         ....   250
 SCF integral mode      SCFMode         .... Direct
   Integral package                     .... SHARK and LIBINT hybrid scheme
 Reset frequency        DirectResetFreq ....    20
 Integral Threshold     Thresh          ....  2.500e-11 Eh
 Primitive CutOff       TCut            ....  2.500e-12 Eh

Convergence Tolerance:
 Convergence Check Mode ConvCheckMode   .... Total+1el-Energy
 Convergence forced     ConvForced      .... 0
 Energy Change          TolE            ....  1.000e-08 Eh
 1-El. energy change                    ....  1.000e-05 Eh
 DIIS Error             TolErr          ....  5.000e-07


Diagonalization of the overlap matrix:
Smallest eigenvalue                        ... 5.181e-04
Time for diagonalization                   ...    0.056 sec
Threshold for overlap eigenvalues          ... 1.000e-08
Number of eigenvalues below threshold      ... 0
Time for construction of square roots      ...    0.034 sec
Total time needed                          ...    0.092 sec

--------------------------------
INITIAL GUESS: MINIMAL BASIS EHT
--------------------------------
The minimal basis has 147 functions
EHT matrix was diagonalized
Basis set overlap was calculated now projecting the orbitals
Using GuessMode=FMatrix for the initial guess
C*T matrix was formed
Effective Fockian was calculated
Effective Fockian was diagonalized
Initial density was built
                      ------------------
                      INITIAL GUESS DONE
                      ------------------
-------------------
DFT GRID GENERATION
-------------------

General Integration Accuracy     IntAcc      ... 4.159
Radial Grid Type                 RadialGrid  ... OptM3 with GC (2021)
Angular Grid (max. ang.)         AngularGrid ... 3 (Lebedev-194)
Angular grid pruning method      GridPruning ... 4 (adaptive)
Weight generation scheme         WeightScheme... Becke
Basis function cutoff            BFCut       ... 1.0000e-11
Integration weight cutoff        WCut        ... 1.0000e-14
Angular grids for H and He will be reduced by one unit
Partially contracted basis set               ... off
Rotationally invariant grid construction     ... off

Total number of grid points                  ...    96868
Total number of batches                      ...     1531
Average number of points per batch           ...       63
Average number of grid points per atom       ...     2549
Time for grid setup =    1.791 sec

--------------------
COSX GRID GENERATION
--------------------

GRIDX 1
-------
General Integration Accuracy     IntAcc      ... 3.816
Radial Grid Type                 RadialGrid  ... OptM3 with GC (2021)
Angular Grid (max. ang.)         AngularGrid ... 1 (Lebedev-50)
Angular grid pruning method      GridPruning ... 4 (adaptive)
Weight generation scheme         WeightScheme... Becke
Basis function cutoff            BFCut       ... 1.0000e-11
Integration weight cutoff        WCut        ... 1.0000e-14
Angular grids for H and He will be reduced by one unit
Partially contracted basis set               ... on
Rotationally invariant grid construction     ... off

Total number of grid points                  ...    23700
Total number of batches                      ...      387
Average number of points per batch           ...       61
Average number of grid points per atom       ...      624
UseSFitting                                  ... on

GRIDX 2
-------
General Integration Accuracy     IntAcc      ... 4.020
Radial Grid Type                 RadialGrid  ... OptM3 with GC (2021)
Angular Grid (max. ang.)         AngularGrid ... 2 (Lebedev-110)
Angular grid pruning method      GridPruning ... 4 (adaptive)
Weight generation scheme         WeightScheme... Becke
Basis function cutoff            BFCut       ... 1.0000e-11
Integration weight cutoff        WCut        ... 1.0000e-14
Angular grids for H and He will be reduced by one unit
Partially contracted basis set               ... on
Rotationally invariant grid construction     ... off

Total number of grid points                  ...    51372
Total number of batches                      ...      820
Average number of points per batch           ...       62
Average number of grid points per atom       ...     1352
UseSFitting                                  ... on

GRIDX 3
-------
General Integration Accuracy     IntAcc      ... 4.338
Radial Grid Type                 RadialGrid  ... OptM3 with GC (2021)
Angular Grid (max. ang.)         AngularGrid ... 3 (Lebedev-194)
Angular grid pruning method      GridPruning ... 4 (adaptive)
Weight generation scheme         WeightScheme... Becke
Basis function cutoff            BFCut       ... 1.0000e-11
Integration weight cutoff        WCut        ... 1.0000e-14
Angular grids for H and He will be reduced by one unit
Partially contracted basis set               ... on
Rotationally invariant grid construction     ... off

Total number of grid points                  ...   112154
Total number of batches                      ...     1775
Average number of points per batch           ...       63
Average number of grid points per atom       ...     2951
UseSFitting                                  ... on

Time for X-Grid setup             =    4.198 sec

--------------
SCF ITERATIONS
--------------
ITER       Energy         Delta-E        Max-DP      RMS-DP      [F,P]     Damp
               ***  Starting incremental Fock matrix formation  ***
  0  -3826.0964452909   0.000000000000 5.61994887  0.04484675  5.0989487 0.7000
  1  -3814.4410314860  11.655413804891 4.46357472  0.04172511  3.9313216 0.7000
  2  -3815.2240644014  -0.783032915362 2.51656304  0.02278332  2.6160984 0.7000
  3  -3819.5519946548  -4.327930253379 5.57003924  0.04346017  1.9262314 0.7000
  4  -3812.5034530548   7.048541599912 3.09371552  0.03071088  1.2321467 0.7000
  5  -3816.9765712477  -4.473118192876 3.04130730  0.03322330  0.9681919 0.7000
  6  -3808.8186306332   8.157940614567 2.81216436  0.03276143  0.5692569 0.7000
  7  -3814.3480854289  -5.529454795730 3.41241137  0.03328086  0.4996637 0.7000
  8  -3806.8433618062   7.504723622658 2.99262969  0.03190719  0.3524728 0.7000
  9  -3812.9578071750  -6.114445368735 2.99224591  0.03140881  0.2668172 0.7000
 10  -3805.8396239071   7.118183267826 2.99254851  0.03140533  0.4629432 0.7000
 11  -3812.1886862321  -6.349062325001 3.07370179  0.03164402  0.2475510 0.7000
                               ***Turning on DIIS***
 12  -3805.2238649025   6.964821329624 3.01681346  0.03144870  0.5370459 0.7000
 13  -3811.7181101331  -6.494245230588 2.04670804  0.02388362  0.2546282 0.7000
 14  -3820.2046892021  -8.486579069026 1.42416779  0.01727623  0.2772618 0.7000
 15  -3827.6075564880  -7.402867285830 0.99637477  0.01231767  0.3181690 0.7000
 16  -3833.0714201317  -5.463863643749 0.75027289  0.00871579  0.3248515 0.7000
 17  -3837.0581453680  -3.986725236289 3.62753870  0.02617824  0.3084305 0.7000
 18  -3837.6180551300  -0.559909761957 1.56944819  0.01090680  0.1510137 0.7000
 19  -3840.8229429618  -3.204887831802 3.68134259  0.02588839  0.0961224 0.0000
               *** Restarting incremental Fock matrix formation ***
                                   *** Resetting DIIS ***
 20  -3847.4311699299  -6.608226968190 0.20322929  0.00236392  0.0863145 0.0000
 21  -3847.4615214823  -0.030351552388 0.02438656  0.00029013  0.1024445 0.7000
 22  -3847.4809008825  -0.019379400178 0.06905047  0.00084845  0.0716175 0.0000
 23  -3847.5120587030  -0.031157820536 0.02187964  0.00024168  0.0143680 0.0000
 24  -3847.5137920155  -0.001733312474 0.00908863  0.00012700  0.0069835 0.0000
 25  -3847.5144595222  -0.000667506661 0.00655837  0.00007436  0.0031985 0.0000
 26  -3847.5147057355  -0.000246213271 0.00487304  0.00005597  0.0020808 0.0000
 27  -3847.5148326517  -0.000126916241 0.00334155  0.00004004  0.0012360 0.0000
 28  -3847.5148874757  -0.000054823984 0.00405344  0.00005318  0.0006808 0.0000
               *** Restarting incremental Fock matrix formation ***
                                   *** Resetting DIIS ***
 29  -3847.5168107005  -0.001923224835 0.00470054  0.00007826  0.0011290 0.0000
 30  -3847.5168334891  -0.000022788548 0.00172707  0.00002533  0.0004807 0.0000
 31  -3847.5168345671  -0.000001078002 0.00116168  0.00000912  0.0008784 0.0000
 32  -3847.5168376480  -0.000003080892 0.00052230  0.00000447  0.0002071 0.0000
 33  -3847.5168380724  -0.000000424472 0.00034344  0.00000303  0.0001265 0.0000
 34  -3847.5168383223  -0.000000249845 0.00022308  0.00000221  0.0000521 0.0000
 35  -3847.5168384246  -0.000000102349 0.00022397  0.00000195  0.0000294 0.0000
 36  -3847.5168384903  -0.000000065679 0.00009360  0.00000079  0.0000103 0.0000
 37  -3847.5168385163  -0.000000026002 0.00001876  0.00000016  0.0000089 0.0000
 38  -3847.5168385272  -0.000000010910 0.00001742  0.00000012  0.0000046 0.0000
 39  -3847.5168385335  -0.000000006266 0.00000654  0.00000005  0.0000046 0.0000
 40  -3847.5168385424  -0.000000008919 0.00000276  0.00000003  0.0000012 0.0000
                            ***DIIS convergence achieved***

               *****************************************************
               *                     SUCCESS                       *
               *           SCF CONVERGED AFTER  41 CYCLES          *
               *****************************************************

Old exchange energy                            =    -97.643993936 Eh
New exchange energy                            =    -97.643962204 Eh
Exchange energy change after final integration =      0.000031732 Eh
Total energy after final integration           =  -3847.516806792 Eh
Final COS-X integration done in                =    47.206 sec

----------------
TOTAL SCF ENERGY
----------------

Total Energy       :        -3847.51680679 Eh         -104696.25497 eV

Components:
Nuclear Repulsion  :         2488.85864031 Eh           67725.28669 eV
Electronic Energy  :        -6336.37544710 Eh         -172421.54166 eV
One Electron Energy:       -10362.51435848 Eh         -281978.35120 eV
Two Electron Energy:         4026.13891138 Eh          109556.80954 eV
Max COSX asymmetry :            0.00004335 Eh               0.00118 eV

Virial components:
Potential Energy   :        -7606.07897934 Eh         -206971.93128 eV
Kinetic Energy     :         3758.56217255 Eh          102275.67631 eV
Virial Ratio       :            2.02366720


DFT components:
N(Alpha)           :       99.999619482815 electrons
N(Beta)            :       99.999619482815 electrons
N(Total)           :      199.999238965630 electrons
E(X)               :     -130.730537485641 Eh       
E(C)               :       -9.692081965382 Eh       
E(XC)              :     -140.422619451023 Eh       
DFET-embed. en.    :        0.000000000000 Eh       

---------------
SCF CONVERGENCE
---------------

  Last Energy change         ...    1.8193e-08  Tolerance :   1.0000e-08
  Last MAX-Density change    ...    0.0000e+00  Tolerance :   1.0000e-07
  Last RMS-Density change    ...    0.0000e+00  Tolerance :   5.0000e-09
  Last DIIS Error            ...    8.5079e-07  Tolerance :   5.0000e-07

             **** THE GBW FILE WAS UPDATED (2_2_orca.gbw) ****
             **** DENSITY 2_2_orca.scfp WAS UPDATED ****
             **** ENERGY FILE WAS UPDATED (2_2_orca.en.tmp) ****
             **** THE GBW FILE WAS UPDATED (2_2_orca.gbw) ****
             **** DENSITY 2_2_orca.scfp WAS UPDATED ****
----------------
ORBITAL ENERGIES
----------------

  NO   OCC          E(Eh)            E(eV) 
   0   2.0000    -484.324591    -13179.1421 
   1   2.0000     -77.677985     -2113.7254 
   2   2.0000     -62.986217     -1713.9421 
   3   2.0000     -56.689768     -1542.6070 
   4   2.0000     -56.689029     -1542.5869 
   5   2.0000     -56.688757     -1542.5795 
   6   2.0000     -19.357679      -526.7492 
   7   2.0000     -19.324507      -525.8466 
   8   2.0000     -19.309279      -525.4322 
   9   2.0000     -10.456719      -284.5418 
  10   2.0000     -10.381388      -282.4919 
  11   2.0000     -10.375121      -282.3214 
  12   2.0000     -10.356824      -281.8235 
  13   2.0000     -10.349945      -281.6363 
  14   2.0000     -10.348321      -281.5921 
  15   2.0000     -10.347841      -281.5791 
  16   2.0000     -10.346375      -281.5392 
  17   2.0000     -10.345412      -281.5130 
  18   2.0000     -10.344156      -281.4788 
  19   2.0000     -10.342676      -281.4385 
  20   2.0000     -10.341598      -281.4092 
  21   2.0000     -10.340096      -281.3683 
  22   2.0000     -10.339314      -281.3470 
  23   2.0000     -10.329921      -281.0914 
  24   2.0000      -8.813354      -239.8236 
  25   2.0000      -6.752450      -183.7435 
  26   2.0000      -6.582412      -179.1165 
  27   2.0000      -6.579057      -179.0252 
  28   2.0000      -6.577104      -178.9721 
  29   2.0000      -4.843677      -131.8032 
  30   2.0000      -4.843365      -131.7947 
  31   2.0000      -4.841796      -131.7520 
  32   2.0000      -3.518320       -95.7384 
  33   2.0000      -2.596667       -70.6589 
  34   2.0000      -2.596127       -70.6442 
  35   2.0000      -2.594466       -70.5990 
  36   2.0000      -2.591556       -70.5198 
  37   2.0000      -2.591367       -70.5147 
  38   2.0000      -2.162923       -58.8561 
  39   2.0000      -2.162024       -58.8317 
  40   2.0000      -2.133883       -58.0659 
  41   2.0000      -1.023882       -27.8612 
  42   2.0000      -0.929522       -25.2936 
  43   2.0000      -0.899831       -24.4856 
  44   2.0000      -0.861427       -23.4406 
  45   2.0000      -0.851363       -23.1668 
  46   2.0000      -0.791253       -21.5311 
  47   2.0000      -0.749561       -20.3966 
  48   2.0000      -0.741485       -20.1768 
  49   2.0000      -0.720770       -19.6131 
  50   2.0000      -0.688258       -18.7285 
  51   2.0000      -0.656768       -17.8716 
  52   2.0000      -0.629125       -17.1194 
  53   2.0000      -0.627773       -17.0826 
  54   2.0000      -0.579248       -15.7621 
  55   2.0000      -0.566741       -15.4218 
  56   2.0000      -0.554242       -15.0817 
  57   2.0000      -0.539606       -14.6834 
  58   2.0000      -0.504147       -13.7185 
  59   2.0000      -0.475782       -12.9467 
  60   2.0000      -0.465179       -12.6582 
  61   2.0000      -0.440060       -11.9746 
  62   2.0000      -0.418938       -11.3999 
  63   2.0000      -0.416082       -11.3222 
  64   2.0000      -0.403802       -10.9880 
  65   2.0000      -0.396213       -10.7815 
  66   2.0000      -0.380500       -10.3539 
  67   2.0000      -0.377702       -10.2778 
  68   2.0000      -0.377458       -10.2712 
  69   2.0000      -0.371956       -10.1214 
  70   2.0000      -0.367524       -10.0008 
  71   2.0000      -0.366762        -9.9801 
  72   2.0000      -0.350976        -9.5505 
  73   2.0000      -0.346717        -9.4347 
  74   2.0000      -0.338958        -9.2235 
  75   2.0000      -0.335716        -9.1353 
  76   2.0000      -0.323462        -8.8019 
  77   2.0000      -0.312098        -8.4926 
  78   2.0000      -0.309775        -8.4294 
  79   2.0000      -0.305380        -8.3098 
  80   2.0000      -0.297371        -8.0919 
  81   2.0000      -0.290421        -7.9028 
  82   2.0000      -0.280502        -7.6328 
  83   2.0000      -0.247620        -6.7381 
  84   2.0000      -0.245799        -6.6885 
  85   2.0000      -0.236860        -6.4453 
  86   2.0000      -0.229362        -6.2413 
  87   2.0000      -0.220684        -6.0051 
  88   2.0000      -0.201313        -5.4780 
  89   2.0000      -0.195672        -5.3245 
  90   2.0000      -0.183387        -4.9902 
  91   2.0000      -0.180914        -4.9229 
  92   2.0000      -0.175943        -4.7877 
  93   2.0000      -0.170034        -4.6269 
  94   2.0000      -0.165704        -4.5090 
  95   2.0000      -0.159523        -4.3408 
  96   2.0000      -0.149372        -4.0646 
  97   2.0000      -0.145329        -3.9546 
  98   2.0000      -0.140292        -3.8175 
  99   2.0000      -0.131746        -3.5850 
 100   0.0000       0.044258         1.2043 
 101   0.0000       0.059061         1.6071 
 102   0.0000       0.106086         2.8867 
 103   0.0000       0.118379         3.2213 
 104   0.0000       0.123181         3.3519 
 105   0.0000       0.130277         3.5450 
 106   0.0000       0.155722         4.2374 
 107   0.0000       0.160883         4.3778 
 108   0.0000       0.173410         4.7187 
 109   0.0000       0.195122         5.3095 
 110   0.0000       0.213806         5.8180 
 111   0.0000       0.229283         6.2391 
 112   0.0000       0.236788         6.4433 
 113   0.0000       0.247105         6.7241 
 114   0.0000       0.253391         6.8951 
 115   0.0000       0.266250         7.2450 
 116   0.0000       0.277181         7.5425 
 117   0.0000       0.279171         7.5966 
 118   0.0000       0.289935         7.8895 
 119   0.0000       0.297283         8.0895 
 120   0.0000       0.305230         8.3057 
 121   0.0000       0.308387         8.3916 
 122   0.0000       0.312421         8.5014 
 123   0.0000       0.319742         8.7006 
 124   0.0000       0.324194         8.8218 
 125   0.0000       0.333553         9.0764 
 126   0.0000       0.344576         9.3764 
 127   0.0000       0.354032         9.6337 
 128   0.0000       0.368831        10.0364 
 129   0.0000       0.373584        10.1657 
 130   0.0000       0.384372        10.4593 
 131   0.0000       0.392574        10.6825 
 132   0.0000       0.400253        10.8914 
 133   0.0000       0.416981        11.3466 
 134   0.0000       0.421354        11.4656 
 135   0.0000       0.430637        11.7182 
 136   0.0000       0.435132        11.8405 
 137   0.0000       0.442799        12.0492 
 138   0.0000       0.451672        12.2906 
 139   0.0000       0.463461        12.6114 
 140   0.0000       0.468847        12.7580 
 141   0.0000       0.478677        13.0255 
 142   0.0000       0.491359        13.3706 
 143   0.0000       0.498889        13.5754 
 144   0.0000       0.509637        13.8679 
 145   0.0000       0.528741        14.3878 
 146   0.0000       0.543917        14.8007 
 147   0.0000       0.551583        15.0093 
 148   0.0000       0.571077        15.5398 
 149   0.0000       0.582068        15.8389 
 150   0.0000       0.583654        15.8820 
 151   0.0000       0.591074        16.0839 
 152   0.0000       0.601653        16.3718 
 153   0.0000       0.607808        16.5393 
 154   0.0000       0.613821        16.7029 
 155   0.0000       0.624390        16.9905 
 156   0.0000       0.628530        17.1032 
 157   0.0000       0.636860        17.3298 
 158   0.0000       0.646406        17.5896 
 159   0.0000       0.653339        17.7782 
 160   0.0000       0.657026        17.8786 
 161   0.0000       0.663377        18.0514 
 162   0.0000       0.678550        18.4643 
 163   0.0000       0.685468        18.6525 
 164   0.0000       0.690753        18.7963 
 165   0.0000       0.695072        18.9139 
 166   0.0000       0.701048        19.0765 
 167   0.0000       0.706578        19.2270 
 168   0.0000       0.712915        19.3994 
 169   0.0000       0.718329        19.5467 
 170   0.0000       0.725882        19.7523 
 171   0.0000       0.727908        19.8074 
 172   0.0000       0.732034        19.9197 
 173   0.0000       0.736469        20.0403 
 174   0.0000       0.738263        20.0892 
 175   0.0000       0.746034        20.3006 
 176   0.0000       0.750260        20.4156 
 177   0.0000       0.755733        20.5645 
 178   0.0000       0.760699        20.6997 
 179   0.0000       0.764499        20.8031 
 180   0.0000       0.766499        20.8575 
 181   0.0000       0.777586        21.1592 
 182   0.0000       0.779716        21.2172 
 183   0.0000       0.785718        21.3805 
 184   0.0000       0.787281        21.4230 
 185   0.0000       0.801615        21.8131 
 186   0.0000       0.808033        21.9877 
 187   0.0000       0.809643        22.0315 
 188   0.0000       0.813992        22.1498 
 189   0.0000       0.827824        22.5262 
 190   0.0000       0.831353        22.6223 
 191   0.0000       0.835903        22.7461 
 192   0.0000       0.855879        23.2897 
 193   0.0000       0.864984        23.5374 
 194   0.0000       0.866232        23.5714 
 195   0.0000       0.883855        24.0509 
 196   0.0000       0.886070        24.1112 
 197   0.0000       0.898557        24.4510 
 198   0.0000       0.901615        24.5342 
 199   0.0000       0.923072        25.1181 
 200   0.0000       0.933801        25.4100 
 201   0.0000       0.945630        25.7319 
 202   0.0000       0.959304        26.1040 
 203   0.0000       0.978088        26.6151 
 204   0.0000       0.992755        27.0142 
 205   0.0000       1.008479        27.4421 
 206   0.0000       1.021935        27.8083 
 207   0.0000       1.023440        27.8492 
 208   0.0000       1.039337        28.2818 
 209   0.0000       1.045403        28.4469 
 210   0.0000       1.053497        28.6671 
 211   0.0000       1.059871        28.8406 
 212   0.0000       1.070005        29.1163 
 213   0.0000       1.074451        29.2373 
 214   0.0000       1.083335        29.4790 
 215   0.0000       1.102016        29.9874 
 216   0.0000       1.104006        30.0415 
 217   0.0000       1.107913        30.1478 
 218   0.0000       1.111275        30.2393 
 219   0.0000       1.126893        30.6643 
 220   0.0000       1.137327        30.9482 
 221   0.0000       1.147252        31.2183 
 222   0.0000       1.151846        31.3433 
 223   0.0000       1.160627        31.5823 
 224   0.0000       1.167461        31.7682 
 225   0.0000       1.171503        31.8782 
 226   0.0000       1.175300        31.9815 
 227   0.0000       1.190622        32.3985 
 228   0.0000       1.194601        32.5068 
 229   0.0000       1.202182        32.7130 
 230   0.0000       1.209160        32.9029 
 231   0.0000       1.212742        33.0004 
 232   0.0000       1.215977        33.0884 
 233   0.0000       1.229818        33.4650 
 234   0.0000       1.242123        33.7999 
 235   0.0000       1.244329        33.8599 
 236   0.0000       1.260947        34.3121 
 237   0.0000       1.264082        34.3974 
 238   0.0000       1.275154        34.6987 
 239   0.0000       1.289575        35.0911 
 240   0.0000       1.311141        35.6780 
 241   0.0000       1.322939        35.9990 
 242   0.0000       1.329589        36.1800 
 243   0.0000       1.336151        36.3585 
 244   0.0000       1.351595        36.7788 
 245   0.0000       1.362491        37.0753 
 246   0.0000       1.375814        37.4378 
 247   0.0000       1.379158        37.5288 
 248   0.0000       1.387543        37.7570 
 249   0.0000       1.400798        38.1176 
 250   0.0000       1.406524        38.2735 
 251   0.0000       1.429898        38.9095 
 252   0.0000       1.448632        39.4193 
 253   0.0000       1.472827        40.0777 
 254   0.0000       1.490178        40.5498 
 255   0.0000       1.509346        41.0714 
 256   0.0000       1.529146        41.6102 
 257   0.0000       1.546787        42.0902 
 258   0.0000       1.548301        42.1314 
 259   0.0000       1.575186        42.8630 
 260   0.0000       1.596693        43.4482 
 261   0.0000       1.612161        43.8691 
 262   0.0000       1.623477        44.1771 
 263   0.0000       1.640722        44.6463 
 264   0.0000       1.651544        44.9408 
 265   0.0000       1.677472        45.6463 
 266   0.0000       1.685136        45.8549 
 267   0.0000       1.699425        46.2437 
 268   0.0000       1.706774        46.4437 
 269   0.0000       1.712350        46.5954 
 270   0.0000       1.755050        47.7573 
 271   0.0000       1.769903        48.1615 
 272   0.0000       1.783109        48.5209 
 273   0.0000       1.797646        48.9164 
 274   0.0000       1.857294        50.5395 
 275   0.0000       1.883734        51.2590 
 276   0.0000       1.911753        52.0214 
 277   0.0000       1.914463        52.0952 
 278   0.0000       1.937095        52.7110 
 279   0.0000       1.951353        53.0990 
 280   0.0000       1.970286        53.6142 
 281   0.0000       1.984760        54.0081 
 282   0.0000       1.992612        54.2217 
 283   0.0000       1.996961        54.3401 
 284   0.0000       2.024102        55.0786 
 285   0.0000       2.039965        55.5103 
 286   0.0000       2.059654        56.0460 
 287   0.0000       2.073925        56.4344 
 288   0.0000       2.075718        56.4832 
 289   0.0000       2.083845        56.7043 
 290   0.0000       2.088868        56.8410 
 291   0.0000       2.104111        57.2558 
 292   0.0000       2.112897        57.4949 
 293   0.0000       2.121471        57.7282 
 294   0.0000       2.128563        57.9211 
 295   0.0000       2.152084        58.5612 
 296   0.0000       2.158695        58.7411 
 297   0.0000       2.171435        59.0878 
 298   0.0000       2.199129        59.8413 
 299   0.0000       2.209087        60.1123 
 300   0.0000       2.234258        60.7973 
 301   0.0000       2.247611        61.1606 
 302   0.0000       2.254805        61.3564 
 303   0.0000       2.276335        61.9422 
 304   0.0000       2.287492        62.2458 
 305   0.0000       2.291713        62.3607 
 306   0.0000       2.318655        63.0938 
 307   0.0000       2.327327        63.3298 
 308   0.0000       2.336777        63.5869 
 309   0.0000       2.341457        63.7143 
 310   0.0000       2.358413        64.1757 
 311   0.0000       2.387952        64.9795 
 312   0.0000       2.406908        65.4953 
 313   0.0000       2.430165        66.1282 
 314   0.0000       2.445832        66.5545 
 315   0.0000       2.453236        66.7559 
 316   0.0000       2.468351        67.1672 
 317   0.0000       2.480903        67.5088 
 318   0.0000       2.496487        67.9329 
 319   0.0000       2.506333        68.2008 
 320   0.0000       2.538283        69.0702 
 321   0.0000       2.555128        69.5286 
 322   0.0000       2.565921        69.8223 
 323   0.0000       2.581028        70.2334 
 324   0.0000       2.591422        70.5162 
 325   0.0000       2.597118        70.6712 
 326   0.0000       2.606197        70.9182 
 327   0.0000       2.617406        71.2232 
 328   0.0000       2.630140        71.5697 
 329   0.0000       2.632169        71.6250 
 330   0.0000       2.638446        71.7958 
 331   0.0000       2.666695        72.5645 
 332   0.0000       2.699779        73.4647 
 333   0.0000       2.711178        73.7749 
 334   0.0000       2.728399        74.2435 
 335   0.0000       2.745165        74.6997 
 336   0.0000       2.784907        75.7812 
 337   0.0000       2.797300        76.1184 
 338   0.0000       2.810412        76.4752 
 339   0.0000       2.821042        76.7645 
 340   0.0000       2.851283        77.5874 
 341   0.0000       2.858811        77.7922 
 342   0.0000       2.868199        78.0477 
 343   0.0000       2.886884        78.5561 
 344   0.0000       2.901410        78.9514 
 345   0.0000       2.911779        79.2335 
 346   0.0000       2.919501        79.4437 
 347   0.0000       2.921224        79.4906 
 348   0.0000       2.928299        79.6831 
 349   0.0000       2.949274        80.2538 
 350   0.0000       2.957201        80.4695 
 351   0.0000       2.980830        81.1125 
 352   0.0000       2.989831        81.3574 
 353   0.0000       3.015855        82.0656 
 354   0.0000       3.141949        85.4968 
 355   0.0000       3.162044        86.0436 
 356   0.0000       3.220720        87.6402 
 357   0.0000       3.251582        88.4800 
 358   0.0000       3.304109        89.9094 
 359   0.0000       3.520307        95.7924 
 360   0.0000       3.560620        96.8894 
 361   0.0000       3.745961       101.9328 
 362   0.0000       3.751094       102.0725 
 363   0.0000       3.792519       103.1997 
 364   0.0000       3.825367       104.0935 
 365   0.0000       3.989070       108.5481 
 366   0.0000      13.339401       362.9835 
 367   0.0000      13.407429       364.8347 
 368   0.0000      13.733400       373.7048 
 369   0.0000      13.752286       374.2187 
 370   0.0000      13.808684       375.7534 
 371   0.0000      13.815949       375.9511 
 372   0.0000      13.998559       380.9202 
 373   0.0000      14.047884       382.2624 
 374   0.0000      14.167229       385.5099 
 375   0.0000      14.187885       386.0720 
 376   0.0000      14.240420       387.5015 
 377   0.0000      14.249873       387.7587 
 378   0.0000      14.294026       388.9602 
 379   0.0000      14.564413       396.3178 
 380   0.0000      14.628113       398.0512 
 381   0.0000      25.667162       698.4390 
 382   0.0000      25.798401       702.0102 
 383   0.0000      25.834745       702.9991 
 384   0.0000      51.694222      1406.6713 

                    ********************************
                    * MULLIKEN POPULATION ANALYSIS *
                    ********************************

-----------------------
MULLIKEN ATOMIC CHARGES
-----------------------
   0 C :   -0.088517
   1 C :   -0.004421
   2 C :   -0.238498
   3 C :   -0.241713
   4 C :   -0.195423
   5 C :   -0.265644
   6 H :    0.200207
   7 H :    0.247876
   8 H :    0.195876
   9 H :    0.192758
  10 H :    0.195499
  11 C :   -0.478227
  12 C :   -0.523318
  13 H :    0.212565
  14 H :    0.285439
  15 C :    0.098485
  16 H :    0.270512
  17 H :    0.207949
  18 C :   -0.137347
  19 C :   -0.264571
  20 C :   -0.237436
  21 C :   -0.277998
  22 C :   -0.222103
  23 H :    0.278726
  24 H :    0.190565
  25 H :    0.176943
  26 H :    0.183938
  27 Pd:    0.166010
  28 Br:   -0.488698
  29 P :   -0.142134
  30 H :    0.129369
  31 C :    0.709473
  32 O :   -0.560310
  33 O :   -0.551888
  34 O :   -0.656155
  35 H :    0.088550
  36 H :    0.141722
  37 H :    0.401935
Sum of atomic charges:   -1.0000000

--------------------------------
MULLIKEN REDUCED ORBITAL CHARGES
--------------------------------
  0 C s       :     3.292921  s :     3.292921
      pz      :     0.949954  p :     2.760755
      px      :     0.875279
      py      :     0.935523
      dz2     :     0.006050  d :     0.034841
      dxz     :     0.006636
      dyz     :     0.004881
      dx2y2   :     0.010855
      dxy     :     0.006419
  1 C s       :     3.202806  s :     3.202806
      pz      :     0.964519  p :     2.757537
      px      :     0.908539
      py      :     0.884479
      dz2     :     0.005628  d :     0.044077
      dxz     :     0.008799
      dyz     :     0.006348
      dx2y2   :     0.010603
      dxy     :     0.012700
  2 C s       :     3.235602  s :     3.235602
      pz      :     0.975943  p :     2.959251
      px      :     0.936182
      py      :     1.047126
      dz2     :     0.005548  d :     0.043645
      dxz     :     0.007265
      dyz     :     0.003536
      dx2y2   :     0.014705
      dxy     :     0.012591
  3 C s       :     3.235346  s :     3.235346
      pz      :     0.996141  p :     2.965466
      px      :     1.033680
      py      :     0.935645
      dz2     :     0.005920  d :     0.040901
      dxz     :     0.004759
      dyz     :     0.006631
      dx2y2   :     0.014384
      dxy     :     0.009208
  4 C s       :     3.215045  s :     3.215045
      pz      :     1.003356  p :     2.938792
      px      :     0.954048
      py      :     0.981388
      dz2     :     0.004178  d :     0.041587
      dxz     :     0.007831
      dyz     :     0.005341
      dx2y2   :     0.010301
      dxy     :     0.013936
  5 C s       :     3.250288  s :     3.250288
      pz      :     1.026877  p :     2.975795
      px      :     0.931882
      py      :     1.017036
      dz2     :     0.003803  d :     0.039561
      dxz     :     0.008551
      dyz     :     0.004850
      dx2y2   :     0.010916
      dxy     :     0.011440
  6 H s       :     0.799793  s :     0.799793
  7 H s       :     0.752124  s :     0.752124
  8 H s       :     0.804124  s :     0.804124
  9 H s       :     0.807242  s :     0.807242
 10 H s       :     0.804501  s :     0.804501
 11 C s       :     3.359625  s :     3.359625
      pz      :     1.168020  p :     3.075742
      px      :     0.879415
      py      :     1.028307
      dz2     :     0.010345  d :     0.042859
      dxz     :     0.004489
      dyz     :     0.008966
      dx2y2   :     0.010967
      dxy     :     0.008092
 12 C s       :     3.374268  s :     3.374268
      pz      :     1.041510  p :     3.105700
      px      :     0.948705
      py      :     1.115485
      dz2     :     0.011950  d :     0.043350
      dxz     :     0.009131
      dyz     :     0.003740
      dx2y2   :     0.008708
      dxy     :     0.009821
 13 H s       :     0.787435  s :     0.787435
 14 H s       :     0.714561  s :     0.714561
 15 C s       :     3.166918  s :     3.166918
      pz      :     0.868365  p :     2.687227
      px      :     0.907625
      py      :     0.911238
      dz2     :     0.011028  d :     0.047369
      dxz     :     0.012559
      dyz     :     0.007270
      dx2y2   :     0.008298
      dxy     :     0.008213
 16 H s       :     0.729488  s :     0.729488
 17 H s       :     0.792051  s :     0.792051
 18 C s       :     3.311688  s :     3.311688
      pz      :     0.852916  p :     2.787459
      px      :     0.967537
      py      :     0.967005
      dz2     :     0.008943  d :     0.038200
      dxz     :     0.009762
      dyz     :     0.007951
      dx2y2   :     0.007083
      dxy     :     0.004461
 19 C s       :     3.270376  s :     3.270376
      pz      :     1.088436  p :     2.953980
      px      :     0.916775
      py      :     0.948769
      dz2     :     0.008397  d :     0.040215
      dxz     :     0.007707
      dyz     :     0.008717
      dx2y2   :     0.007594
      dxy     :     0.007799
 20 C s       :     3.246963  s :     3.246963
      pz      :     0.964170  p :     2.949762
      px      :     1.017829
      py      :     0.967763
      dz2     :     0.008349  d :     0.040711
      dxz     :     0.012093
      dyz     :     0.007599
      dx2y2   :     0.006908
      dxy     :     0.005762
 21 C s       :     3.264602  s :     3.264602
      pz      :     1.006355  p :     2.972748
      px      :     0.952819
      py      :     1.013574
      dz2     :     0.011635  d :     0.040648
      dxz     :     0.008510
      dyz     :     0.006347
      dx2y2   :     0.007511
      dxy     :     0.006647
 22 C s       :     3.232356  s :     3.232356
      pz      :     0.935056  p :     2.949061
      px      :     1.020594
      py      :     0.993411
      dz2     :     0.011090  d :     0.040686
      dxz     :     0.009153
      dyz     :     0.007927
      dx2y2   :     0.003999
      dxy     :     0.008517
 23 H s       :     0.721274  s :     0.721274
 24 H s       :     0.809435  s :     0.809435
 25 H s       :     0.823057  s :     0.823057
 26 H s       :     0.816062  s :     0.816062
 27 Pds       :     2.468906  s :     2.468906
      pz      :     2.158174  p :     6.399776
      px      :     2.134626
      py      :     2.106976
      dz2     :     1.767211  d :     8.962813
      dxz     :     1.962173
      dyz     :     1.838735
      dx2y2   :     1.962595
      dxy     :     1.432099
      f0      :     0.000501  f :     0.002495
      f+1     :     0.000437
      f-1     :     0.000343
      f+2     :     0.000120
      f-2     :     0.000472
      f+3     :     0.000379
      f-3     :     0.000243
 28 Brs       :     7.958251  s :     7.958251
      pz      :     5.948062  p :    17.519852
      px      :     5.818069
      py      :     5.753721
      dz2     :     2.001809  d :    10.010595
      dxz     :     2.001129
      dyz     :     2.001650
      dx2y2   :     2.002425
      dxy     :     2.003581
 29 P s       :     5.583690  s :     5.583690
      pz      :     3.076835  p :     9.351502
      px      :     3.062928
      py      :     3.211739
      dz2     :     0.029418  d :     0.206943
      dxz     :     0.051169
      dyz     :     0.047243
      dx2y2   :     0.056439
      dxy     :     0.022674
 30 H s       :     0.870631  s :     0.870631
 31 C s       :     2.875855  s :     2.875855
      pz      :     0.769319  p :     2.268569
      px      :     0.786439
      py      :     0.712811
      dz2     :     0.024652  d :     0.146103
      dxz     :     0.032424
      dyz     :     0.019053
      dx2y2   :     0.040440
      dxy     :     0.029534
 32 O s       :     3.813245  s :     3.813245
      pz      :     1.676290  p :     4.722487
      px      :     1.320332
      py      :     1.725865
      dz2     :     0.002879  d :     0.024578
      dxz     :     0.006417
      dyz     :     0.000611
      dx2y2   :     0.008374
      dxy     :     0.006297
 33 O s       :     3.814492  s :     3.814492
      pz      :     1.359588  p :     4.712884
      px      :     1.623794
      py      :     1.729501
      dz2     :     0.005941  d :     0.024512
      dxz     :     0.008126
      dyz     :     0.003534
      dx2y2   :     0.003100
      dxy     :     0.003810
 34 O s       :     3.831217  s :     3.831217
      pz      :     1.687319  p :     4.798446
      px      :     1.666954
      py      :     1.444173
      dz2     :     0.002235  d :     0.026492
      dxz     :     0.008830
      dyz     :     0.002706
      dx2y2   :     0.007303
      dxy     :     0.005418
 35 H s       :     0.911450  s :     0.911450
 36 H s       :     0.858278  s :     0.858278
 37 H s       :     0.598065  s :     0.598065


                     *******************************
                     * LOEWDIN POPULATION ANALYSIS *
                     *******************************

----------------------
LOEWDIN ATOMIC CHARGES
----------------------
   0 C :   -0.063533
   1 C :   -0.047867
   2 C :   -0.155644
   3 C :   -0.161928
   4 C :   -0.158330
   5 C :   -0.147180
   6 H :    0.240296
   7 H :    0.143934
   8 H :    0.125366
   9 H :    0.125132
  10 H :    0.125298
  11 C :   -0.216529
  12 C :   -0.213889
  13 H :    0.124105
  14 H :    0.163470
  15 C :   -0.055948
  16 H :    0.152574
  17 H :    0.121319
  18 C :   -0.014525
  19 C :   -0.123380
  20 C :   -0.146878
  21 C :   -0.148388
  22 C :   -0.164529
  23 H :    0.167363
  24 H :    0.123546
  25 H :    0.119995
  26 H :    0.121869
  27 Pd:   -0.783506
  28 Br:   -0.304571
  29 P :    0.410851
  30 H :    0.057944
  31 C :    0.229763
  32 O :   -0.390461
  33 O :   -0.248535
  34 O :   -0.407931
  35 H :    0.030699
  36 H :    0.069406
  37 H :    0.300621

-------------------------------
LOEWDIN REDUCED ORBITAL CHARGES
-------------------------------
  0 C s       :     2.960342  s :     2.960342
      pz      :     0.954741  p :     3.026103
      px      :     1.051605
      py      :     1.019758
      dz2     :     0.011293  d :     0.077088
      dxz     :     0.014034
      dyz     :     0.010538
      dx2y2   :     0.024876
      dxy     :     0.016347
  1 C s       :     2.872015  s :     2.872015
      pz      :     1.000133  p :     3.074328
      px      :     1.045601
      py      :     1.028594
      dz2     :     0.011431  d :     0.101524
      dxz     :     0.018971
      dyz     :     0.014513
      dx2y2   :     0.025216
      dxy     :     0.031393
  2 C s       :     2.890213  s :     2.890213
      pz      :     0.986671  p :     3.165176
      px      :     1.102220
      py      :     1.076285
      dz2     :     0.009883  d :     0.100255
      dxz     :     0.017196
      dyz     :     0.007278
      dx2y2   :     0.034854
      dxy     :     0.031044
  3 C s       :     2.889916  s :     2.889916
      pz      :     1.023212  p :     3.177904
      px      :     1.068152
      py      :     1.086540
      dz2     :     0.011015  d :     0.094108
      dxz     :     0.010178
      dyz     :     0.016136
      dx2y2   :     0.033357
      dxy     :     0.023421
  4 C s       :     2.879558  s :     2.879558
      pz      :     1.018288  p :     3.181998
      px      :     1.095868
      py      :     1.067841
      dz2     :     0.008275  d :     0.096774
      dxz     :     0.017035
      dyz     :     0.010781
      dx2y2   :     0.027309
      dxy     :     0.033375
  5 C s       :     2.898378  s :     2.898378
      pz      :     1.032602  p :     3.159898
      px      :     1.085371
      py      :     1.041925
      dz2     :     0.007216  d :     0.088904
      dxz     :     0.019525
      dyz     :     0.008323
      dx2y2   :     0.026162
      dxy     :     0.027678
  6 H s       :     0.759704  s :     0.759704
  7 H s       :     0.856066  s :     0.856066
  8 H s       :     0.874634  s :     0.874634
  9 H s       :     0.874868  s :     0.874868
 10 H s       :     0.874702  s :     0.874702
 11 C s       :     2.904875  s :     2.904875
      pz      :     1.124359  p :     3.225963
      px      :     1.023842
      py      :     1.077762
      dz2     :     0.018941  d :     0.085692
      dxz     :     0.009252
      dyz     :     0.015850
      dx2y2   :     0.022646
      dxy     :     0.019002
 12 C s       :     2.895976  s :     2.895976
      pz      :     1.083449  p :     3.229844
      px      :     1.045598
      py      :     1.100797
      dz2     :     0.023002  d :     0.088069
      dxz     :     0.019806
      dyz     :     0.006974
      dx2y2   :     0.017157
      dxy     :     0.021130
 13 H s       :     0.875895  s :     0.875895
 14 H s       :     0.836530  s :     0.836530
 15 C s       :     2.836305  s :     2.836305
      pz      :     1.055079  p :     3.104201
      px      :     1.037327
      py      :     1.011794
      dz2     :     0.026743  d :     0.115442
      dxz     :     0.031439
      dyz     :     0.018517
      dx2y2   :     0.018595
      dxy     :     0.020148
 16 H s       :     0.847426  s :     0.847426
 17 H s       :     0.878681  s :     0.878681
 18 C s       :     2.900096  s :     2.900096
      pz      :     1.036232  p :     3.028016
      px      :     1.038878
      py      :     0.952905
      dz2     :     0.021860  d :     0.086413
      dxz     :     0.023967
      dyz     :     0.017700
      dx2y2   :     0.013457
      dxy     :     0.009430
 19 C s       :     2.886682  s :     2.886682
      pz      :     1.069525  p :     3.145523
      px      :     1.048092
      py      :     1.027906
      dz2     :     0.018392  d :     0.091175
      dxz     :     0.019198
      dyz     :     0.016585
      dx2y2   :     0.017311
      dxy     :     0.019690
 20 C s       :     2.890197  s :     2.890197
      pz      :     1.069050  p :     3.163702
      px      :     1.046491
      py      :     1.048161
      dz2     :     0.020468  d :     0.092979
      dxz     :     0.025711
      dyz     :     0.018955
      dx2y2   :     0.014447
      dxy     :     0.013397
 21 C s       :     2.886180  s :     2.886180
      pz      :     1.060750  p :     3.169147
      px      :     1.064274
      py      :     1.044123
      dz2     :     0.024655  d :     0.093061
      dxz     :     0.021585
      dyz     :     0.013628
      dx2y2   :     0.016931
      dxy     :     0.016262
 22 C s       :     2.884667  s :     2.884667
      pz      :     1.088515  p :     3.186336
      px      :     1.057020
      py      :     1.040801
      dz2     :     0.027059  d :     0.093525
      dxz     :     0.023189
      dyz     :     0.019113
      dx2y2   :     0.008392
      dxy     :     0.015773
 23 H s       :     0.832637  s :     0.832637
 24 H s       :     0.876454  s :     0.876454
 25 H s       :     0.880005  s :     0.880005
 26 H s       :     0.878131  s :     0.878131
 27 Pds       :     2.527969  s :     2.527969
      pz      :     2.320887  p :     6.942159
      px      :     2.324572
      py      :     2.296701
      dz2     :     1.840781  d :     9.310046
      dxz     :     2.019574
      dyz     :     1.901463
      dx2y2   :     2.006237
      dxy     :     1.541991
      f0      :     0.000660  f :     0.003332
      f+1     :     0.000622
      f-1     :     0.000452
      f+2     :     0.000143
      f-2     :     0.000643
      f+3     :     0.000501
      f-3     :     0.000309
 28 Brs       :     7.849688  s :     7.849688
      pz      :     5.932007  p :    17.441487
      px      :     5.789329
      py      :     5.720152
      dz2     :     2.002362  d :    10.013396
      dxz     :     2.001423
      dyz     :     2.001711
      dx2y2   :     2.002813
      dxy     :     2.005088
 29 P s       :     5.224903  s :     5.224903
      pz      :     3.012555  p :     9.118617
      px      :     2.998729
      py      :     3.107333
      dz2     :     0.035010  d :     0.245629
      dxz     :     0.060931
      dyz     :     0.057124
      dx2y2   :     0.065739
      dxy     :     0.026825
 30 H s       :     0.942056  s :     0.942056
 31 C s       :     2.826300  s :     2.826300
      pz      :     0.846074  p :     2.623612
      px      :     0.960232
      py      :     0.817306
      dz2     :     0.052969  d :     0.320324
      dxz     :     0.071236
      dyz     :     0.040972
      dx2y2   :     0.094331
      dxy     :     0.060816
 32 O s       :     3.576756  s :     3.576756
      pz      :     1.660034  p :     4.769105
      px      :     1.405332
      py      :     1.703739
      dz2     :     0.006438  d :     0.044600
      dxz     :     0.009602
      dyz     :     0.000849
      dx2y2   :     0.017639
      dxy     :     0.010072
 33 O s       :     3.485476  s :     3.485476
      pz      :     1.389896  p :     4.712668
      px      :     1.627071
      py      :     1.695701
      dz2     :     0.013033  d :     0.050391
      dxz     :     0.019082
      dyz     :     0.007640
      dx2y2   :     0.005116
      dxy     :     0.005519
 34 O s       :     3.553545  s :     3.553545
      pz      :     1.675866  p :     4.810438
      px      :     1.662225
      py      :     1.472347
      dz2     :     0.003849  d :     0.043948
      dxz     :     0.012077
      dyz     :     0.006579
      dx2y2   :     0.012012
      dxy     :     0.009431
 35 H s       :     0.969301  s :     0.969301
 36 H s       :     0.930594  s :     0.930594
 37 H s       :     0.699379  s :     0.699379


                      *****************************
                      * MAYER POPULATION ANALYSIS *
                      *****************************

  NA   - Mulliken gross atomic population
  ZA   - Total nuclear charge
  QA   - Mulliken gross atomic charge
  VA   - Mayer's total valence
  BVA  - Mayer's bonded valence
  FA   - Mayer's free valence

  ATOM       NA         ZA         QA         VA         BVA        FA
  0 C      6.0885     6.0000    -0.0885     3.7593     3.7593     0.0000
  1 C      6.0044     6.0000    -0.0044     3.8366     3.8366    -0.0000
  2 C      6.2385     6.0000    -0.2385     3.8121     3.8121     0.0000
  3 C      6.2417     6.0000    -0.2417     3.8167     3.8167    -0.0000
  4 C      6.1954     6.0000    -0.1954     3.8300     3.8300    -0.0000
  5 C      6.2656     6.0000    -0.2656     3.8490     3.8490     0.0000
  6 H      0.7998     1.0000     0.2002     0.9558     0.9558     0.0000
  7 H      0.7521     1.0000     0.2479     0.8923     0.8923    -0.0000
  8 H      0.8041     1.0000     0.1959     0.9224     0.9224     0.0000
  9 H      0.8072     1.0000     0.1928     0.9204     0.9204     0.0000
 10 H      0.8045     1.0000     0.1955     0.9157     0.9157    -0.0000
 11 C      6.4782     6.0000    -0.4782     3.6631     3.6631     0.0000
 12 C      6.5233     6.0000    -0.5233     3.6851     3.6851     0.0000
 13 H      0.7874     1.0000     0.2126     0.9113     0.9113    -0.0000
 14 H      0.7146     1.0000     0.2854     0.8730     0.8730     0.0000
 15 C      5.9015     6.0000     0.0985     3.7289     3.7289     0.0000
 16 H      0.7295     1.0000     0.2705     0.8922     0.8922     0.0000
 17 H      0.7921     1.0000     0.2079     0.9085     0.9085    -0.0000
 18 C      6.1373     6.0000    -0.1373     3.7696     3.7696    -0.0000
 19 C      6.2646     6.0000    -0.2646     3.7770     3.7770    -0.0000
 20 C      6.2374     6.0000    -0.2374     3.8136     3.8136     0.0000
 21 C      6.2780     6.0000    -0.2780     3.8274     3.8274     0.0000
 22 C      6.2221     6.0000    -0.2221     3.8217     3.8217    -0.0000
 23 H      0.7213     1.0000     0.2787     0.9060     0.9060    -0.0000
 24 H      0.8094     1.0000     0.1906     0.9212     0.9212     0.0000
 25 H      0.8231     1.0000     0.1769     0.9273     0.9273     0.0000
 26 H      0.8161     1.0000     0.1839     0.9221     0.9221     0.0000
 27 Pd    17.8340    18.0000     0.1660     2.7940     2.7940    -0.0000
 28 Br    35.4887    35.0000    -0.4887     0.8575     0.8575    -0.0000
 29 P     15.1421    15.0000    -0.1421     3.7197     3.7197     0.0000
 30 H      0.8706     1.0000     0.1294     0.9530     0.9530     0.0000
 31 C      5.2905     6.0000     0.7095     4.1632     4.1632     0.0000
 32 O      8.5603     8.0000    -0.5603     2.0062     2.0062    -0.0000
 33 O      8.5519     8.0000    -0.5519     2.0201     2.0201     0.0000
 34 O      8.6562     8.0000    -0.6562     1.8790     1.8790    -0.0000
 35 H      0.9115     1.0000     0.0885     0.9549     0.9549    -0.0000
 36 H      0.8583     1.0000     0.1417     0.9542     0.9542     0.0000
 37 H      0.5981     1.0000     0.4019     0.8258     0.8258     0.0000

  Mayer bond orders larger than 0.100000
B(  0-C ,  1-C ) :   1.4681 B(  0-C ,  2-C ) :   1.3944 B(  0-C ,  6-H ) :   0.6978 
B(  1-C ,  5-C ) :   1.3560 B(  1-C , 11-C ) :   0.9625 B(  2-C ,  3-C ) :   1.4298 
B(  2-C ,  7-H ) :   0.9036 B(  3-C ,  4-C ) :   1.4034 B(  3-C ,  9-H ) :   0.9248 
B(  4-C ,  5-C ) :   1.4729 B(  4-C , 10-H ) :   0.9244 B(  5-C ,  8-H ) :   0.9181 
B( 11-C , 12-C ) :   0.9193 B( 11-C , 13-H ) :   0.9279 B( 11-C , 14-H ) :   0.8879 
B( 12-C , 15-C ) :   0.9810 B( 12-C , 16-H ) :   0.8895 B( 12-C , 17-H ) :   0.9279 
B( 15-C , 18-C ) :   1.3300 B( 15-C , 21-C ) :   1.4265 B( 18-C , 19-C ) :   1.4442 
B( 18-C , 27-Pd) :   0.7520 B( 18-C , 28-Br) :   0.1030 B( 19-C , 20-C ) :   1.3778 
B( 19-C , 23-H ) :   0.8702 B( 20-C , 22-C ) :   1.4556 B( 20-C , 24-H ) :   0.9262 
B( 21-C , 22-C ) :   1.3964 B( 21-C , 25-H ) :   0.9259 B( 22-C , 26-H ) :   0.9289 
B( 27-Pd, 28-Br) :   0.4383 B( 27-Pd, 29-P ) :   0.7000 B( 27-Pd, 33-O ) :   0.4194 
B( 28-Br, 29-P ) :   0.1293 B( 29-P , 30-H ) :   0.9244 B( 29-P , 35-H ) :   0.9032 
B( 29-P , 36-H ) :   0.9298 B( 31-C , 32-O ) :   1.7357 B( 31-C , 33-O ) :   1.4305 
B( 31-C , 34-O ) :   0.9583 B( 34-O , 37-H ) :   0.7888 


------------------
HIRSHFELD ANALYSIS
------------------

Total integrated alpha density =     99.999619483
Total integrated beta density  =     99.999619483

  ATOM     CHARGE      SPIN    
   0 C   -0.069707    0.000000
   1 C    0.000448    0.000000
   2 C   -0.058979    0.000000
   3 C   -0.065023    0.000000
   4 C   -0.066898    0.000000
   5 C   -0.060676    0.000000
   6 H    0.096166    0.000000
   7 H    0.039722    0.000000
   8 H    0.030900    0.000000
   9 H    0.029275    0.000000
  10 H    0.033873    0.000000
  11 C   -0.045717    0.000000
  12 C   -0.054574    0.000000
  13 H    0.024374    0.000000
  14 H    0.029345    0.000000
  15 C   -0.023088    0.000000
  16 H    0.011102    0.000000
  17 H    0.019262    0.000000
  18 C   -0.112951    0.000000
  19 C   -0.062317    0.000000
  20 C   -0.060707    0.000000
  21 C   -0.066215    0.000000
  22 C   -0.073535    0.000000
  23 H    0.035987    0.000000
  24 H    0.030631    0.000000
  25 H    0.024561    0.000000
  26 H    0.028552    0.000000
  27 Pd   0.450478    0.000000
  28 Br  -0.506432    0.000000
  29 P    0.133114    0.000000
  30 H    0.008298    0.000000
  31 C    0.247496    0.000000
  32 O   -0.425798    0.000000
  33 O   -0.388014    0.000000
  34 O   -0.299255    0.000000
  35 H   -0.006189    0.000000
  36 H    0.019078    0.000000
  37 H    0.154174    0.000000

  TOTAL  -0.999239    0.000000

-------
TIMINGS
-------

Total SCF time: 0 days 0 hours 11 min 20 sec 

Total time                  ....     680.464 sec
Sum of individual times     ....     679.817 sec  ( 99.9%)

Fock matrix formation       ....     668.998 sec  ( 98.3%)
  Split-RI-J                ....      70.773 sec  ( 10.6% of F)
  Chain of spheres X        ....     550.937 sec  ( 82.4% of F)
  XC integration            ....      47.062 sec  (  7.0% of F)
    Basis function eval.    ....      15.206 sec  ( 32.3% of XC)
    Density eval.           ....      17.124 sec  ( 36.4% of XC)
    XC-Functional eval.     ....       2.897 sec  (  6.2% of XC)
    XC-Potential eval.      ....      10.782 sec  ( 22.9% of XC)
Diagonalization             ....       2.505 sec  (  0.4%)
Density matrix formation    ....       0.121 sec  (  0.0%)
Population analysis         ....       1.008 sec  (  0.1%)
Initial guess               ....       0.161 sec  (  0.0%)
Orbital Transformation      ....       0.000 sec  (  0.0%)
Orbital Orthonormalization  ....       0.000 sec  (  0.0%)
DIIS solution               ....       1.036 sec  (  0.2%)
Grid generation             ....       5.989 sec  (  0.9%)

Maximum memory used throughout the entire SCF-calculation: 177.0 MB


-------------------------------------------------------------------------------
                          DFT DISPERSION CORRECTION                            
                                                                               
                              DFTD3 V3.1  Rev 1                                
                          USING Becke-Johnson damping                          
-------------------------------------------------------------------------------
The PBEh-3c composite method is recognized
Using three-body term ABC
Active option DFTDOPT                   ...         4   

molecular C6(AA) [au] = 24533.615060 


            DFT-D V3
 parameters
 s6 scaling factor         :     1.0000 
 a1 scaling factor         :     0.4860 
 s8 scaling factor         :     0.0000 
 a2 scaling factor         :     4.5000 
 Damping factor alpha9(ATM):    16.0000 
 ad hoc parameters k1-k3   :    16.0000     1.3333    -4.0000 

 Edisp/kcal,au: -19.496085416845  -0.031068986434 
 E6   /kcal   : -19.705689803 
 E8   /kcal   :  -0.000000000 
 E6(ABC)      :   0.209604387 
 % E8         :   0.000000000 
 % E6(ABC)    :  -1.075110116 

-------------------------   ----------------
Dispersion correction           -0.031068986
-------------------------   ----------------

 ** NOTE ** -> element pd will be treated as ni
------------------   -----------------
gCP correction             0.064718295
------------------   -----------------

-------------------------   --------------------
FINAL SINGLE POINT ENERGY     -3847.483157483492
-------------------------   --------------------

------------------------------------------------------------------------------
                         ORCA SCF GRADIENT CALCULATION
------------------------------------------------------------------------------

 ... reading COSX grid (gridx3)
Gradient of the Kohn-Sham DFT energy:
Kohn-Sham wavefunction type      ... RKS
Hartree-Fock exchange scaling    ...    0.420
Number of operators              ...    1
Number of atoms                  ...   38
Basis set dimensions             ...  385
Integral neglect threshold       ... 2.5e-11
Integral primitive cutoff        ... 2.5e-12
SHARK Integral package           ... ON

Nuc. rep. gradient       (SHARK) ... done (  0.0 sec)
HCore & Overlap gradient (SHARK) ... done (  1.5 sec)
ECP gradient             (SHARK) ... done (  1.5 sec)
RI-J gradient            (SHARK) ... done (  6.3 sec)
COSX-gradient                    ... done ( 60.5 sec)
Exchange-correlation gradient    ... done
Dispersion correction            ... done
gCP correction                   ... done

------------------
CARTESIAN GRADIENT
------------------

   1   C   :   -0.011706552   -0.007383304    0.027393623
   2   C   :    0.030483648   -0.013131328   -0.002893931
   3   C   :   -0.005565306   -0.007859430   -0.021957237
   4   C   :    0.024902777    0.000578930    0.007228839
   5   C   :    0.004573130    0.006973767    0.006327844
   6   C   :   -0.039014081    0.033790509    0.023532451
   7   H   :   -0.023109856   -0.025362970   -0.059055302
   8   H   :    0.012474883    0.013484053    0.022248794
   9   H   :   -0.004836684   -0.004558130   -0.006262118
  10   H   :   -0.000678177    0.003960818   -0.012106853
  11   H   :    0.008868709   -0.007752799   -0.005237279
  12   C   :   -0.005369321    0.030078096    0.005081658
  13   C   :    0.028488743   -0.011420554   -0.001175330
  14   H   :    0.002497899   -0.009132308   -0.005090664
  15   H   :   -0.013809748   -0.004418252    0.015941396
  16   C   :   -0.001220206   -0.001136925    0.026451726
  17   H   :    0.002473997    0.010333556    0.000747487
  18   H   :   -0.003829444   -0.000276967   -0.010057171
  19   C   :    0.018713496    0.025055820    0.010559131
  20   C   :   -0.000780635   -0.008246692   -0.009646460
  21   C   :   -0.003258365    0.012095026    0.014422844
  22   C   :   -0.011450250    0.006571577   -0.007658947
  23   C   :    0.011035436   -0.011550007   -0.006253265
  24   H   :    0.004443719   -0.000941981    0.006129314
  25   H   :    0.001227970    0.000242829   -0.001654394
  26   H   :    0.004974938   -0.008526795    0.002415788
  27   H   :   -0.006369741    0.004754779   -0.002038943
  28   Pd  :   -0.033063982    0.013975777   -0.035422966
  29   Br  :    0.001702386   -0.003365588   -0.005141190
  30   P   :    0.015280293   -0.014733075    0.018480618
  31   H   :    0.001741145    0.005696937   -0.010105039
  32   C   :   -0.080661796   -0.076683350   -0.066138960
  33   O   :    0.096817624    0.013650611    0.002012573
  34   O   :   -0.029322093   -0.010274610    0.089071241
  35   O   :    0.017671106    0.045975315   -0.003614346
  36   H   :   -0.009825028   -0.003940318   -0.005585251
  37   H   :    0.000934444   -0.002223715   -0.000724635
  38   H   :   -0.005657316    0.007688518    0.000045685

Difference to translation invariance:
           :   -0.0002222353    0.0019878208    0.0002707299

Difference to rotation invariance:
           :    0.0026628390   -0.0004828438   -0.0071644747

Norm of the cartesian gradient     ...    0.2444279646
RMS gradient                       ...    0.0228927764
MAX gradient                       ...    0.0968176241

-------
TIMINGS
-------

Total SCF gradient time            ...       83.130 sec

One electron gradient       ....       3.055 sec  (  3.7%)
RI-J Coulomb gradient       ....       6.265 sec  (  7.5%)
COSX gradient               ....      60.469 sec  ( 72.7%)
XC gradient                 ....      10.532 sec  ( 12.7%)

Maximum memory used throughout the entire SCFGRAD-calculation: 142.7 MB

                            ***************************************
                            *     ORCA property calculations      *
                            ***************************************

                                    ---------------------
                                    Active property flags
                                    ---------------------
   (+) Dipole Moment


------------------------------------------------------------------------------
                       ORCA ELECTRIC PROPERTIES CALCULATION
------------------------------------------------------------------------------

Dipole Moment Calculation                       ... on
Quadrupole Moment Calculation                   ... off
Polarizability Calculation                      ... off
GBWName                                         ... 2_2_orca.gbw
Electron density                                ... 2_2_orca.scfp
The origin for moment calculation is the CENTER OF MASS  = (-0.221080, -1.973376 -1.186692)

-------------
DIPOLE MOMENT
-------------
                                X             Y             Z
Electronic contribution:     10.45880     -73.43701     -44.93243
Nuclear contribution   :     -9.75014      74.52269      47.83358
                        -----------------------------------------
Total Dipole Moment    :      0.70866       1.08568       2.90115
                        -----------------------------------------
Magnitude (a.u.)       :      3.17766
Magnitude (Debye)      :      8.07698



--------------------
Rotational spectrum 
--------------------
 
Rotational constants in cm-1:     0.006749     0.005883     0.004155 
Rotational constants in MHz :   202.315099   176.381371   124.549426 

 Dipole components along the rotational axes: 
x,y,z [a.u.] :     1.393424     2.239264     1.772458 
x,y,z [Debye]:     3.541802     5.691758     4.505229 

 

Timings for individual modules:

Sum of individual times         ...      765.022 sec (=  12.750 min)
GTO integral calculation        ...        1.358 sec (=   0.023 min)   0.2 %
SCF iterations                  ...      680.493 sec (=  11.342 min)  89.0 %
SCF Gradient evaluation         ...       83.170 sec (=   1.386 min)  10.9 %
                             ****ORCA TERMINATED NORMALLY****
TOTAL RUN TIME: 0 days 0 hours 12 minutes 45 seconds 488 msec
