
                                 *****************
                                 * O   R   C   A *
                                 *****************

                                            #,                                       
                                            ###                                      
                                            ####                                     
                                            #####                                    
                                            ######                                   
                                           ########,                                 
                                     ,,################,,,,,                         
                               ,,#################################,,                 
                          ,,##########################################,,             
                       ,#########################################, ''#####,          
                    ,#############################################,,   '####,        
                  ,##################################################,,,,####,       
                ,###########''''           ''''###############################       
              ,#####''   ,,,,##########,,,,          '''####'''          '####       
            ,##' ,,,,###########################,,,                        '##       
           ' ,,###''''                  '''############,,,                           
         ,,##''                                '''############,,,,        ,,,,,,###''
      ,#''                                            '''#######################'''  
     '                                                          ''''####''''         
             ,#######,   #######,   ,#######,      ##                                
            ,#'     '#,  ##    ##  ,#'     '#,    #''#        ######   ,####,        
            ##       ##  ##   ,#'  ##            #'  '#       #        #'  '#        
            ##       ##  #######   ##           ,######,      #####,   #    #        
            '#,     ,#'  ##    ##  '#,     ,#' ,#      #,         ##   #,  ,#        
             '#######'   ##     ##  '#######'  #'      '#     #####' # '####'        



                  #######################################################
                  #                        -***-                        #
                  #          Department of theory and spectroscopy      #
                  #    Directorship and core code : Frank Neese         #
                  #        Max Planck Institute fuer Kohlenforschung    #
                  #                Kaiser Wilhelm Platz 1               #
                  #                 D-45470 Muelheim/Ruhr               #
                  #                      Germany                        #
                  #                                                     #
                  #                  All rights reserved                #
                  #                        -***-                        #
                  #######################################################


                         Program Version 5.0.3 -  RELEASE  -


 With contributions from (in alphabetic order):
   Daniel Aravena         : Magnetic Suceptibility
   Michael Atanasov       : Ab Initio Ligand Field Theory (pilot matlab implementation)
   Alexander A. Auer      : GIAO ZORA, VPT2 properties, NMR spectrum
   Ute Becker             : Parallelization
   Giovanni Bistoni       : ED, misc. LED, open-shell LED, HFLD
   Martin Brehm           : Molecular dynamics
   Dmytro Bykov           : SCF Hessian
   Vijay G. Chilkuri      : MRCI spin determinant printing, contributions to CSF-ICE
   Dipayan Datta          : RHF DLPNO-CCSD density
   Achintya Kumar Dutta   : EOM-CC, STEOM-CC
   Dmitry Ganyushin       : Spin-Orbit,Spin-Spin,Magnetic field MRCI
   Miquel Garcia          : C-PCM and meta-GGA Hessian, CC/C-PCM, Gaussian charge scheme
   Yang Guo               : DLPNO-NEVPT2, F12-NEVPT2, CIM, IAO-localization
   Andreas Hansen         : Spin unrestricted coupled pair/coupled cluster methods
   Benjamin Helmich-Paris : MC-RPA, TRAH-SCF, COSX integrals
   Lee Huntington         : MR-EOM, pCC
   Robert Izsak           : Overlap fitted RIJCOSX, COSX-SCS-MP3, EOM
   Marcus Kettner         : VPT2
   Christian Kollmar      : KDIIS, OOCD, Brueckner-CCSD(T), CCSD density, CASPT2, CASPT2-K
   Simone Kossmann        : Meta GGA functionals, TD-DFT gradient, OOMP2, MP2 Hessian
   Martin Krupicka        : Initial AUTO-CI
   Lucas Lang             : DCDCAS
   Marvin Lechner         : AUTO-CI (C++ implementation), FIC-MRCC
   Dagmar Lenk            : GEPOL surface, SMD
   Dimitrios Liakos       : Extrapolation schemes; Compound Job, initial MDCI parallelization
   Dimitrios Manganas     : Further ROCIS development; embedding schemes
   Dimitrios Pantazis     : SARC Basis sets
   Anastasios Papadopoulos: AUTO-CI, single reference methods and gradients
   Taras Petrenko         : DFT Hessian,TD-DFT gradient, ASA, ECA, R-Raman, ABS, FL, XAS/XES, NRVS
   Peter Pinski           : DLPNO-MP2, DLPNO-MP2 Gradient
   Christoph Reimann      : Effective Core Potentials
   Marius Retegan         : Local ZFS, SOC
   Christoph Riplinger    : Optimizer, TS searches, QM/MM, DLPNO-CCSD(T), (RO)-DLPNO pert. Triples
   Tobias Risthaus        : Range-separated hybrids, TD-DFT gradient, RPA, STAB
   Michael Roemelt        : Original ROCIS implementation
   Masaaki Saitow         : Open-shell DLPNO-CCSD energy and density
   Barbara Sandhoefer     : DKH picture change effects
   Avijit Sen             : IP-ROCIS
   Kantharuban Sivalingam : CASSCF convergence, NEVPT2, FIC-MRCI
   Bernardo de Souza      : ESD, SOC TD-DFT
   Georgi Stoychev        : AutoAux, RI-MP2 NMR, DLPNO-MP2 response
   Willem Van den Heuvel  : Paramagnetic NMR
   Boris Wezisla          : Elementary symmetry handling
   Frank Wennmohs         : Technical directorship


 We gratefully acknowledge several colleagues who have allowed us to
 interface, adapt or use parts of their codes:
   Stefan Grimme, W. Hujo, H. Kruse, P. Pracht,  : VdW corrections, initial TS optimization,
                  C. Bannwarth, S. Ehlert          DFT functionals, gCP, sTDA/sTD-DF
   Ed Valeev, F. Pavosevic, A. Kumar             : LibInt (2-el integral package), F12 methods
   Garnet Chan, S. Sharma, J. Yang, R. Olivares  : DMRG
   Ulf Ekstrom                                   : XCFun DFT Library
   Mihaly Kallay                                 : mrcc  (arbitrary order and MRCC methods)
   Jiri Pittner, Ondrej Demel                    : Mk-CCSD
   Frank Weinhold                                : gennbo (NPA and NBO analysis)
   Christopher J. Cramer and Donald G. Truhlar   : smd solvation model
   Lars Goerigk                                  : TD-DFT with DH, B97 family of functionals
   V. Asgeirsson, H. Jonsson                     : NEB implementation
   FAccTs GmbH                                   : IRC, NEB, NEB-TS, DLPNO-Multilevel, CI-OPT
                                                   MM, QMMM, 2- and 3-layer-ONIOM, Crystal-QMMM,
                                                   LR-CPCM, SF, NACMEs, symmetry and pop. for TD-DFT,
                                                   nearIR, NL-DFT gradient (VV10), updates on ESD,
                                                   ML-optimized integration grids
   S Lehtola, MJT Oliveira, MAL Marques          : LibXC Library
   Liviu Ungur et al                             : ANISO software


 Your calculation uses the libint2 library for the computation of 2-el integrals
 For citations please refer to: http://libint.valeyev.net

 Your ORCA version has been built with support for libXC version: 5.1.0
 For citations please refer to: https://tddft.org/programs/libxc/

 This ORCA versions uses:
   CBLAS   interface :  Fast vector & matrix operations
   LAPACKE interface :  Fast linear algebra routines
   SCALAPACK package :  Parallel linear algebra routines
   Shared memory     :  Shared parallel matrices
   BLAS/LAPACK       :  OpenBLAS 0.3.15  USE64BITINT DYNAMIC_ARCH NO_AFFINITY Prescott SINGLE_THREADED
        Core in use  :  Prescott
   Copyright (c) 2011-2014, The OpenBLAS Project


Your calculation utilizes the geometrical counterpoise correction gCP
Please cite in your paper:
H.Kruse, S. Grimme J.Chem.Phys., 136, (2012), 154101 
   

Your calculation utilizes the atom-pairwise dispersion correction
with the Becke-Johnson damping scheme (D3BJ)
Cite in your paper:
S.Grimme, S.Ehrlich, L.Goerigk, J Comput Chem, (2011), 32, 1456–1465 
S.Grimme, J.Antony, S.Ehrlich and H.Krieg, J.Chem.Phys., 132, (2010), 154104 
   

Your calculation employs the composite approach PBEh-3c.
Please cite in your paper:
S. Grimme, J. G. Brandenburg, C. Bannwarth, A. Hansen J.Chem.Phys., 143, (2015), 054107 
   

================================================================================

cite the ECPs for Pd [Def2-ECP] as follows:
Ce-Yb(ecp-28): M. Dolg, H. Stoll, H.Preuss, J. Chem. Phys., 1989, 90, 1730-1734.
Y-Cd(ecp-28), Hf-Hg(ecp-46): D. Andrae,U. Haeussermann, M. Dolg, H. Stoll, H. Preuss, Theor. Chim. Acta, 1990, 77, 123-141.
In-Sb(ecp-28), Tl-Bi(ecp-46): B. Metz, H. Stoll, M. Dolg, J. Chem. Phys., 2000, 113, 2563-2569.
Te-Xe(ecp-28), Po-Rn(ecp-46): K. A. Peterson, D. Figgen, E. Goll, H. Stoll, M. Dolg, J. Chem. Phys., 2003, 119, 11113-11123.
Rb(ecp-28), Cs(ecp-46): T. Leininger, A. Nicklass, W. Kuechle, H. Stoll, M. Dolg, A. Bergner, Chem. Phys. Lett., 1996, 255, 274-280.
Sr(ecp-28), Ba(ecp-46): M. Kaupp, P. V. Schleyer, H. Stoll and H. Preuss, J. Chem. Phys., 1991, 94, 1360-1366.
La(ecp-46): M. Dolg, H. Stoll, A. Savin, H. Preuss, Theor. Chim. Acta, 1989, 75, 173-194.
Lu(ecp-28): X. Cao, M. Dolg, J. Chem. Phys., 2001, 115, 7348-7355.

ECP parameters for Pd [Def2-ECP] have been obtained from:
TURBOMOLE (7.0.2)

----- Orbital basis set information -----
Your calculation utilizes the basis: def2-mSVP

----- AuxJ basis set information -----
Your calculation utilizes the auxiliary basis: def2/J
   F. Weigend, Phys. Chem. Chem. Phys. 8, 1057 (2006).

================================================================================
                                        WARNINGS
                       Please study these warnings very carefully!
================================================================================


INFO   : the flag for use of the SHARK integral package has been found!

================================================================================
                                       INPUT FILE
================================================================================
NAME = 2_8_orca.inp
|  1> ! EnGrad PBEh-3c
|  2> %output 
|  3> xyzfile=True 
|  4> end 
|  5> %scf 
|  6> maxiter 250 
|  7> end
|  8> %output
|  9> Print[P_Hirshfeld] = 1
| 10> end
| 11> % maxcore
| 12> 4000
| 13> *xyz -1 1
| 14> C   -2.41245496  -0.15232097   0.53304276 
| 15> C   -1.93649954   1.00626930   1.29607206 
| 16> C   -3.74957106  -0.47748139   0.67021288 
| 17> C   -4.66271782   0.36644777   1.33695838 
| 18> C   -4.26659288   1.58679679   1.84398265 
| 19> C   -2.90108882   1.87820898   1.85753182 
| 20> H   -2.27320489  -1.13034129  -0.96973418 
| 21> H   -4.00260571  -1.51799041   0.48999363 
| 22> H   -2.57752374   2.85063749   2.25103188 
| 23> H   -5.69895150   0.21066204   1.04394867 
| 24> H   -4.99858133   2.34188537   2.16356667 
| 25> C   -0.45965575   1.47343176   1.56372302 
| 26> C    0.68998896   0.42762510   1.84697007 
| 27> H   -0.45296103   2.23188801   2.44069276 
| 28> H   -0.22322638   1.98649763   0.59381853 
| 29> C    1.80273219   0.53408342   0.80820711 
| 30> H    0.25457834  -0.57567195   1.82954118 
| 31> H    1.11736628   0.63196710   2.85239631 
| 32> C    1.66820219  -0.09937876  -0.46225007 
| 33> C    2.69725786   0.17682795  -1.38356038 
| 34> C    3.70251471   1.12347834  -1.12247261 
| 35> C    2.82599965   1.48098487   1.06493705 
| 36> C    3.78250700   1.76862457   0.10228211 
| 37> H    2.73306769  -0.39796905  -2.30279851 
| 38> H    4.45362297   1.32803698  -1.88242258 
| 39> H    3.00797081   1.80992208   2.09896977 
| 40> H    4.55324518   2.51106328   0.31504272 
| 41> Pd   0.09861762  -1.56841618  -0.94645747 
| 42> Br  -1.47839639  -3.59821620  -0.72866998 
| 43> P    1.40916319  -2.96983164   0.11591552 
| 44> H    0.93384733  -3.58667193   1.31039718 
| 45> C    0.41693055  -1.32201267  -3.93509711 
| 46> O    1.47889408  -1.67721982  -4.22857128 
| 47> O   -0.44119058  -1.90183358  -3.04548476 
| 48> O   -0.10130122  -0.15705158  -4.40491197 
| 49> H    2.77531275  -2.76204539   0.52035916 
| 50> H    1.60477299  -4.13397412  -0.67331158 
| 51> H    0.62953636   0.29539075  -4.85208257 
| 52> *
| 53> 
| 54>                          ****END OF INPUT****
================================================================================

                     *******************************
                     * Energy+Gradient Calculation *
                     *******************************

---------------------------------
CARTESIAN COORDINATES (ANGSTROEM)
---------------------------------
  C     -2.412455   -0.152321    0.533043
  C     -1.936500    1.006269    1.296072
  C     -3.749571   -0.477481    0.670213
  C     -4.662718    0.366448    1.336958
  C     -4.266593    1.586797    1.843983
  C     -2.901089    1.878209    1.857532
  H     -2.273205   -1.130341   -0.969734
  H     -4.002606   -1.517990    0.489994
  H     -2.577524    2.850637    2.251032
  H     -5.698951    0.210662    1.043949
  H     -4.998581    2.341885    2.163567
  C     -0.459656    1.473432    1.563723
  C      0.689989    0.427625    1.846970
  H     -0.452961    2.231888    2.440693
  H     -0.223226    1.986498    0.593819
  C      1.802732    0.534083    0.808207
  H      0.254578   -0.575672    1.829541
  H      1.117366    0.631967    2.852396
  C      1.668202   -0.099379   -0.462250
  C      2.697258    0.176828   -1.383560
  C      3.702515    1.123478   -1.122473
  C      2.826000    1.480985    1.064937
  C      3.782507    1.768625    0.102282
  H      2.733068   -0.397969   -2.302799
  H      4.453623    1.328037   -1.882423
  H      3.007971    1.809922    2.098970
  H      4.553245    2.511063    0.315043
  Pd     0.098618   -1.568416   -0.946457
  Br    -1.478396   -3.598216   -0.728670
  P      1.409163   -2.969832    0.115916
  H      0.933847   -3.586672    1.310397
  C      0.416931   -1.322013   -3.935097
  O      1.478894   -1.677220   -4.228571
  O     -0.441191   -1.901834   -3.045485
  O     -0.101301   -0.157052   -4.404912
  H      2.775313   -2.762045    0.520359
  H      1.604773   -4.133974   -0.673312
  H      0.629536    0.295391   -4.852083

----------------------------
CARTESIAN COORDINATES (A.U.)
----------------------------
  NO LB      ZA    FRAG     MASS         X           Y           Z
   0 C     6.0000    0    12.011   -4.558879   -0.287845    1.007305
   1 C     6.0000    0    12.011   -3.659454    1.901573    2.449221
   2 C     6.0000    0    12.011   -7.085662   -0.902309    1.266519
   3 C     6.0000    0    12.011   -8.811260    0.692486    2.526485
   4 C     6.0000    0    12.011   -8.062692    2.998611    3.484622
   5 C     6.0000    0    12.011   -5.482263    3.549301    3.510226
   6 H     1.0000    0     1.008   -4.295735   -2.136035   -1.832532
   7 H     1.0000    0     1.008   -7.563829   -2.868586    0.925954
   8 H     1.0000    0     1.008   -4.870814    5.386924    4.253834
   9 H     1.0000    0     1.008  -10.769458    0.398094    1.972777
  10 H     1.0000    0     1.008   -9.445950    4.425522    4.088548
  11 C     6.0000    0    12.011   -0.868623    2.784383    2.955008
  12 C     6.0000    0    12.011    1.303890    0.808094    3.490268
  13 H     1.0000    0     1.008   -0.855972    4.217657    4.612241
  14 H     1.0000    0     1.008   -0.421837    3.753936    1.122154
  15 C     6.0000    0    12.011    3.406670    1.009271    1.527290
  16 H     1.0000    0     1.008    0.481083   -1.087862    3.457332
  17 H     1.0000    0     1.008    2.111516    1.194245    5.390248
  18 C     6.0000    0    12.011    3.152445   -0.187799   -0.873526
  19 C     6.0000    0    12.011    5.097079    0.334156   -2.614550
  20 C     6.0000    0    12.011    6.996739    2.123066   -2.121166
  21 C     6.0000    0    12.011    5.340365    2.798656    2.012439
  22 C     6.0000    0    12.011    7.147902    3.342216    0.193285
  23 H     1.0000    0     1.008    5.164749   -0.752053   -4.351659
  24 H     1.0000    0     1.008    8.416128    2.509626   -3.557263
  25 H     1.0000    0     1.008    5.684241    3.420257    3.966478
  26 H     1.0000    0     1.008    8.604386    4.745222    0.595344
  27 Pd   18.0000*   0   106.400    0.186360   -2.963877   -1.788545
  28 Br   35.0000    0    79.900   -2.793764   -6.799643   -1.376987
  29 P    15.0000    0    30.974    2.662933   -5.612168    0.219049
  30 H     1.0000    0     1.008    1.764716   -6.777828    2.476292
  31 C     6.0000    0    12.011    0.787885   -2.498242   -7.436256
  32 O     8.0000    0    15.999    2.794705   -3.169486   -7.990842
  33 O     8.0000    0    15.999   -0.833729   -3.593945   -5.755132
  34 O     8.0000    0    15.999   -0.191432   -0.296784   -8.324077
  35 H     1.0000    0     1.008    5.244581   -5.219509    0.983336
  36 H     1.0000    0     1.008    3.032581   -7.812079   -1.272374
  37 H     1.0000    0     1.008    1.189651    0.558208   -9.169107
* core charge reduced due to ECP

--------------------------------
INTERNAL COORDINATES (ANGSTROEM)
--------------------------------
 C      0   0   0     0.000000000000     0.00000000     0.00000000
 C      1   0   0     1.466655613368     0.00000000     0.00000000
 C      1   2   0     1.382904337051   116.60965732     0.00000000
 C      3   1   2     1.410887307395   122.14177688     9.51423525
 C      4   3   1     1.379579758142   121.12844441     2.37007210
 C      5   4   3     1.396318725207   117.96786667   350.63076622
 H      1   2   3     1.798402863577   147.05595017   146.56802471
 H      3   1   2     1.085893426112   115.73084095   205.91361209
 H      6   5   4     1.097795001481   118.46238196   179.46692662
 H      4   3   1     1.088073583629   113.79576425   156.99181706
 H      5   4   3     1.099135933549   121.55590507   166.34378732
 C      2   1   3     1.571924101375   128.92032545   167.83865494
 C     12   2   1     1.579754227931   121.16501734   321.17165779
 H     12   2   1     1.159472564279   109.18461649   196.19357233
 H     12   2   1     1.122430467191   100.75529040    79.64827018
 C     13  12   2     1.525961780936   111.24971216   120.30032887
 H     13  12   2     1.093842376558   108.34089708   359.16272154
 H     13  12   2     1.111435536005   108.68219613   240.09185462
 C     16  13  12     1.425985308691   120.44397595   278.44192427
 C     19  16  13     1.408566081489   115.25871423   174.02001438
 C     20  19  16     1.405295384965   122.22021481   353.21841477
 C     16  13  12     1.417606755345   116.72327278    86.73579966
 C     21  20  19     1.386591702234   121.25146938     4.55749709
 H     20  19  16     1.084745442387   118.32618778   170.33811485
 H     21  20  19     1.087902482919   119.39066532   182.32748928
 H     22  16  13     1.100243998950   119.29356010    22.75891638
 H     23  21  20     1.091109370038   121.97709671   180.48033658
 Pd    19  16  13     2.203661378242   123.99338332   348.17155199
 Br    28  19  16     2.579630341682   160.29226855   314.03624113
 P     28  19  16     2.193201165524    83.91064385   280.11394873
 H     30  28  19     1.425904466018   118.88210304   116.83052304
 C     24  20  19     2.980393695892   127.06702655    37.62400887
 O     32  24  20     1.157612088274    61.38420542   186.18160091
 O     32  24  20     1.365274439334   105.26320100   311.15210013
 O     32  24  20     1.358832039410   102.70513387    66.81548997
 H     30  28  19     1.439831380375   127.64892440   347.60249265
 H     30  28  19     1.419989550303   109.69073467   229.64050994
 H     35  32  24     0.968911335376   105.79733197    55.02515943

---------------------------
INTERNAL COORDINATES (A.U.)
---------------------------
 C      0   0   0     0.000000000000     0.00000000     0.00000000
 C      1   0   0     2.771577442044     0.00000000     0.00000000
 C      1   2   0     2.613310466438   116.60965732     0.00000000
 C      3   1   2     2.666190616801   122.14177688     9.51423525
 C      4   3   1     2.607027922789   121.12844441     2.37007210
 C      5   4   3     2.638659986308   117.96786667   350.63076622
 H      1   2   3     3.398488890621   147.05595017   146.56802471
 H      3   1   2     2.052041185977   115.73084095   205.91361209
 H      6   5   4     2.074531903986   118.46238196   179.46692662
 H      4   3   1     2.056161086614   113.79576425   156.99181706
 H      5   4   3     2.077065898360   121.55590507   166.34378732
 C      2   1   3     2.970506054909   128.92032545   167.83865494
 C     12   2   1     2.985302849693   121.16501734   321.17165779
 H     12   2   1     2.191085606283   109.18461649   196.19357233
 H     12   2   1     2.121086187361   100.75529040    79.64827018
 C     13  12   2     2.883649856799   111.24971216   120.30032887
 H     13  12   2     2.067062525372   108.34089708   359.16272154
 H     13  12   2     2.100308778558   108.68219613   240.09185462
 C     16  13  12     2.694721704422   120.44397595   278.44192427
 C     19  16  13     2.661804135544   115.25871423   174.02001438
 C     20  19  16     2.655623414846   122.22021481   353.21841477
 C     16  13  12     2.678888533198   116.72327278    86.73579966
 C     21  20  19     2.620278576790   121.25146938     4.55749709
 H     20  19  16     2.049871811131   118.32618778   170.33811485
 H     21  20  19     2.055837753130   119.39066532   182.32748928
 H     22  16  13     2.079159838505   119.29356010    22.75891638
 H     23  21  20     2.061897891526   121.97709671   180.48033658
 Pd    19  16  13     4.164316496778   123.99338332   348.17155199
 Br    28  19  16     4.874794872534   160.29226855   314.03624113
 P     28  19  16     4.144549559437    83.91064385   280.11394873
 H     30  28  19     2.694568933910   118.88210304   116.83052304
 C     24  20  19     5.632127856501   127.06702655    37.62400887
 O     32  24  20     2.187569816155    61.38420542   186.18160091
 O     32  24  20     2.579994787984   105.26320100   311.15210013
 O     32  24  20     2.567820416483   102.70513387    66.81548997
 H     30  28  19     2.720886987935   127.64892440   347.60249265
 H     30  28  19     2.683391363104   109.69073467   229.64050994
 H     35  32  24     1.830977071913   105.79733197    55.02515943

---------------------
BASIS SET INFORMATION
---------------------
There are 6 groups of distinct atoms

 Group   1 Type C   : 8s4p1d contracted to 4s2p1d pattern {5111/31/1}
 Group   2 Type H   : 4s contracted to 2s pattern {31}
 Group   3 Type Pd  : 7s6p5d1f contracted to 5s3p2d1f pattern {31111/411/41/1}
 Group   4 Type Br  : 14s10p6d contracted to 5s4p3d pattern {63311/5311/411}
 Group   5 Type P   : 10s7p1d contracted to 4s3p1d pattern {5311/511/1}
 Group   6 Type O   : 8s4p1d contracted to 4s2p1d pattern {5111/31/1}

Atom   0C    basis set group =>   1
Atom   1C    basis set group =>   1
Atom   2C    basis set group =>   1
Atom   3C    basis set group =>   1
Atom   4C    basis set group =>   1
Atom   5C    basis set group =>   1
Atom   6H    basis set group =>   2
Atom   7H    basis set group =>   2
Atom   8H    basis set group =>   2
Atom   9H    basis set group =>   2
Atom  10H    basis set group =>   2
Atom  11C    basis set group =>   1
Atom  12C    basis set group =>   1
Atom  13H    basis set group =>   2
Atom  14H    basis set group =>   2
Atom  15C    basis set group =>   1
Atom  16H    basis set group =>   2
Atom  17H    basis set group =>   2
Atom  18C    basis set group =>   1
Atom  19C    basis set group =>   1
Atom  20C    basis set group =>   1
Atom  21C    basis set group =>   1
Atom  22C    basis set group =>   1
Atom  23H    basis set group =>   2
Atom  24H    basis set group =>   2
Atom  25H    basis set group =>   2
Atom  26H    basis set group =>   2
Atom  27Pd   basis set group =>   3
Atom  28Br   basis set group =>   4
Atom  29P    basis set group =>   5
Atom  30H    basis set group =>   2
Atom  31C    basis set group =>   1
Atom  32O    basis set group =>   6
Atom  33O    basis set group =>   6
Atom  34O    basis set group =>   6
Atom  35H    basis set group =>   2
Atom  36H    basis set group =>   2
Atom  37H    basis set group =>   2
---------------------------------
AUXILIARY/J BASIS SET INFORMATION
---------------------------------
There are 6 groups of distinct atoms

 Group   1 Type C   : 12s5p4d2f1g contracted to 6s4p3d1f1g pattern {711111/2111/211/2/1}
 Group   2 Type H   : 5s2p1d contracted to 3s1p1d pattern {311/2/1}
 Group   3 Type Pd  : 11s5p5d3f3g contracted to 8s5p5d2f3g pattern {41111111/11111/11111/21/111}
 Group   4 Type Br  : 19s5p5d3f1g contracted to 8s4p3d2f1g pattern {121111111/2111/311/21/1}
 Group   5 Type P   : 14s5p5d2f1g contracted to 8s4p3d1f1g pattern {71111111/2111/311/2/1}
 Group   6 Type O   : 12s5p4d2f1g contracted to 6s4p3d1f1g pattern {711111/2111/211/2/1}

Atom   0C    basis set group =>   1
Atom   1C    basis set group =>   1
Atom   2C    basis set group =>   1
Atom   3C    basis set group =>   1
Atom   4C    basis set group =>   1
Atom   5C    basis set group =>   1
Atom   6H    basis set group =>   2
Atom   7H    basis set group =>   2
Atom   8H    basis set group =>   2
Atom   9H    basis set group =>   2
Atom  10H    basis set group =>   2
Atom  11C    basis set group =>   1
Atom  12C    basis set group =>   1
Atom  13H    basis set group =>   2
Atom  14H    basis set group =>   2
Atom  15C    basis set group =>   1
Atom  16H    basis set group =>   2
Atom  17H    basis set group =>   2
Atom  18C    basis set group =>   1
Atom  19C    basis set group =>   1
Atom  20C    basis set group =>   1
Atom  21C    basis set group =>   1
Atom  22C    basis set group =>   1
Atom  23H    basis set group =>   2
Atom  24H    basis set group =>   2
Atom  25H    basis set group =>   2
Atom  26H    basis set group =>   2
Atom  27Pd   basis set group =>   3
Atom  28Br   basis set group =>   4
Atom  29P    basis set group =>   5
Atom  30H    basis set group =>   2
Atom  31C    basis set group =>   1
Atom  32O    basis set group =>   6
Atom  33O    basis set group =>   6
Atom  34O    basis set group =>   6
Atom  35H    basis set group =>   2
Atom  36H    basis set group =>   2
Atom  37H    basis set group =>   2
-------------------------
ECP PARAMETER INFORMATION
-------------------------

 Group 1, Type Pd ECP Def2-ECP (replacing 28 core electrons, lmax=3)

Atom  27Pd   ECP group =>   1

------------------------------------------------------------------------------
                           ORCA GTO INTEGRAL CALCULATION
                           -- RI-GTO INTEGRALS CHOSEN --
------------------------------------------------------------------------------
------------------------------------------------------------------------------
                   ___                                                        
                  /   \      - P O W E R E D   B Y -                         
                 /     \                                                     
                 |  |  |   _    _      __       _____    __    __             
                 |  |  |  | |  | |    /  \     |  _  \  |  |  /  |          
                  \  \/   | |  | |   /    \    | | | |  |  | /  /          
                 / \  \   | |__| |  /  /\  \   | |_| |  |  |/  /          
                |  |  |   |  __  | /  /__\  \  |    /   |      \           
                |  |  |   | |  | | |   __   |  |    \   |  |\   \          
                \     /   | |  | | |  |  |  |  | |\  \  |  | \   \       
                 \___/    |_|  |_| |__|  |__|  |_| \__\ |__|  \__/        
                                                                              
                      - O R C A' S   B I G   F R I E N D -                    
                                      &                                       
                       - I N T E G R A L  F E E D E R -                       
                                                                              
 v1 FN, 2020, v2 2021                                                         
------------------------------------------------------------------------------


Reading SHARK input file 2_8_orca.SHARKINP.tmp ... ok
----------------------
SHARK INTEGRAL PACKAGE
----------------------

Number of atoms                             ...     38
Number of basis functions                   ...    385
Number of shells                            ...    191
Maximum angular momentum                    ...      3
Integral batch strategy                     ... SHARK/LIBINT Hybrid
RI-J (if used) integral strategy            ... SPLIT-RIJ (Revised 2003 algorithm where possible)
Printlevel                                  ...      1
Contraction scheme used                     ... SEGMENTED contraction
Coulomb Range Separation                    ... NOT USED
Exchange Range Separation                   ... NOT USED
Finite Nucleus Model                        ... NOT USED
Auxiliary Coulomb fitting basis             ... AVAILABLE
   # of basis functions in Aux-J            ...   1267
   # of shells in Aux-J                     ...    413
   Maximum angular momentum in Aux-J        ...      4
Auxiliary J/K fitting basis                 ... NOT available
Auxiliary Correlation fitting basis         ... NOT available
Auxiliary 'external' fitting basis          ... NOT available
Integral threshold                          ...     2.500000e-11
Primitive cut-off                           ...     2.500000e-12
Primitive pair pre-selection threshold      ...     2.500000e-12

Calculating pre-screening integrals         ... done (  0.1 sec) Dimension = 191
Organizing shell pair data                  ... done (  0.1 sec)
Shell pair information
Total number of shell pairs                 ...     18336
Shell pairs after pre-screening             ...     12066
Total number of primitive shell pairs       ...     68628
Primitive shell pairs kept                  ...     27656
          la=0 lb=0:   4269 shell pairs
          la=1 lb=0:   4047 shell pairs
          la=1 lb=1:    928 shell pairs
          la=2 lb=0:   1678 shell pairs
          la=2 lb=1:    829 shell pairs
          la=2 lb=2:    177 shell pairs
          la=3 lb=0:     77 shell pairs
          la=3 lb=1:     42 shell pairs
          la=3 lb=2:     18 shell pairs
          la=3 lb=3:      1 shell pairs

Calculating one electron integrals          ... done (  0.1 sec)
Calculating ECP integrals                   ... done (  0.5 sec)
Calculating RI/J V-Matrix + Cholesky decomp.... done (  0.2 sec)
Calculating Nuclear repulsion               ... done (  0.0 sec) ENN=   2508.359282775850 Eh

SHARK setup successfully completed in   1.4 seconds

Maximum memory used throughout the entire GTOINT-calculation: 93.4 MB
-------------------------------------------------------------------------------
                                 ORCA SCF
-------------------------------------------------------------------------------

------------
SCF SETTINGS
------------
Hamiltonian:
 Density Functional     Method          .... DFT(GTOs)
 Exchange Functional    Exchange        .... PBE
   PBE kappa parameter   XKappa         ....  1.024500
   PBE mue parameter    XMuePBE         ....  0.123457
 Correlation Functional Correlation     .... PBE
   PBE beta parameter  CBetaPBE         ....  0.030000
 LDA part of GGA corr.  LDAOpt          .... PW91-LDA
 Gradients option       PostSCFGGA      .... off
 Hybrid DFT is turned on
   Fraction HF Exchange ScalHFX         ....  0.420000
   Scaling of DF-GGA-X  ScalDFX         ....  0.580000
   Scaling of DF-GGA-C  ScalDFC         ....  1.000000
   Scaling of DF-LDA-C  ScalLDAC        ....  1.000000
   Perturbative correction              ....  0.000000
   Density functional embedding theory  .... OFF
 RI-approximation to the Coulomb term is turned on
   Number of AuxJ basis functions       .... 1267
   RIJ-ON(X) (HFX calculated with O(N)) .... on
   Number of AuxJ basis functions       .... 1267
   RIJ-COSX (HFX calculated with COS-X)).... on


General Settings:
 Integral files         IntName         .... 2_8_orca
 Hartree-Fock type      HFTyp           .... RHF
 Total Charge           Charge          ....   -1
 Multiplicity           Mult            ....    1
 Number of Electrons    NEL             ....  200
 Basis Dimension        Dim             ....  385
 Nuclear Repulsion      ENuc            ....   2508.3592827759 Eh

Convergence Acceleration:
 DIIS                   CNVDIIS         .... on
   Start iteration      DIISMaxIt       ....    12
   Startup error        DIISStart       ....  0.200000
   # of expansion vecs  DIISMaxEq       ....     5
   Bias factor          DIISBfac        ....   1.050
   Max. coefficient     DIISMaxC        ....  10.000
 Trust-Rad. Augm. Hess. CNVTRAH         .... auto
   Auto Start mean grad. ratio tolernc. ....  1.125000
   Auto Start start iteration           ....    20
   Auto Start num. interpolation iter.  ....    10
   Max. Number of Micro iterations      ....    16
   Max. Number of Macro iterations      .... Maxiter - #DIIS iter
   Number of Davidson start vectors     ....     2
   Converg. threshold I  (grad. norm)   ....   1.000e-05
   Converg. threshold II (energy diff.) ....   1.000e-08
   Grad. Scal. Fac. for Micro threshold ....   0.100
   Minimum threshold for Micro iter.    ....   0.010
   NR start threshold (gradient norm)   ....   0.001
   Initial trust radius                 ....   0.400
   Minimum AH scaling param. (alpha)    ....   1.000
   Maximum AH scaling param. (alpha)    .... 1000.000
   Orbital update algorithm             .... Taylor
   White noise on init. David. guess    .... on
   Maximum white noise                  ....   0.010
   Quad. conv. algorithm                .... NR
   COSX micro iterations for RIJONX calc.... off
 SOSCF                  CNVSOSCF        .... off
 Level Shifting         CNVShift        .... on
   Level shift para.    LevelShift      ....    0.2500
   Turn off err/grad.   ShiftErr        ....    0.0010
 Zerner damping         CNVZerner       .... off
 Static damping         CNVDamp         .... on
   Fraction old density DampFac         ....    0.7000
   Max. Damping (<1)    DampMax         ....    0.9800
   Min. Damping (>=0)   DampMin         ....    0.0000
   Turn off err/grad.   DampErr         ....    0.1000
 Fernandez-Rico         CNVRico         .... off

SCF Procedure:
 Maximum # iterations   MaxIter         ....   250
 SCF integral mode      SCFMode         .... Direct
   Integral package                     .... SHARK and LIBINT hybrid scheme
 Reset frequency        DirectResetFreq ....    20
 Integral Threshold     Thresh          ....  2.500e-11 Eh
 Primitive CutOff       TCut            ....  2.500e-12 Eh

Convergence Tolerance:
 Convergence Check Mode ConvCheckMode   .... Total+1el-Energy
 Convergence forced     ConvForced      .... 0
 Energy Change          TolE            ....  1.000e-08 Eh
 1-El. energy change                    ....  1.000e-05 Eh
 DIIS Error             TolErr          ....  5.000e-07


Diagonalization of the overlap matrix:
Smallest eigenvalue                        ... 5.528e-04
Time for diagonalization                   ...    0.048 sec
Threshold for overlap eigenvalues          ... 1.000e-08
Number of eigenvalues below threshold      ... 0
Time for construction of square roots      ...    0.035 sec
Total time needed                          ...    0.084 sec

--------------------------------
INITIAL GUESS: MINIMAL BASIS EHT
--------------------------------
The minimal basis has 147 functions
EHT matrix was diagonalized
Basis set overlap was calculated now projecting the orbitals
Using GuessMode=FMatrix for the initial guess
C*T matrix was formed
Effective Fockian was calculated
Effective Fockian was diagonalized
Initial density was built
                      ------------------
                      INITIAL GUESS DONE
                      ------------------
-------------------
DFT GRID GENERATION
-------------------

General Integration Accuracy     IntAcc      ... 4.159
Radial Grid Type                 RadialGrid  ... OptM3 with GC (2021)
Angular Grid (max. ang.)         AngularGrid ... 3 (Lebedev-194)
Angular grid pruning method      GridPruning ... 4 (adaptive)
Weight generation scheme         WeightScheme... Becke
Basis function cutoff            BFCut       ... 1.0000e-11
Integration weight cutoff        WCut        ... 1.0000e-14
Angular grids for H and He will be reduced by one unit
Partially contracted basis set               ... off
Rotationally invariant grid construction     ... off

Total number of grid points                  ...    96928
Total number of batches                      ...     1530
Average number of points per batch           ...       63
Average number of grid points per atom       ...     2551
Time for grid setup =    1.640 sec

--------------------
COSX GRID GENERATION
--------------------

GRIDX 1
-------
General Integration Accuracy     IntAcc      ... 3.816
Radial Grid Type                 RadialGrid  ... OptM3 with GC (2021)
Angular Grid (max. ang.)         AngularGrid ... 1 (Lebedev-50)
Angular grid pruning method      GridPruning ... 4 (adaptive)
Weight generation scheme         WeightScheme... Becke
Basis function cutoff            BFCut       ... 1.0000e-11
Integration weight cutoff        WCut        ... 1.0000e-14
Angular grids for H and He will be reduced by one unit
Partially contracted basis set               ... on
Rotationally invariant grid construction     ... off

Total number of grid points                  ...    23692
Total number of batches                      ...      388
Average number of points per batch           ...       61
Average number of grid points per atom       ...      623
UseSFitting                                  ... on

GRIDX 2
-------
General Integration Accuracy     IntAcc      ... 4.020
Radial Grid Type                 RadialGrid  ... OptM3 with GC (2021)
Angular Grid (max. ang.)         AngularGrid ... 2 (Lebedev-110)
Angular grid pruning method      GridPruning ... 4 (adaptive)
Weight generation scheme         WeightScheme... Becke
Basis function cutoff            BFCut       ... 1.0000e-11
Integration weight cutoff        WCut        ... 1.0000e-14
Angular grids for H and He will be reduced by one unit
Partially contracted basis set               ... on
Rotationally invariant grid construction     ... off

Total number of grid points                  ...    51332
Total number of batches                      ...      824
Average number of points per batch           ...       62
Average number of grid points per atom       ...     1351
UseSFitting                                  ... on

GRIDX 3
-------
General Integration Accuracy     IntAcc      ... 4.338
Radial Grid Type                 RadialGrid  ... OptM3 with GC (2021)
Angular Grid (max. ang.)         AngularGrid ... 3 (Lebedev-194)
Angular grid pruning method      GridPruning ... 4 (adaptive)
Weight generation scheme         WeightScheme... Becke
Basis function cutoff            BFCut       ... 1.0000e-11
Integration weight cutoff        WCut        ... 1.0000e-14
Angular grids for H and He will be reduced by one unit
Partially contracted basis set               ... on
Rotationally invariant grid construction     ... off

Total number of grid points                  ...   112176
Total number of batches                      ...     1773
Average number of points per batch           ...       63
Average number of grid points per atom       ...     2952
UseSFitting                                  ... on

Time for X-Grid setup             =    4.550 sec

--------------
SCF ITERATIONS
--------------
ITER       Energy         Delta-E        Max-DP      RMS-DP      [F,P]     Damp
               ***  Starting incremental Fock matrix formation  ***
  0  -3824.9458072910   0.000000000000 5.92762559  0.04845946  5.1468646 0.7000
  1  -3809.9039519818  15.041855309256 4.93573612  0.05154226  3.9636412 0.7000
  2  -3808.1336723078   1.770279673955 4.39085117  0.03284098  2.6391521 0.7000
  3  -3811.2689465102  -3.135274202373 4.82577255  0.03357808  1.9445683 0.7000
  4  -3807.6421297028   3.626816807419 2.91404376  0.02905245  1.2447836 0.7000
  5  -3810.8450712303  -3.202941527548 3.61806117  0.04142912  0.9772032 0.7000
  6  -3799.0119803542  11.833090876114 2.60756933  0.03134257  0.5739513 0.7000
  7  -3809.6624998653 -10.650519511092 2.95359480  0.03447418  0.5036721 0.7000
  8  -3807.9644340236   1.698065841674 2.50527447  0.03021263  0.2713056 0.7000
  9  -3808.6767089819  -0.712274958220 3.34802569  0.03594815  0.2708926 0.7000
 10  -3796.3062124313  12.370496550582 2.42148866  0.03049957  0.2914133 0.7000
 11  -3808.6883173910 -12.382104959755 3.09256872  0.03469720  0.2533830 0.7000
                               ***Turning on DIIS***
 12  -3808.0972932364   0.591024154618 2.54017596  0.03020510  0.2711916 0.7000
 13  -3807.7784947116   0.318798524799 1.86713861  0.02224196  0.2747440 0.7000
 14  -3816.7908371815  -9.012342469835 1.32549138  0.01598916  0.2823595 0.7000
 15  -3824.5103186245  -7.719481443026 0.93436562  0.01147685  0.3547853 0.7000
 16  -3830.5239977003  -6.013679075815 0.75883883  0.00820060  0.4048277 0.7000
 17  -3834.9324310491  -4.408433348791 4.12189196  0.03465802  0.4303979 0.7000
 18  -3826.0691193565   8.863311692592 1.57915424  0.01381053  0.3640042 0.7000
 19  -3831.0101728227  -4.941053466170 1.11997003  0.01062195  0.2631131 0.7000
               *** Restarting incremental Fock matrix formation ***
                                   *** Resetting DIIS ***

 WARNING: the maximum gradient error descreased on average only by a factor   1.0
          during the last 20 iterations

                      *** Initiating the TRAH-SCF procedure ***


TRAH GRIDX
----------

General Integration Accuracy     IntAcc      ... 3.067
Radial Grid Type                 RadialGrid  ... OptM3 with GC (2021)
Angular Grid (max. ang.)         AngularGrid ... 1 (Lebedev-50)
Angular grid pruning method      GridPruning ... 4 (adaptive)
Weight generation scheme         WeightScheme... Becke
Basis function cutoff            BFCut       ... 1.0000e-11
Integration weight cutoff        WCut        ... 1.0000e-14
Angular grids for H and He will be reduced by one unit
Partially contracted basis set               ... on
Rotationally invariant grid construction     ... off

Total number of grid points                  ...    12940
Total number of batches                      ...      224
Average number of points per batch           ...       57
Average number of grid points per atom       ...      341


TRAH GRID
---------

General Integration Accuracy     IntAcc      ... 3.467
Radial Grid Type                 RadialGrid  ... OptM3 with GC (2021)
Angular Grid (max. ang.)         AngularGrid ... 1 (Lebedev-50)
Angular grid pruning method      GridPruning ... 4 (adaptive)
Weight generation scheme         WeightScheme... Becke
Basis function cutoff            BFCut       ... 1.0000e-11
Integration weight cutoff        WCut        ... 1.0000e-14
Angular grids for H and He will be reduced by one unit
Partially contracted basis set               ... off
Rotationally invariant grid construction     ... off

Total number of grid points                  ...    32925
Total number of batches                      ...      532
Average number of points per batch           ...       61
Average number of grid points per atom       ...      866

 --------------------------------------------------------------------------------------------
   Iter.        energy            ||Error||_2        Shift      TRadius  Mac/Mic        Rej.
 --------------------------------------------------------------------------------------------
WARNING: 11 diagonal Hessian elements are negative!
    0      -3846.745700662667     3.116868e+00                     0.400 (TRAH MAcro)   No
WARNING : negative HOMO - LUMO gap : -0.137145
    0     dE    -5.071331e-01     3.767391e+00    -9.3116e-01      0.299 (TRAH MIcro)
    0     dE    -7.096061e-01     8.049466e-01    -2.2498e+00      0.400 (TRAH MIcro)
    0     dE    -7.193877e-01     1.294416e-01    -2.2446e+00      0.400 (TRAH MIcro)
    0     dE    -7.201336e-01     3.445806e-02    -2.2175e+00      0.400 (TRAH MIcro)
    0     dE    -7.201988e-01     1.137613e-02    -2.2170e+00      0.400 (TRAH MIcro)
    0     dE    -7.202020e-01     2.295085e-03    -2.2189e+00      0.400 (TRAH MIcro)
    1      -3847.445574355099     7.925634e-01                     0.480 (TRAH MAcro)   No
    1     dE    -6.019872e-02     5.418038e-01    -1.1780e-01      0.149 (TRAH MIcro)
    1     dE    -9.741007e-02     2.131870e-01    -1.8079e-01      0.279 (TRAH MIcro)
    1     dE    -1.013790e-01     8.474672e-02    -1.8641e-01      0.296 (TRAH MIcro)
    1     dE    -1.022690e-01     4.187873e-02    -1.8742e-01      0.302 (TRAH MIcro)
    1     dE    -1.025578e-01     1.769502e-02    -1.8766e-01      0.305 (TRAH MIcro)
    1     dE    -1.026372e-01     8.497355e-03    -1.8770e-01      0.306 (TRAH MIcro)
    2      -3847.549936246490     1.248019e-01                     0.576 (TRAH MAcro)   No
    2     dE    -1.034123e-03     1.098773e+00    -2.0677e-03      0.017 (TRAH MIcro)
    2     dE    -2.983675e-03     5.370794e-02    -5.9472e-03      0.058 (TRAH MIcro)
    2     dE    -3.214972e-03     9.059070e-02    -6.4036e-03      0.064 (TRAH MIcro)
    2     dE    -3.247072e-03     1.456939e-02    -6.4656e-03      0.066 (TRAH MIcro)
    2     dE    -3.255225e-03     4.805796e-03    -6.4810e-03      0.067 (TRAH MIcro)
    3      -3847.553271696821     8.295645e-03                     0.691 (TRAH MAcro)   No
    3     dE    -1.951893e-07     2.565202e-02    -3.9056e-07      0.000 (TRAH MIcro)
    3     dE    -7.932744e-06     4.930524e-03    -1.5865e-05      0.002 (TRAH MIcro)
    3     dE    -1.023918e-05     2.901090e-03    -2.0478e-05      0.004 (TRAH MIcro)
    3     dE    -1.083094e-05     1.395239e-03    -2.1662e-05      0.004 (TRAH MIcro)
    3     dE    -1.098393e-05     7.920910e-04    -2.1967e-05      0.004 (TRAH MIcro)
    4      -3847.553282769571     7.986122e-04                           (NR   MAcro)
    4     dE    -4.190299e-08     3.782990e-04                           (NR   MIcro)
    4     dE    -6.305345e-08     2.685182e-04                           (NR   MIcro)
    4     dE    -6.963598e-08     1.551269e-04                           (NR   MIcro)
    4     dE    -7.109670e-08     7.869787e-05                           (NR   MIcro)
    4     dE    -7.164118e-08     2.375153e-05                           (NR   MIcro)
    4     dE    -7.166981e-08     1.059169e-05                           (NR   MIcro)
    4     dE    -7.167406e-08     3.471563e-06                           (NR   MIcro)
    5      -3847.553282834026     3.668364e-06                           (NR   MAcro)
    5     dE    -7.745827e-13     1.534770e-06                           (NR   MIcro)
    5     dE    -1.019875e-12     7.889019e-07                           (NR   MIcro)
    6      -3847.553282834006     7.888166e-07                           (NR   MAcro)

               *****************************************************
               *                     SUCCESS                       *
               *           SCF CONVERGED AFTER  58 CYCLES          *
               *****************************************************

Old exchange energy                            =    -97.599694649 Eh
New exchange energy                            =    -97.599656926 Eh
Exchange energy change after final integration =      0.000037723 Eh
Total energy after final integration           =  -3847.553245111 Eh
Final COS-X integration done in                =    47.320 sec

----------------
TOTAL SCF ENERGY
----------------

Total Energy       :        -3847.55324511 Eh         -104697.24650 eV

Components:
Nuclear Repulsion  :         2508.35928278 Eh           68255.92615 eV
Electronic Energy  :        -6355.91252789 Eh         -172953.17265 eV
One Electron Energy:       -10401.29572934 Eh         -283033.64595 eV
Two Electron Energy:         4045.38320145 Eh          110080.47329 eV
Max COSX asymmetry :            0.00002548 Eh               0.00069 eV

Virial components:
Potential Energy   :        -7605.60903703 Eh         -206959.14350 eV
Kinetic Energy     :         3758.05579192 Eh          102261.89699 eV
Virial Ratio       :            2.02381483


DFT components:
N(Alpha)           :       99.999507110554 electrons
N(Beta)            :       99.999507110554 electrons
N(Total)           :      199.999014221109 electrons
E(X)               :     -130.668577172467 Eh       
E(C)               :       -9.692404927495 Eh       
E(XC)              :     -140.360982099962 Eh       
DFET-embed. en.    :        0.000000000000 Eh       

---------------
SCF CONVERGENCE
---------------

  Last Energy change         ...    2.0009e-11  Tolerance :   1.0000e-08
  Last Orbital Gradient      ...    7.8882e-07  Tolerance :   1.0000e-05
  Last Orbital Rotation      ...    1.1186e-06

             **** THE GBW FILE WAS UPDATED (2_8_orca.gbw) ****
             **** DENSITY 2_8_orca.scfp WAS UPDATED ****
             **** ENERGY FILE WAS UPDATED (2_8_orca.en.tmp) ****
             **** THE GBW FILE WAS UPDATED (2_8_orca.gbw) ****
             **** DENSITY 2_8_orca.scfp WAS UPDATED ****
----------------
ORBITAL ENERGIES
----------------

  NO   OCC          E(Eh)            E(eV) 
   0   2.0000    -484.333360    -13179.3808 
   1   2.0000     -77.683898     -2113.8863 
   2   2.0000     -62.995123     -1714.1845 
   3   2.0000     -56.698854     -1542.8543 
   4   2.0000     -56.697817     -1542.8260 
   5   2.0000     -56.697558     -1542.8190 
   6   2.0000     -19.374075      -527.1954 
   7   2.0000     -19.312956      -525.5323 
   8   2.0000     -19.289075      -524.8824 
   9   2.0000     -10.432768      -283.8901 
  10   2.0000     -10.384243      -282.5696 
  11   2.0000     -10.380774      -282.4752 
  12   2.0000     -10.362157      -281.9686 
  13   2.0000     -10.356403      -281.8120 
  14   2.0000     -10.354878      -281.7706 
  15   2.0000     -10.352726      -281.7120 
  16   2.0000     -10.350325      -281.6467 
  17   2.0000     -10.347522      -281.5704 
  18   2.0000     -10.346937      -281.5545 
  19   2.0000     -10.346859      -281.5523 
  20   2.0000     -10.345952      -281.5277 
  21   2.0000     -10.345828      -281.5243 
  22   2.0000     -10.343226      -281.4535 
  23   2.0000     -10.334661      -281.2204 
  24   2.0000      -8.822528      -240.0732 
  25   2.0000      -6.755598      -183.8292 
  26   2.0000      -6.592317      -179.3861 
  27   2.0000      -6.587820      -179.2637 
  28   2.0000      -6.585981      -179.2137 
  29   2.0000      -4.846800      -131.8881 
  30   2.0000      -4.846570      -131.8819 
  31   2.0000      -4.845282      -131.8468 
  32   2.0000      -3.523423       -95.8772 
  33   2.0000      -2.606423       -70.9244 
  34   2.0000      -2.605603       -70.9021 
  35   2.0000      -2.604013       -70.8588 
  36   2.0000      -2.600130       -70.7531 
  37   2.0000      -2.599989       -70.7493 
  38   2.0000      -2.168098       -58.9969 
  39   2.0000      -2.167428       -58.9787 
  40   2.0000      -2.137971       -58.1771 
  41   2.0000      -1.076470       -29.2922 
  42   2.0000      -0.974791       -26.5254 
  43   2.0000      -0.877608       -23.8809 
  44   2.0000      -0.851511       -23.1708 
  45   2.0000      -0.842666       -22.9301 
  46   2.0000      -0.777418       -21.1546 
  47   2.0000      -0.740217       -20.1423 
  48   2.0000      -0.730215       -19.8702 
  49   2.0000      -0.720308       -19.6006 
  50   2.0000      -0.682681       -18.5767 
  51   2.0000      -0.656065       -17.8524 
  52   2.0000      -0.631860       -17.1938 
  53   2.0000      -0.614254       -16.7147 
  54   2.0000      -0.566675       -15.4200 
  55   2.0000      -0.562128       -15.2963 
  56   2.0000      -0.552703       -15.0398 
  57   2.0000      -0.533132       -14.5073 
  58   2.0000      -0.520034       -14.1509 
  59   2.0000      -0.463848       -12.6219 
  60   2.0000      -0.459826       -12.5125 
  61   2.0000      -0.428153       -11.6506 
  62   2.0000      -0.414065       -11.2673 
  63   2.0000      -0.405022       -11.0212 
  64   2.0000      -0.402418       -10.9504 
  65   2.0000      -0.396757       -10.7963 
  66   2.0000      -0.382653       -10.4125 
  67   2.0000      -0.373528       -10.1642 
  68   2.0000      -0.372216       -10.1285 
  69   2.0000      -0.367765       -10.0074 
  70   2.0000      -0.364928        -9.9302 
  71   2.0000      -0.363935        -9.9032 
  72   2.0000      -0.359676        -9.7873 
  73   2.0000      -0.347165        -9.4469 
  74   2.0000      -0.337774        -9.1913 
  75   2.0000      -0.331729        -9.0268 
  76   2.0000      -0.322272        -8.7695 
  77   2.0000      -0.318997        -8.6804 
  78   2.0000      -0.309269        -8.4156 
  79   2.0000      -0.298338        -8.1182 
  80   2.0000      -0.293124        -7.9763 
  81   2.0000      -0.284587        -7.7440 
  82   2.0000      -0.272109        -7.4045 
  83   2.0000      -0.259022        -7.0484 
  84   2.0000      -0.255291        -6.9468 
  85   2.0000      -0.242816        -6.6074 
  86   2.0000      -0.233388        -6.3508 
  87   2.0000      -0.224958        -6.1214 
  88   2.0000      -0.218457        -5.9445 
  89   2.0000      -0.202143        -5.5006 
  90   2.0000      -0.185354        -5.0437 
  91   2.0000      -0.184921        -5.0320 
  92   2.0000      -0.176872        -4.8129 
  93   2.0000      -0.175375        -4.7722 
  94   2.0000      -0.168192        -4.5767 
  95   2.0000      -0.154256        -4.1975 
  96   2.0000      -0.151948        -4.1347 
  97   2.0000      -0.145234        -3.9520 
  98   2.0000      -0.140427        -3.8212 
  99   2.0000      -0.122305        -3.3281 
 100   0.0000       0.057199         1.5565 
 101   0.0000       0.073107         1.9893 
 102   0.0000       0.110607         3.0098 
 103   0.0000       0.118111         3.2140 
 104   0.0000       0.121361         3.3024 
 105   0.0000       0.126436         3.4405 
 106   0.0000       0.159656         4.3445 
 107   0.0000       0.161445         4.3931 
 108   0.0000       0.187457         5.1010 
 109   0.0000       0.199912         5.4399 
 110   0.0000       0.219053         5.9607 
 111   0.0000       0.225482         6.1357 
 112   0.0000       0.238709         6.4956 
 113   0.0000       0.246919         6.7190 
 114   0.0000       0.252961         6.8834 
 115   0.0000       0.259105         7.0506 
 116   0.0000       0.275378         7.4934 
 117   0.0000       0.278917         7.5897 
 118   0.0000       0.282750         7.6940 
 119   0.0000       0.292322         7.9545 
 120   0.0000       0.298170         8.1136 
 121   0.0000       0.304557         8.2874 
 122   0.0000       0.307855         8.3772 
 123   0.0000       0.314086         8.5467 
 124   0.0000       0.317976         8.6526 
 125   0.0000       0.322550         8.7770 
 126   0.0000       0.338169         9.2020 
 127   0.0000       0.345666         9.4061 
 128   0.0000       0.353985         9.6324 
 129   0.0000       0.367114         9.9897 
 130   0.0000       0.376129        10.2350 
 131   0.0000       0.386562        10.5189 
 132   0.0000       0.394954        10.7472 
 133   0.0000       0.407742        11.0952 
 134   0.0000       0.415731        11.3126 
 135   0.0000       0.425301        11.5730 
 136   0.0000       0.433749        11.8029 
 137   0.0000       0.446091        12.1388 
 138   0.0000       0.455455        12.3935 
 139   0.0000       0.458313        12.4713 
 140   0.0000       0.466776        12.7016 
 141   0.0000       0.477520        12.9940 
 142   0.0000       0.484023        13.1709 
 143   0.0000       0.494765        13.4632 
 144   0.0000       0.528945        14.3933 
 145   0.0000       0.543153        14.7800 
 146   0.0000       0.558673        15.2023 
 147   0.0000       0.572086        15.5672 
 148   0.0000       0.573110        15.5951 
 149   0.0000       0.582527        15.8514 
 150   0.0000       0.586372        15.9560 
 151   0.0000       0.595781        16.2120 
 152   0.0000       0.606128        16.4936 
 153   0.0000       0.613085        16.6829 
 154   0.0000       0.618625        16.8336 
 155   0.0000       0.623996        16.9798 
 156   0.0000       0.637565        17.3490 
 157   0.0000       0.641639        17.4599 
 158   0.0000       0.646640        17.5960 
 159   0.0000       0.649986        17.6870 
 160   0.0000       0.661547        18.0016 
 161   0.0000       0.668355        18.1869 
 162   0.0000       0.672009        18.2863 
 163   0.0000       0.683052        18.5868 
 164   0.0000       0.685930        18.6651 
 165   0.0000       0.691806        18.8250 
 166   0.0000       0.696622        18.9560 
 167   0.0000       0.703054        19.1311 
 168   0.0000       0.710495        19.3335 
 169   0.0000       0.719011        19.5653 
 170   0.0000       0.723193        19.6791 
 171   0.0000       0.724954        19.7270 
 172   0.0000       0.727704        19.8018 
 173   0.0000       0.733076        19.9480 
 174   0.0000       0.741210        20.1693 
 175   0.0000       0.744596        20.2615 
 176   0.0000       0.748710        20.3734 
 177   0.0000       0.750335        20.4177 
 178   0.0000       0.758202        20.6317 
 179   0.0000       0.761199        20.7133 
 180   0.0000       0.771030        20.9808 
 181   0.0000       0.776509        21.1299 
 182   0.0000       0.782271        21.2867 
 183   0.0000       0.787753        21.4359 
 184   0.0000       0.794515        21.6199 
 185   0.0000       0.800554        21.7842 
 186   0.0000       0.804629        21.8951 
 187   0.0000       0.810463        22.0538 
 188   0.0000       0.826109        22.4796 
 189   0.0000       0.832177        22.6447 
 190   0.0000       0.833152        22.6712 
 191   0.0000       0.845827        23.0161 
 192   0.0000       0.848938        23.1008 
 193   0.0000       0.872003        23.7284 
 194   0.0000       0.878021        23.8922 
 195   0.0000       0.893236        24.3062 
 196   0.0000       0.904429        24.6108 
 197   0.0000       0.909522        24.7494 
 198   0.0000       0.924019        25.1438 
 199   0.0000       0.940026        25.5794 
 200   0.0000       0.945489        25.7281 
 201   0.0000       0.960669        26.1411 
 202   0.0000       0.962660        26.1953 
 203   0.0000       0.982645        26.7391 
 204   0.0000       0.992264        27.0009 
 205   0.0000       1.008837        27.4518 
 206   0.0000       1.010296        27.4915 
 207   0.0000       1.023216        27.8431 
 208   0.0000       1.033710        28.1287 
 209   0.0000       1.043488        28.3947 
 210   0.0000       1.048440        28.5295 
 211   0.0000       1.058279        28.7972 
 212   0.0000       1.062772        28.9195 
 213   0.0000       1.064853        28.9761 
 214   0.0000       1.074598        29.2413 
 215   0.0000       1.093631        29.7592 
 216   0.0000       1.096179        29.8286 
 217   0.0000       1.106780        30.1170 
 218   0.0000       1.111371        30.2419 
 219   0.0000       1.123534        30.5729 
 220   0.0000       1.134003        30.8578 
 221   0.0000       1.136193        30.9174 
 222   0.0000       1.146197        31.1896 
 223   0.0000       1.148479        31.2517 
 224   0.0000       1.154412        31.4131 
 225   0.0000       1.169421        31.8216 
 226   0.0000       1.171526        31.8788 
 227   0.0000       1.177388        32.0383 
 228   0.0000       1.181882        32.1606 
 229   0.0000       1.190264        32.3887 
 230   0.0000       1.205163        32.7942 
 231   0.0000       1.211424        32.9645 
 232   0.0000       1.218903        33.1680 
 233   0.0000       1.225640        33.3514 
 234   0.0000       1.225692        33.3528 
 235   0.0000       1.238278        33.6952 
 236   0.0000       1.249382        33.9974 
 237   0.0000       1.264050        34.3965 
 238   0.0000       1.268779        34.5252 
 239   0.0000       1.285263        34.9738 
 240   0.0000       1.311287        35.6819 
 241   0.0000       1.321795        35.9679 
 242   0.0000       1.327049        36.1108 
 243   0.0000       1.329845        36.1869 
 244   0.0000       1.354583        36.8601 
 245   0.0000       1.363887        37.1132 
 246   0.0000       1.366072        37.1727 
 247   0.0000       1.372252        37.3409 
 248   0.0000       1.386478        37.7280 
 249   0.0000       1.408063        38.3153 
 250   0.0000       1.421983        38.6941 
 251   0.0000       1.426090        38.8059 
 252   0.0000       1.459581        39.7172 
 253   0.0000       1.466234        39.8982 
 254   0.0000       1.468064        39.9480 
 255   0.0000       1.494796        40.6755 
 256   0.0000       1.522071        41.4177 
 257   0.0000       1.537421        41.8354 
 258   0.0000       1.541027        41.9335 
 259   0.0000       1.567019        42.6408 
 260   0.0000       1.591004        43.2934 
 261   0.0000       1.612120        43.8680 
 262   0.0000       1.626402        44.2566 
 263   0.0000       1.640376        44.6369 
 264   0.0000       1.658792        45.1380 
 265   0.0000       1.668277        45.3961 
 266   0.0000       1.682660        45.7875 
 267   0.0000       1.696713        46.1699 
 268   0.0000       1.717923        46.7471 
 269   0.0000       1.740314        47.3564 
 270   0.0000       1.763753        47.9942 
 271   0.0000       1.774269        48.2803 
 272   0.0000       1.783871        48.5416 
 273   0.0000       1.829367        49.7796 
 274   0.0000       1.834039        49.9067 
 275   0.0000       1.856110        50.5073 
 276   0.0000       1.876332        51.0576 
 277   0.0000       1.915977        52.1364 
 278   0.0000       1.947454        52.9929 
 279   0.0000       1.957239        53.2592 
 280   0.0000       1.969416        53.5905 
 281   0.0000       1.972526        53.6751 
 282   0.0000       1.992006        54.2052 
 283   0.0000       2.010267        54.7022 
 284   0.0000       2.019834        54.9625 
 285   0.0000       2.039955        55.5100 
 286   0.0000       2.048583        55.7448 
 287   0.0000       2.054613        55.9089 
 288   0.0000       2.063537        56.1517 
 289   0.0000       2.092239        56.9327 
 290   0.0000       2.097876        57.0861 
 291   0.0000       2.107735        57.3544 
 292   0.0000       2.140077        58.2345 
 293   0.0000       2.150349        58.5140 
 294   0.0000       2.154770        58.6343 
 295   0.0000       2.167628        58.9842 
 296   0.0000       2.168520        59.0084 
 297   0.0000       2.191522        59.6343 
 298   0.0000       2.207878        60.0794 
 299   0.0000       2.213996        60.2459 
 300   0.0000       2.235566        60.8328 
 301   0.0000       2.249003        61.1985 
 302   0.0000       2.257163        61.4205 
 303   0.0000       2.272653        61.8420 
 304   0.0000       2.281969        62.0955 
 305   0.0000       2.306194        62.7547 
 306   0.0000       2.310936        62.8838 
 307   0.0000       2.321263        63.1648 
 308   0.0000       2.327522        63.3351 
 309   0.0000       2.344021        63.7841 
 310   0.0000       2.373685        64.5913 
 311   0.0000       2.389244        65.0146 
 312   0.0000       2.401960        65.3607 
 313   0.0000       2.417583        65.7858 
 314   0.0000       2.426059        66.0164 
 315   0.0000       2.435247        66.2665 
 316   0.0000       2.442498        66.4637 
 317   0.0000       2.452152        66.7265 
 318   0.0000       2.487489        67.6880 
 319   0.0000       2.502710        68.1022 
 320   0.0000       2.511418        68.3392 
 321   0.0000       2.525153        68.7129 
 322   0.0000       2.560135        69.6648 
 323   0.0000       2.563625        69.7598 
 324   0.0000       2.578046        70.1522 
 325   0.0000       2.590587        70.4935 
 326   0.0000       2.601347        70.7862 
 327   0.0000       2.612738        71.0962 
 328   0.0000       2.622664        71.3663 
 329   0.0000       2.627113        71.4874 
 330   0.0000       2.657688        72.3194 
 331   0.0000       2.673394        72.7468 
 332   0.0000       2.692725        73.2728 
 333   0.0000       2.710471        73.7557 
 334   0.0000       2.728275        74.2401 
 335   0.0000       2.759761        75.0969 
 336   0.0000       2.768720        75.3407 
 337   0.0000       2.781250        75.6816 
 338   0.0000       2.785613        75.8004 
 339   0.0000       2.810554        76.4791 
 340   0.0000       2.824011        76.8452 
 341   0.0000       2.843210        77.3677 
 342   0.0000       2.867718        78.0346 
 343   0.0000       2.874576        78.2212 
 344   0.0000       2.880425        78.3804 
 345   0.0000       2.888325        78.5953 
 346   0.0000       2.908421        79.1422 
 347   0.0000       2.913675        79.2851 
 348   0.0000       2.923377        79.5491 
 349   0.0000       2.932897        79.8082 
 350   0.0000       2.949327        80.2553 
 351   0.0000       2.982647        81.1619 
 352   0.0000       2.993089        81.4461 
 353   0.0000       3.069128        83.5152 
 354   0.0000       3.205873        87.2362 
 355   0.0000       3.207071        87.2688 
 356   0.0000       3.226869        87.8076 
 357   0.0000       3.315499        90.2193 
 358   0.0000       3.419248        93.0425 
 359   0.0000       3.467459        94.3544 
 360   0.0000       3.513011        95.5939 
 361   0.0000       3.739757       101.7640 
 362   0.0000       3.751175       102.0747 
 363   0.0000       3.803896       103.5093 
 364   0.0000       3.831392       104.2575 
 365   0.0000       4.027406       109.5913 
 366   0.0000      13.339055       362.9741 
 367   0.0000      13.394683       364.4878 
 368   0.0000      13.737261       373.8099 
 369   0.0000      13.749154       374.1335 
 370   0.0000      13.785495       375.1224 
 371   0.0000      13.797499       375.4490 
 372   0.0000      13.947346       379.5266 
 373   0.0000      14.133572       384.5940 
 374   0.0000      14.150270       385.0484 
 375   0.0000      14.165210       385.4550 
 376   0.0000      14.214141       386.7864 
 377   0.0000      14.225787       387.1033 
 378   0.0000      14.251730       387.8093 
 379   0.0000      14.505382       394.7115 
 380   0.0000      14.591322       397.0501 
 381   0.0000      25.704880       699.4653 
 382   0.0000      25.845782       703.2995 
 383   0.0000      25.954729       706.2641 
 384   0.0000      51.728205      1407.5960 

                    ********************************
                    * MULLIKEN POPULATION ANALYSIS *
                    ********************************

-----------------------
MULLIKEN ATOMIC CHARGES
-----------------------
   0 C :   -0.136129
   1 C :    0.010860
   2 C :   -0.239865
   3 C :   -0.231258
   4 C :   -0.217014
   5 C :   -0.248244
   6 H :    0.237107
   7 H :    0.251843
   8 H :    0.197765
   9 H :    0.192305
  10 H :    0.192620
  11 C :   -0.463171
  12 C :   -0.501987
  13 H :    0.189747
  14 H :    0.262960
  15 C :    0.022173
  16 H :    0.271492
  17 H :    0.198142
  18 C :   -0.107488
  19 C :   -0.288087
  20 C :   -0.225004
  21 C :   -0.242827
  22 C :   -0.231647
  23 H :    0.264185
  24 H :    0.188717
  25 H :    0.176531
  26 H :    0.185357
  27 Pd:    0.130130
  28 Br:   -0.433311
  29 P :   -0.129673
  30 H :    0.115545
  31 C :    0.650311
  32 O :   -0.453742
  33 O :   -0.608377
  34 O :   -0.604146
  35 H :    0.084064
  36 H :    0.141376
  37 H :    0.398740
Sum of atomic charges:   -1.0000000

--------------------------------
MULLIKEN REDUCED ORBITAL CHARGES
--------------------------------
  0 C s       :     3.289990  s :     3.289990
      pz      :     0.967582  p :     2.812106
      px      :     0.891330
      py      :     0.953194
      dz2     :     0.005971  d :     0.034033
      dxz     :     0.006192
      dyz     :     0.005211
      dx2y2   :     0.010530
      dxy     :     0.006128
  1 C s       :     3.224683  s :     3.224683
      pz      :     0.951100  p :     2.721644
      px      :     0.891322
      py      :     0.879223
      dz2     :     0.005588  d :     0.042813
      dxz     :     0.009115
      dyz     :     0.006019
      dx2y2   :     0.010303
      dxy     :     0.011788
  2 C s       :     3.249249  s :     3.249249
      pz      :     0.979863  p :     2.948632
      px      :     0.919694
      py      :     1.049075
      dz2     :     0.005231  d :     0.041984
      dxz     :     0.007839
      dyz     :     0.003359
      dx2y2   :     0.014600
      dxy     :     0.010956
  3 C s       :     3.249400  s :     3.249400
      pz      :     0.989195  p :     2.941661
      px      :     1.013977
      py      :     0.938489
      dz2     :     0.005553  d :     0.040198
      dxz     :     0.006342
      dyz     :     0.006451
      dx2y2   :     0.013325
      dxy     :     0.008526
  4 C s       :     3.233492  s :     3.233492
      pz      :     1.004493  p :     2.943303
      px      :     0.961941
      py      :     0.976869
      dz2     :     0.004180  d :     0.040219
      dxz     :     0.006517
      dyz     :     0.005266
      dx2y2   :     0.010452
      dxy     :     0.013805
  5 C s       :     3.244464  s :     3.244464
      pz      :     1.028036  p :     2.964618
      px      :     0.916858
      py      :     1.019723
      dz2     :     0.003847  d :     0.039163
      dxz     :     0.007875
      dyz     :     0.004468
      dx2y2   :     0.012246
      dxy     :     0.010726
  6 H s       :     0.762893  s :     0.762893
  7 H s       :     0.748157  s :     0.748157
  8 H s       :     0.802235  s :     0.802235
  9 H s       :     0.807695  s :     0.807695
 10 H s       :     0.807380  s :     0.807380
 11 C s       :     3.386286  s :     3.386286
      pz      :     1.122940  p :     3.037139
      px      :     0.891043
      py      :     1.023156
      dz2     :     0.007174  d :     0.039746
      dxz     :     0.005068
      dyz     :     0.011327
      dx2y2   :     0.008359
      dxy     :     0.007818
 12 C s       :     3.385931  s :     3.385931
      pz      :     1.022248  p :     3.074803
      px      :     0.953202
      py      :     1.099352
      dz2     :     0.010497  d :     0.041253
      dxz     :     0.010213
      dyz     :     0.003005
      dx2y2   :     0.007511
      dxy     :     0.010027
 13 H s       :     0.810253  s :     0.810253
 14 H s       :     0.737040  s :     0.737040
 15 C s       :     3.212048  s :     3.212048
      pz      :     0.886806  p :     2.721354
      px      :     0.920676
      py      :     0.913872
      dz2     :     0.010589  d :     0.044425
      dxz     :     0.012025
      dyz     :     0.007050
      dx2y2   :     0.007274
      dxy     :     0.007486
 16 H s       :     0.728508  s :     0.728508
 17 H s       :     0.801858  s :     0.801858
 18 C s       :     3.313045  s :     3.313045
      pz      :     0.843103  p :     2.757232
      px      :     0.966210
      py      :     0.947919
      dz2     :     0.008338  d :     0.037211
      dxz     :     0.010095
      dyz     :     0.008158
      dx2y2   :     0.006780
      dxy     :     0.003840
 19 C s       :     3.277793  s :     3.277793
      pz      :     1.097114  p :     2.970550
      px      :     0.919815
      py      :     0.953621
      dz2     :     0.008958  d :     0.039743
      dxz     :     0.007326
      dyz     :     0.008889
      dx2y2   :     0.007272
      dxy     :     0.007298
 20 C s       :     3.243413  s :     3.243413
      pz      :     0.958302  p :     2.941892
      px      :     1.013116
      py      :     0.970473
      dz2     :     0.008188  d :     0.039699
      dxz     :     0.011831
      dyz     :     0.007488
      dx2y2   :     0.006671
      dxy     :     0.005521
 21 C s       :     3.261251  s :     3.261251
      pz      :     0.987702  p :     2.942114
      px      :     0.950485
      py      :     1.003927
      dz2     :     0.011356  d :     0.039461
      dxz     :     0.008717
      dyz     :     0.006126
      dx2y2   :     0.006832
      dxy     :     0.006430
 22 C s       :     3.237134  s :     3.237134
      pz      :     0.933313  p :     2.954218
      px      :     1.016123
      py      :     1.004783
      dz2     :     0.010960  d :     0.040295
      dxz     :     0.009339
      dyz     :     0.008176
      dx2y2   :     0.003487
      dxy     :     0.008333
 23 H s       :     0.735815  s :     0.735815
 24 H s       :     0.811283  s :     0.811283
 25 H s       :     0.823469  s :     0.823469
 26 H s       :     0.814643  s :     0.814643
 27 Pds       :     2.477569  s :     2.477569
      pz      :     2.169004  p :     6.427288
      px      :     2.134543
      py      :     2.123741
      dz2     :     1.795157  d :     8.962444
      dxz     :     1.955276
      dyz     :     1.900714
      dx2y2   :     1.948493
      dxy     :     1.362803
      f0      :     0.000428  f :     0.002569
      f+1     :     0.000374
      f-1     :     0.000329
      f+2     :     0.000099
      f-2     :     0.000526
      f+3     :     0.000435
      f-3     :     0.000378
 28 Brs       :     7.947751  s :     7.947751
      pz      :     5.943102  p :    17.469782
      px      :     5.793453
      py      :     5.733228
      dz2     :     2.002691  d :    10.015777
      dxz     :     2.001630
      dyz     :     2.002324
      dx2y2   :     2.004143
      dxy     :     2.004990
 29 P s       :     5.593245  s :     5.593245
      pz      :     3.044019  p :     9.319694
      px      :     3.072878
      py      :     3.202798
      dz2     :     0.035906  d :     0.216733
      dxz     :     0.033205
      dyz     :     0.061254
      dx2y2   :     0.066257
      dxy     :     0.020112
 30 H s       :     0.884455  s :     0.884455
 31 C s       :     2.818726  s :     2.818726
      pz      :     0.763822  p :     2.350575
      px      :     0.845740
      py      :     0.741013
      dz2     :     0.025695  d :     0.180388
      dxz     :     0.039780
      dyz     :     0.022280
      dx2y2   :     0.046431
      dxy     :     0.046202
 32 O s       :     3.718772  s :     3.718772
      pz      :     1.612683  p :     4.703955
      px      :     1.415763
      py      :     1.675509
      dz2     :     0.003575  d :     0.031014
      dxz     :     0.008341
      dyz     :     0.002151
      dx2y2   :     0.008840
      dxy     :     0.008107
 33 O s       :     3.837486  s :     3.837486
      pz      :     1.433609  p :     4.749797
      px      :     1.626471
      py      :     1.689716
      dz2     :     0.003636  d :     0.021095
      dxz     :     0.006414
      dyz     :     0.003761
      dx2y2   :     0.002531
      dxy     :     0.004753
 34 O s       :     3.806773  s :     3.806773
      pz      :     1.709710  p :     4.766899
      px      :     1.625380
      py      :     1.431809
      dz2     :     0.002744  d :     0.030475
      dxz     :     0.008060
      dyz     :     0.003276
      dx2y2   :     0.006122
      dxy     :     0.010274
 35 H s       :     0.915936  s :     0.915936
 36 H s       :     0.858624  s :     0.858624
 37 H s       :     0.601260  s :     0.601260


                     *******************************
                     * LOEWDIN POPULATION ANALYSIS *
                     *******************************

----------------------
LOEWDIN ATOMIC CHARGES
----------------------
   0 C :   -0.079453
   1 C :   -0.036220
   2 C :   -0.159550
   3 C :   -0.168784
   4 C :   -0.155871
   5 C :   -0.153026
   6 H :    0.274811
   7 H :    0.147715
   8 H :    0.126577
   9 H :    0.128364
  10 H :    0.123577
  11 C :   -0.213480
  12 C :   -0.218922
  13 H :    0.120418
  14 H :    0.157433
  15 C :   -0.051400
  16 H :    0.154817
  17 H :    0.118260
  18 C :   -0.039267
  19 C :   -0.128439
  20 C :   -0.154211
  21 C :   -0.154523
  22 C :   -0.161057
  23 H :    0.158793
  24 H :    0.123129
  25 H :    0.121151
  26 H :    0.120656
  27 Pd:   -0.862406
  28 Br:   -0.217106
  29 P :    0.430214
  30 H :    0.051124
  31 C :    0.105928
  32 O :   -0.254189
  33 O :   -0.332177
  34 O :   -0.331872
  35 H :    0.030917
  36 H :    0.070815
  37 H :    0.307252

-------------------------------
LOEWDIN REDUCED ORBITAL CHARGES
-------------------------------
  0 C s       :     2.964912  s :     2.964912
      pz      :     0.966931  p :     3.040342
      px      :     1.064563
      py      :     1.008849
      dz2     :     0.011213  d :     0.074198
      dxz     :     0.013031
      dyz     :     0.010749
      dx2y2   :     0.023906
      dxy     :     0.015300
  1 C s       :     2.882172  s :     2.882172
      pz      :     0.993581  p :     3.057077
      px      :     1.041856
      py      :     1.021640
      dz2     :     0.011098  d :     0.096971
      dxz     :     0.019044
      dyz     :     0.013218
      dx2y2   :     0.024821
      dxy     :     0.028790
  2 C s       :     2.903704  s :     2.903704
      pz      :     0.992111  p :     3.160668
      px      :     1.101136
      py      :     1.067421
      dz2     :     0.009464  d :     0.095177
      dxz     :     0.018362
      dyz     :     0.006697
      dx2y2   :     0.033783
      dxy     :     0.026872
  3 C s       :     2.900663  s :     2.900663
      pz      :     1.022960  p :     3.177088
      px      :     1.069008
      py      :     1.085119
      dz2     :     0.010606  d :     0.091033
      dxz     :     0.013089
      dyz     :     0.015088
      dx2y2   :     0.030553
      dxy     :     0.021696
  4 C s       :     2.893250  s :     2.893250
      pz      :     1.017221  p :     3.170794
      px      :     1.081962
      py      :     1.071610
      dz2     :     0.007526  d :     0.091828
      dxz     :     0.013773
      dyz     :     0.010920
      dx2y2   :     0.027002
      dxy     :     0.032606
  5 C s       :     2.898702  s :     2.898702
      pz      :     1.032792  p :     3.165851
      px      :     1.080103
      py      :     1.052955
      dz2     :     0.007019  d :     0.088474
      dxz     :     0.017904
      dyz     :     0.007856
      dx2y2   :     0.029348
      dxy     :     0.026346
  6 H s       :     0.725189  s :     0.725189
  7 H s       :     0.852285  s :     0.852285
  8 H s       :     0.873423  s :     0.873423
  9 H s       :     0.871636  s :     0.871636
 10 H s       :     0.876423  s :     0.876423
 11 C s       :     2.941189  s :     2.941189
      pz      :     1.097579  p :     3.194853
      px      :     1.021670
      py      :     1.075604
      dz2     :     0.013176  d :     0.077438
      dxz     :     0.009606
      dyz     :     0.019423
      dx2y2   :     0.017876
      dxy     :     0.017357
 12 C s       :     2.916700  s :     2.916700
[...]
      dxy     :     0.021038
 13 H s       :     0.879582  s :     0.879582
 14 H s       :     0.842567  s :     0.842567
 15 C s       :     2.859032  s :     2.859032
      pz      :     1.053411  p :     3.087391
      px      :     1.023979
      py      :     1.010001
      dz2     :     0.024945  d :     0.104976
      dxz     :     0.029449
      dyz     :     0.017344
      dx2y2   :     0.015554
      dxy     :     0.017683
 16 H s       :     0.845183  s :     0.845183
 17 H s       :     0.881740  s :     0.881740
 18 C s       :     2.917850  s :     2.917850
      pz      :     1.038142  p :     3.038059
      px      :     1.040604
      py      :     0.959313
      dz2     :     0.020868  d :     0.083358
      dxz     :     0.024143
      dyz     :     0.018346
      dx2y2   :     0.012182
      dxy     :     0.007818
 19 C s       :     2.893052  s :     2.893052
      pz      :     1.074238  p :     3.146081
      px      :     1.046885
      py      :     1.024959
      dz2     :     0.019458  d :     0.089306
      dxz     :     0.018327
      dyz     :     0.017161
      dx2y2   :     0.016022
      dxy     :     0.018338
 20 C s       :     2.894192  s :     2.894192
      pz      :     1.067708  p :     3.169723
      px      :     1.052551
      py      :     1.049463
      dz2     :     0.019992  d :     0.090296
      dxz     :     0.025087
      dyz     :     0.018491
      dx2y2   :     0.013822
      dxy     :     0.012903
 21 C s       :     2.896277  s :     2.896277
      pz      :     1.062398  p :     3.168810
      px      :     1.062450
      py      :     1.043962
      dz2     :     0.024194  d :     0.089436
      dxz     :     0.021473
      dyz     :     0.013184
      dx2y2   :     0.015136
      dxy     :     0.015450
 22 C s       :     2.890268  s :     2.890268
      pz      :     1.089379  p :     3.178675
      px      :     1.052768
      py      :     1.036528
      dz2     :     0.026872  d :     0.092113
      dxz     :     0.023469
      dyz     :     0.019386
      dx2y2   :     0.007138
      dxy     :     0.015248
 23 H s       :     0.841207  s :     0.841207
 24 H s       :     0.876871  s :     0.876871
 25 H s       :     0.878849  s :     0.878849
 26 H s       :     0.879344  s :     0.879344
 27 Pds       :     2.523587  s :     2.523587
      pz      :     2.325626  p :     7.005624
      px      :     2.352711
      py      :     2.327287
      dz2     :     1.868286  d :     9.329763
      dxz     :     2.011129
      dyz     :     1.956873
      dx2y2   :     1.998069
      dxy     :     1.495406
      f0      :     0.000543  f :     0.003431
      f+1     :     0.000498
      f-1     :     0.000430
      f+2     :     0.000112
      f-2     :     0.000744
      f+3     :     0.000586
      f-3     :     0.000518
 28 Brs       :     7.816724  s :     7.816724
      pz      :     5.920177  p :    17.380135
      px      :     5.758911
      py      :     5.701047
      dz2     :     2.003561  d :    10.020247
      dxz     :     2.001933
      dyz     :     2.002628
      dx2y2   :     2.005078
      dxy     :     2.007047
 29 P s       :     5.229353  s :     5.229353
      pz      :     2.983251  p :     9.077880
      px      :     3.002026
      py      :     3.092604
      dz2     :     0.043063  d :     0.262553
      dxz     :     0.040912
      dyz     :     0.075393
      dx2y2   :     0.078259
      dxy     :     0.024926
 30 H s       :     0.948876  s :     0.948876
 31 C s       :     2.778144  s :     2.778144
      pz      :     0.836626  p :     2.711426
      px      :     1.011250
      py      :     0.863550
      dz2     :     0.055039  d :     0.404502
      dxz     :     0.091014
      dyz     :     0.048630
      dx2y2   :     0.102607
      dxy     :     0.107212
 32 O s       :     3.472249  s :     3.472249
      pz      :     1.584440  p :     4.722534
      px      :     1.493316
      py      :     1.644778
      dz2     :     0.007382  d :     0.059405
      dxz     :     0.015045
      dyz     :     0.003110
      dx2y2   :     0.017615
      dxy     :     0.016253
 33 O s       :     3.534130  s :     3.534130
      pz      :     1.439865  p :     4.756833
      px      :     1.635022
      py      :     1.681947
      dz2     :     0.007330  d :     0.041214
      dxz     :     0.013783
      dyz     :     0.008140
      dx2y2   :     0.004086
      dxy     :     0.007874
 34 O s       :     3.511197  s :     3.511197
      pz      :     1.693557  p :     4.767153
      px      :     1.618822
      py      :     1.454773
      dz2     :     0.004756  d :     0.053522
      dxz     :     0.010975
      dyz     :     0.008759
      dx2y2   :     0.010538
      dxy     :     0.018494
 35 H s       :     0.969083  s :     0.969083
 36 H s       :     0.929185  s :     0.929185
 37 H s       :     0.692748  s :     0.692748


                      *****************************
                      * MAYER POPULATION ANALYSIS *
                      *****************************

  NA   - Mulliken gross atomic population
  ZA   - Total nuclear charge
  QA   - Mulliken gross atomic charge
  VA   - Mayer's total valence
  BVA  - Mayer's bonded valence
  FA   - Mayer's free valence

  ATOM       NA         ZA         QA         VA         BVA        FA
  0 C      6.1361     6.0000    -0.1361     3.7539     3.7539     0.0000
  1 C      5.9891     6.0000     0.0109     3.8317     3.8317    -0.0000
  2 C      6.2399     6.0000    -0.2399     3.7632     3.7632     0.0000
  3 C      6.2313     6.0000    -0.2313     3.8049     3.8049     0.0000
  4 C      6.2170     6.0000    -0.2170     3.8328     3.8328    -0.0000
  5 C      6.2482     6.0000    -0.2482     3.8211     3.8211     0.0000
  6 H      0.7629     1.0000     0.2371     0.9386     0.9386     0.0000
  7 H      0.7482     1.0000     0.2518     0.8999     0.8999    -0.0000
  8 H      0.8022     1.0000     0.1978     0.9228     0.9228     0.0000
  9 H      0.8077     1.0000     0.1923     0.9206     0.9206    -0.0000
 10 H      0.8074     1.0000     0.1926     0.9216     0.9216     0.0000
 11 C      6.4632     6.0000    -0.4632     3.6602     3.6602    -0.0000
 12 C      6.5020     6.0000    -0.5020     3.6773     3.6773     0.0000
 13 H      0.8103     1.0000     0.1897     0.9305     0.9305    -0.0000
 14 H      0.7370     1.0000     0.2630     0.8867     0.8867     0.0000
 15 C      5.9778     6.0000     0.0222     3.7480     3.7480     0.0000
 16 H      0.7285     1.0000     0.2715     0.8976     0.8976    -0.0000
 17 H      0.8019     1.0000     0.1981     0.9178     0.9178     0.0000
 18 C      6.1075     6.0000    -0.1075     3.7114     3.7114    -0.0000
 19 C      6.2881     6.0000    -0.2881     3.8020     3.8020     0.0000
 20 C      6.2250     6.0000    -0.2250     3.8046     3.8046     0.0000
 21 C      6.2428     6.0000    -0.2428     3.8007     3.8007     0.0000
 22 C      6.2316     6.0000    -0.2316     3.8408     3.8408     0.0000
 23 H      0.7358     1.0000     0.2642     0.9091     0.9091     0.0000
 24 H      0.8113     1.0000     0.1887     0.9219     0.9219     0.0000
 25 H      0.8235     1.0000     0.1765     0.9291     0.9291     0.0000
 26 H      0.8146     1.0000     0.1854     0.9223     0.9223    -0.0000
 27 Pd    17.8699    18.0000     0.1301     2.9573     2.9573    -0.0000
 28 Br    35.4333    35.0000    -0.4333     0.9268     0.9268    -0.0000
 29 P     15.1297    15.0000    -0.1297     3.7757     3.7757    -0.0000
 30 H      0.8845     1.0000     0.1155     0.9564     0.9564    -0.0000
 31 C      5.3497     6.0000     0.6503     4.3197     4.3197    -0.0000
 32 O      8.4537     8.0000    -0.4537     2.1582     2.1582    -0.0000
 33 O      8.6084     8.0000    -0.6084     1.9510     1.9510    -0.0000
 34 O      8.6041     8.0000    -0.6041     1.9451     1.9451    -0.0000
 35 H      0.9159     1.0000     0.0841     0.9597     0.9597    -0.0000
 36 H      0.8586     1.0000     0.1414     0.9529     0.9529     0.0000
 37 H      0.6013     1.0000     0.3987     0.8274     0.8274    -0.0000

  Mayer bond orders larger than 0.100000
B(  0-C ,  1-C ) :   1.4042 B(  0-C ,  2-C ) :   1.4286 B(  0-C ,  6-H ) :   0.7084 
B(  0-C , 27-Pd) :   0.1034 B(  1-C ,  5-C ) :   1.4248 B(  1-C , 11-C ) :   0.9433 
B(  2-C ,  3-C ) :   1.3651 B(  2-C ,  7-H ) :   0.8990 B(  3-C ,  4-C ) :   1.4600 
B(  3-C ,  9-H ) :   0.9256 B(  4-C ,  5-C ) :   1.4006 B(  4-C , 10-H ) :   0.9258 
B(  5-C ,  8-H ) :   0.9180 B( 11-C , 12-C ) :   0.9071 B( 11-C , 13-H ) :   0.9392 
B( 11-C , 14-H ) :   0.8974 B( 12-C , 15-C ) :   0.9773 B( 12-C , 16-H ) :   0.8886 
B( 12-C , 17-H ) :   0.9324 B( 15-C , 18-C ) :   1.3500 B( 15-C , 21-C ) :   1.3863 
B( 18-C , 19-C ) :   1.4109 B( 18-C , 27-Pd) :   0.6971 B( 18-C , 28-Br) :   0.1115 
B( 19-C , 20-C ) :   1.4040 B( 19-C , 23-H ) :   0.8813 B( 20-C , 22-C ) :   1.4294 
B( 20-C , 24-H ) :   0.9271 B( 21-C , 22-C ) :   1.4288 B( 21-C , 25-H ) :   0.9257 
B( 22-C , 26-H ) :   0.9274 B( 27-Pd, 28-Br) :   0.5331 B( 27-Pd, 29-P ) :   0.7647 
B( 27-Pd, 33-O ) :   0.4800 B( 28-Br, 29-P ) :   0.1224 B( 29-P , 30-H ) :   0.9163 
B( 29-P , 35-H ) :   0.9016 B( 29-P , 36-H ) :   0.9226 B( 31-C , 32-O ) :   1.9339 
B( 31-C , 33-O ) :   1.3084 B( 31-C , 34-O ) :   1.0429 B( 34-O , 37-H ) :   0.7888 



------------------
HIRSHFELD ANALYSIS
------------------

Total integrated alpha density =     99.999507111
Total integrated beta density  =     99.999507111

  ATOM     CHARGE      SPIN    
   0 C   -0.068614    0.000000
   1 C    0.001782    0.000000
   2 C   -0.061305    0.000000
   3 C   -0.071960    0.000000
   4 C   -0.065537    0.000000
   5 C   -0.065779    0.000000
   6 H    0.097330    0.000000
   7 H    0.036733    0.000000
   8 H    0.031000    0.000000
   9 H    0.029413    0.000000
  10 H    0.033473    0.000000
  11 C   -0.039525    0.000000
  12 C   -0.056019    0.000000
  13 H    0.023692    0.000000
  14 H    0.025089    0.000000
  15 C   -0.023392    0.000000
  16 H    0.011346    0.000000
  17 H    0.018475    0.000000
  18 C   -0.125748    0.000000
  19 C   -0.065248    0.000000
  20 C   -0.065385    0.000000
  21 C   -0.069120    0.000000
  22 C   -0.071670    0.000000
  23 H    0.031204    0.000000
  24 H    0.029081    0.000000
  25 H    0.026390    0.000000
  26 H    0.029293    0.000000
  27 Pd   0.442141    0.000000
  28 Br  -0.465294    0.000000
  29 P    0.123900    0.000000
  30 H    0.003663    0.000000
  31 C    0.231912    0.000000
  32 O   -0.377537    0.000000
  33 O   -0.453284    0.000000
  34 O   -0.256892    0.000000
  35 H   -0.003585    0.000000
  36 H    0.016083    0.000000
  37 H    0.164878    0.000000

  TOTAL  -0.999014    0.000000

-------
TIMINGS
-------

Total SCF time: 0 days 0 hours 14 min 20 sec 

Total time                  ....     860.756 sec
Sum of individual times     ....     859.217 sec  ( 99.8%)

Fock matrix formation       ....     848.580 sec  ( 98.6%)
  Split-RI-J                ....     123.826 sec  ( 14.6% of F)
  Chain of spheres X        ....     666.364 sec  ( 78.5% of F)
  XC integration            ....      58.321 sec  (  6.9% of F)
    Basis function eval.    ....      15.765 sec  ( 27.0% of XC)
    Density eval.           ....      19.979 sec  ( 34.3% of XC)
    XC-Functional eval.     ....       2.160 sec  (  3.7% of XC)
    XC-Potential eval.      ....      16.696 sec  ( 28.6% of XC)
Diagonalization             ....       1.347 sec  (  0.2%)
Density matrix formation    ....       0.182 sec  (  0.0%)
Population analysis         ....       0.987 sec  (  0.1%)
Initial guess               ....       0.162 sec  (  0.0%)
Orbital Transformation      ....       1.234 sec  (  0.1%)
Orbital Orthonormalization  ....       0.000 sec  (  0.0%)
DIIS solution               ....       0.533 sec  (  0.1%)
Grid generation             ....       6.190 sec  (  0.7%)

Maximum memory used throughout the entire SCF-calculation: 177.8 MB


-------------------------------------------------------------------------------
                          DFT DISPERSION CORRECTION                            
                                                                               
                              DFTD3 V3.1  Rev 1                                
                          USING Becke-Johnson damping                          
-------------------------------------------------------------------------------
The PBEh-3c composite method is recognized
Using three-body term ABC
Active option DFTDOPT                   ...         4   

molecular C6(AA) [au] = 24569.747499 


            DFT-D V3
 parameters
 s6 scaling factor         :     1.0000 
 a1 scaling factor         :     0.4860 
 s8 scaling factor         :     0.0000 
 a2 scaling factor         :     4.5000 
 Damping factor alpha9(ATM):    16.0000 
 ad hoc parameters k1-k3   :    16.0000     1.3333    -4.0000 

 Edisp/kcal,au: -19.661524587049  -0.031332630506 
 E6   /kcal   : -19.882196884 
 E8   /kcal   :  -0.000000000 
 E6(ABC)      :   0.220672297 
 % E8         :   0.000000000 
 % E6(ABC)    :  -1.122355981 

-------------------------   ----------------
Dispersion correction           -0.031332631
-------------------------   ----------------

 ** NOTE ** -> element pd will be treated as ni
------------------   -----------------
gCP correction             0.068080611
------------------   -----------------

-------------------------   --------------------
FINAL SINGLE POINT ENERGY     -3847.516497130439
-------------------------   --------------------

------------------------------------------------------------------------------
                         ORCA SCF GRADIENT CALCULATION
------------------------------------------------------------------------------

 ... reading COSX grid (gridx3)
Gradient of the Kohn-Sham DFT energy:
Kohn-Sham wavefunction type      ... RKS
Hartree-Fock exchange scaling    ...    0.420
Number of operators              ...    1
Number of atoms                  ...   38
Basis set dimensions             ...  385
Integral neglect threshold       ... 2.5e-11
Integral primitive cutoff        ... 2.5e-12
SHARK Integral package           ... ON

Nuc. rep. gradient       (SHARK) ... done (  0.0 sec)
HCore & Overlap gradient (SHARK) ... done (  1.3 sec)
ECP gradient             (SHARK) ... done (  1.4 sec)
RI-J gradient            (SHARK) ... done (  6.3 sec)
COSX-gradient                    ... done ( 60.6 sec)
Exchange-correlation gradient    ... done
Dispersion correction            ... done
gCP correction                   ... done

------------------
CARTESIAN GRADIENT
------------------

   1   C   :   -0.001469223   -0.005085383    0.023389592
   2   C   :   -0.009734390    0.007686717    0.005164123
   3   C   :   -0.003754072    0.001451101   -0.030396433
   4   C   :    0.006144816   -0.000687553    0.028954700
   5   C   :   -0.003983002   -0.006535365    0.006394453
   6   C   :   -0.001548132    0.012018518    0.002351579
   7   H   :   -0.021185851   -0.038679638   -0.065244334
   8   H   :    0.009681921   -0.006720335    0.017571825
   9   H   :   -0.001341775    0.011951993   -0.002135139
  10   H   :    0.003059761    0.005622177   -0.018326138
  11   H   :   -0.007125218    0.009012848    0.001492368
  12   C   :    0.007049110   -0.009826454    0.013414573
  13   C   :    0.004354313   -0.004430976    0.004530032
  14   H   :    0.004243457    0.021625776    0.034307174
  15   H   :   -0.005224885    0.000301547   -0.021027645
  16   C   :    0.018383949   -0.011511849    0.004245524
  17   H   :   -0.002195491   -0.000451080   -0.003876987
  18   H   :    0.007605653    0.005349491    0.009751765
  19   C   :   -0.001493783    0.003070904    0.000825475
  20   C   :    0.002793350    0.000733842   -0.007845526
  21   C   :    0.002451946    0.006256556    0.005727394
  22   C   :   -0.002460017    0.025983956   -0.004634195
  23   C   :    0.005387032   -0.003380679    0.000129147
  24   H   :    0.000985282   -0.004777704    0.002738386
  25   H   :    0.002443889    0.001657011   -0.001022329
  26   H   :    0.009997294   -0.004199769    0.010308337
  27   H   :    0.001425671    0.006034732    0.002541919
  28   Pd  :   -0.027292440   -0.006629980   -0.013773240
  29   Br  :    0.005708496    0.002110917   -0.002557712
  30   P   :   -0.004818228    0.010132360   -0.012855618
  31   H   :   -0.005427229   -0.003326784    0.006844802
  32   C   :    0.141038100    0.000285362   -0.097497587
  33   O   :   -0.100073929    0.033555463    0.035377730
  34   O   :   -0.046247477   -0.042877411    0.055584402
  35   O   :   -0.004225196   -0.011003619    0.009034894
  36   H   :    0.012354046   -0.001746779    0.004239013
  37   H   :   -0.000563565   -0.006375027   -0.005170880
  38   H   :    0.006144459    0.003140495    0.000579829

Difference to translation invariance:
           :    0.0010886401   -0.0002646196   -0.0008647272

Difference to rotation invariance:
           :    0.0067046873   -0.0028147019    0.0079499296

Norm of the cartesian gradient     ...    0.2555818860
RMS gradient                       ...    0.0239374368
MAX gradient                       ...    0.1410380996

-------
TIMINGS
-------

Total SCF gradient time            ...       83.019 sec

One electron gradient       ....       2.677 sec  (  3.2%)
RI-J Coulomb gradient       ....       6.309 sec  (  7.6%)
COSX gradient               ....      60.585 sec  ( 73.0%)
XC gradient                 ....      10.603 sec  ( 12.8%)

Maximum memory used throughout the entire SCFGRAD-calculation: 143.5 MB

                            ***************************************
                            *     ORCA property calculations      *
                            ***************************************

                                    ---------------------
                                    Active property flags
                                    ---------------------
   (+) Dipole Moment


------------------------------------------------------------------------------
                       ORCA ELECTRIC PROPERTIES CALCULATION
------------------------------------------------------------------------------

Dipole Moment Calculation                       ... on
Quadrupole Moment Calculation                   ... off
Polarizability Calculation                      ... off
GBWName                                         ... 2_8_orca.gbw
Electron density                                ... 2_8_orca.scfp
The origin for moment calculation is the CENTER OF MASS  = (-0.330135, -1.988140 -1.072729)

-------------
DIPOLE MOMENT
-------------
                                X             Y             Z
Electronic contribution:      3.94451     -77.18917     -39.18850
Nuclear contribution   :     -2.93518      78.38771      41.73463
                        -----------------------------------------
Total Dipole Moment    :      1.00933       1.19854       2.54613
                        -----------------------------------------
Magnitude (a.u.)       :      2.98965
Magnitude (Debye)      :      7.59909



--------------------
Rotational spectrum 
--------------------
 
Rotational constants in cm-1:     0.006800     0.006057     0.004282 
Rotational constants in MHz :   203.858413   181.594800   128.375675 

 Dipole components along the rotational axes: 
x,y,z [a.u.] :    -0.731303    -2.430854     1.579290 
x,y,z [Debye]:    -1.858824    -6.178739     4.014237 

 

Timings for individual modules:

Sum of individual times         ...      945.241 sec (=  15.754 min)
GTO integral calculation        ...        1.396 sec (=   0.023 min)   0.1 %
SCF iterations                  ...      860.780 sec (=  14.346 min)  91.1 %
SCF Gradient evaluation         ...       83.064 sec (=   1.384 min)   8.8 %
                             ****ORCA TERMINATED NORMALLY****
TOTAL RUN TIME: 0 days 0 hours 15 minutes 45 seconds 644 msec
