
                                 *****************
                                 * O   R   C   A *
                                 *****************

                                            #,                                       
                                            ###                                      
                                            ####                                     
                                            #####                                    
                                            ######                                   
                                           ########,                                 
                                     ,,################,,,,,                         
                               ,,#################################,,                 
                          ,,##########################################,,             
                       ,#########################################, ''#####,          
                    ,#############################################,,   '####,        
                  ,##################################################,,,,####,       
                ,###########''''           ''''###############################       
              ,#####''   ,,,,##########,,,,          '''####'''          '####       
            ,##' ,,,,###########################,,,                        '##       
           ' ,,###''''                  '''############,,,                           
         ,,##''                                '''############,,,,        ,,,,,,###''
      ,#''                                            '''#######################'''  
     '                                                          ''''####''''         
             ,#######,   #######,   ,#######,      ##                                
            ,#'     '#,  ##    ##  ,#'     '#,    #''#        ######   ,####,        
            ##       ##  ##   ,#'  ##            #'  '#       #        #'  '#        
            ##       ##  #######   ##           ,######,      #####,   #    #        
            '#,     ,#'  ##    ##  '#,     ,#' ,#      #,         ##   #,  ,#        
             '#######'   ##     ##  '#######'  #'      '#     #####' # '####'        



                  #######################################################
                  #                        -***-                        #
                  #          Department of theory and spectroscopy      #
                  #    Directorship and core code : Frank Neese         #
                  #        Max Planck Institute fuer Kohlenforschung    #
                  #                Kaiser Wilhelm Platz 1               #
                  #                 D-45470 Muelheim/Ruhr               #
                  #                      Germany                        #
                  #                                                     #
                  #                  All rights reserved                #
                  #                        -***-                        #
                  #######################################################


                         Program Version 5.0.4 -  RELEASE  -


 With contributions from (in alphabetic order):
   Daniel Aravena         : Magnetic Suceptibility
   Michael Atanasov       : Ab Initio Ligand Field Theory (pilot matlab implementation)
   Alexander A. Auer      : GIAO ZORA, VPT2 properties, NMR spectrum
   Ute Becker             : Parallelization
   Giovanni Bistoni       : ED, misc. LED, open-shell LED, HFLD
   Martin Brehm           : Molecular dynamics
   Dmytro Bykov           : SCF Hessian
   Vijay G. Chilkuri      : MRCI spin determinant printing, contributions to CSF-ICE
   Dipayan Datta          : RHF DLPNO-CCSD density
   Achintya Kumar Dutta   : EOM-CC, STEOM-CC
   Dmitry Ganyushin       : Spin-Orbit,Spin-Spin,Magnetic field MRCI
   Miquel Garcia          : C-PCM and meta-GGA Hessian, CC/C-PCM, Gaussian charge scheme
   Yang Guo               : DLPNO-NEVPT2, F12-NEVPT2, CIM, IAO-localization
   Andreas Hansen         : Spin unrestricted coupled pair/coupled cluster methods
   Benjamin Helmich-Paris : MC-RPA, TRAH-SCF, COSX integrals
   Lee Huntington         : MR-EOM, pCC
   Robert Izsak           : Overlap fitted RIJCOSX, COSX-SCS-MP3, EOM
   Marcus Kettner         : VPT2
   Christian Kollmar      : KDIIS, OOCD, Brueckner-CCSD(T), CCSD density, CASPT2, CASPT2-K
   Simone Kossmann        : Meta GGA functionals, TD-DFT gradient, OOMP2, MP2 Hessian
   Martin Krupicka        : Initial AUTO-CI
   Lucas Lang             : DCDCAS
   Marvin Lechner         : AUTO-CI (C++ implementation), FIC-MRCC
   Dagmar Lenk            : GEPOL surface, SMD
   Dimitrios Liakos       : Extrapolation schemes; Compound Job, initial MDCI parallelization
   Dimitrios Manganas     : Further ROCIS development; embedding schemes
   Dimitrios Pantazis     : SARC Basis sets
   Anastasios Papadopoulos: AUTO-CI, single reference methods and gradients
   Taras Petrenko         : DFT Hessian,TD-DFT gradient, ASA, ECA, R-Raman, ABS, FL, XAS/XES, NRVS
   Peter Pinski           : DLPNO-MP2, DLPNO-MP2 Gradient
   Christoph Reimann      : Effective Core Potentials
   Marius Retegan         : Local ZFS, SOC
   Christoph Riplinger    : Optimizer, TS searches, QM/MM, DLPNO-CCSD(T), (RO)-DLPNO pert. Triples
   Tobias Risthaus        : Range-separated hybrids, TD-DFT gradient, RPA, STAB
   Michael Roemelt        : Original ROCIS implementation
   Masaaki Saitow         : Open-shell DLPNO-CCSD energy and density
   Barbara Sandhoefer     : DKH picture change effects
   Avijit Sen             : IP-ROCIS
   Kantharuban Sivalingam : CASSCF convergence, NEVPT2, FIC-MRCI
   Bernardo de Souza      : ESD, SOC TD-DFT
   Georgi Stoychev        : AutoAux, RI-MP2 NMR, DLPNO-MP2 response
   Willem Van den Heuvel  : Paramagnetic NMR
   Boris Wezisla          : Elementary symmetry handling
   Frank Wennmohs         : Technical directorship


 We gratefully acknowledge several colleagues who have allowed us to
 interface, adapt or use parts of their codes:
   Stefan Grimme, W. Hujo, H. Kruse, P. Pracht,  : VdW corrections, initial TS optimization,
                  C. Bannwarth, S. Ehlert          DFT functionals, gCP, sTDA/sTD-DF
   Ed Valeev, F. Pavosevic, A. Kumar             : LibInt (2-el integral package), F12 methods
   Garnet Chan, S. Sharma, J. Yang, R. Olivares  : DMRG
   Ulf Ekstrom                                   : XCFun DFT Library
   Mihaly Kallay                                 : mrcc  (arbitrary order and MRCC methods)
   Jiri Pittner, Ondrej Demel                    : Mk-CCSD
   Frank Weinhold                                : gennbo (NPA and NBO analysis)
   Christopher J. Cramer and Donald G. Truhlar   : smd solvation model
   Lars Goerigk                                  : TD-DFT with DH, B97 family of functionals
   V. Asgeirsson, H. Jonsson                     : NEB implementation
   FAccTs GmbH                                   : IRC, NEB, NEB-TS, DLPNO-Multilevel, CI-OPT
                                                   MM, QMMM, 2- and 3-layer-ONIOM, Crystal-QMMM,
                                                   LR-CPCM, SF, NACMEs, symmetry and pop. for TD-DFT,
                                                   nearIR, NL-DFT gradient (VV10), updates on ESD,
                                                   ML-optimized integration grids
   S Lehtola, MJT Oliveira, MAL Marques          : LibXC Library
   Liviu Ungur et al                             : ANISO software


 Your calculation uses the libint2 library for the computation of 2-el integrals
 For citations please refer to: http://libint.valeyev.net

 Your ORCA version has been built with support for libXC version: 5.1.0
 For citations please refer to: https://tddft.org/programs/libxc/

 This ORCA versions uses:
   CBLAS   interface :  Fast vector & matrix operations
   LAPACKE interface :  Fast linear algebra routines
   SCALAPACK package :  Parallel linear algebra routines
   Shared memory     :  Shared parallel matrices
   BLAS/LAPACK       :  OpenBLAS 0.3.15  USE64BITINT DYNAMIC_ARCH NO_AFFINITY SkylakeX SINGLE_THREADED
        Core in use  :  SkylakeX
   Copyright (c) 2011-2014, The OpenBLAS Project




***************************************
The coordinates will be read from file: ts_guess_0.xyz
***************************************


Your calculation utilizes the geometrical counterpoise correction gCP
Please cite in your paper:
H.Kruse, S. Grimme J.Chem.Phys., 136, (2012), 154101 
   

Your calculation utilizes the atom-pairwise dispersion correction
with the Becke-Johnson damping scheme (D3BJ)
Cite in your paper:
S.Grimme, S.Ehrlich, L.Goerigk, J Comput Chem, (2011), 32, 1456–1465 
S.Grimme, J.Antony, S.Ehrlich and H.Krieg, J.Chem.Phys., 132, (2010), 154104 
   

Your calculation employs the composite approach PBEh-3c.
Please cite in your paper:
S. Grimme, J. G. Brandenburg, C. Bannwarth, A. Hansen J.Chem.Phys., 143, (2015), 054107 
   

================================================================================

cite the ECPs for Ir [Def2-ECP] as follows:
Ce-Yb(ecp-28): M. Dolg, H. Stoll, H.Preuss, J. Chem. Phys., 1989, 90, 1730-1734.
Y-Cd(ecp-28), Hf-Hg(ecp-46): D. Andrae,U. Haeussermann, M. Dolg, H. Stoll, H. Preuss, Theor. Chim. Acta, 1990, 77, 123-141.
In-Sb(ecp-28), Tl-Bi(ecp-46): B. Metz, H. Stoll, M. Dolg, J. Chem. Phys., 2000, 113, 2563-2569.
Te-Xe(ecp-28), Po-Rn(ecp-46): K. A. Peterson, D. Figgen, E. Goll, H. Stoll, M. Dolg, J. Chem. Phys., 2003, 119, 11113-11123.
Rb(ecp-28), Cs(ecp-46): T. Leininger, A. Nicklass, W. Kuechle, H. Stoll, M. Dolg, A. Bergner, Chem. Phys. Lett., 1996, 255, 274-280.
Sr(ecp-28), Ba(ecp-46): M. Kaupp, P. V. Schleyer, H. Stoll and H. Preuss, J. Chem. Phys., 1991, 94, 1360-1366.
La(ecp-46): M. Dolg, H. Stoll, A. Savin, H. Preuss, Theor. Chim. Acta, 1989, 75, 173-194.
Lu(ecp-28): X. Cao, M. Dolg, J. Chem. Phys., 2001, 115, 7348-7355.

ECP parameters for Ir [Def2-ECP] have been obtained from:
TURBOMOLE (7.0.2)

----- Orbital basis set information -----
Your calculation utilizes the basis: def2-mSVP

----- AuxJ basis set information -----
Your calculation utilizes the auxiliary basis: def2/J
   F. Weigend, Phys. Chem. Chem. Phys. 8, 1057 (2006).

================================================================================
                                        WARNINGS
                       Please study these warnings very carefully!
================================================================================


WARNING: Geometry Optimization
  ===> : Switching off AutoStart
         For restart on a previous wavefunction, please use MOREAD

WARNING: No Hueckel Guess possible with ECP basis!
  ===> : Switching to HCORE guess!

INFO   : the flag for use of the SHARK integral package has been found!

================================================================================
                                       INPUT FILE
================================================================================
NAME = reaction-4-manual-optts.inp
|  1> ! PBEh-3c OptTS Freq pal8
|  2> 
|  3> %geom
|  4>  trust -0.1
|  5>  calc_hess true
|  6>  recalc_hess 5
|  7>  maxiter 600
|  8> end 
|  9> 
| 10> *xyzfile 1 1 ts_guess_0.xyz
| 11> 
| 12>                          ****END OF INPUT****
================================================================================

                       *****************************
                       * Geometry Optimization Run *
                       *****************************

Geometry optimization settings:
Update method            Update   .... Bofill
Choice of coordinates    CoordSys .... Z-matrix Internals
Initial Hessian          InHess   .... Almoef's Model

Convergence Tolerances:
Energy Change            TolE     ....  5.0000e-06 Eh
Max. Gradient            TolMAXG  ....  3.0000e-04 Eh/bohr
RMS Gradient             TolRMSG  ....  1.0000e-04 Eh/bohr
Max. Displacement        TolMAXD  ....  4.0000e-03 bohr
RMS Displacement         TolRMSD  ....  2.0000e-03 bohr
Strict Convergence                ....  False
------------------------------------------------------------------------------
                        ORCA OPTIMIZATION COORDINATE SETUP
------------------------------------------------------------------------------

The optimization will be done in new redundant internal coordinates
Making redundant internal coordinates   ...  (new redundants) done
Following TS mode number                ...     0
Evaluating the initial hessian          ...  (Is done on the fly) done
Evaluating the coordinates              ...  done
Calculating the B-matrix                .... done
Calculating the G-matrix                .... done
Diagonalizing the G-matrix              .... done
Small eigenvalue found = 8.996e-03
Small eigenvalue found = 1.483e-02
Small eigenvalue found = 2.429e-02
The first mode is                       ....  279
The number of degrees of freedom        ....  111

    -----------------------------------------------------------------
                    Redundant Internal Coordinates


    -----------------------------------------------------------------
         Definition                    Initial Value    d2E/dq (diagonal element)
    -----------------------------------------------------------------
      1. B(C   1,Ir  0)                  2.1696         0.000000   
      2. B(C   2,Ir  0)                  2.1537         0.000000   
      3. B(C   2,C   1)                  1.4394         0.000000   
      4. B(C   3,Ir  0)                  2.1669         0.000000   
      5. B(C   4,C   1)                  1.4082         0.000000   
      6. B(C   4,C   3)                  1.4438         0.000000   
      7. B(C   4,Ir  0)                  2.1670         0.000000   
      8. B(C   5,C   3)                  1.4119         0.000000   
      9. B(C   5,C   2)                  1.4276         0.000000   
     10. B(C   5,Ir  0)                  2.1755         0.000000   
     11. B(N   6,Ir  0)                  2.1033         0.000000   
     12. B(C   7,N   6)                  1.4713         0.000000   
     13. B(C   8,C   7)                  1.5212         0.000000   
     14. B(H   9,C   8)                  1.0891         0.000000   
     15. B(H  10,C   8)                  1.0908         0.000000   
     16. B(H  11,C   8)                  1.0902         0.000000   
     17. B(C  12,C   7)                  1.5245         0.000000   
     18. B(H  13,C   7)                  1.0908         0.000000   
     19. B(H  14,C  12)                  1.0891         0.000000   
     20. B(H  15,C  12)                  1.0907         0.000000   
     21. B(H  16,C  12)                  1.0890         0.000000   
     22. B(C  17,N   6)                  1.2796         0.000000   
     23. B(C  18,C  17)                  1.4396         0.000000   
     24. B(H  19,C  17)                  1.0858         0.000000   
     25. B(C  20,C  18)                  1.3950         0.000000   
     26. B(C  20,Ir  0)                  2.2571         0.000000   
     27. B(C  21,C  20)                  1.4276         0.000000   
     28. B(S  22,C  18)                  1.6967         0.000000   
     29. B(C  23,S  22)                  1.7172         0.000000   
     30. B(C  23,C  21)                  1.3598         0.000000   
     31. B(H  24,C  20)                  1.2107         0.000000   
     32. B(H  25,C  21)                  1.0803         0.000000   
     33. B(H  26,C  23)                  1.0795         0.000000   
     34. B(H  27,C   1)                  1.0805         0.000000   
     35. B(H  28,C   2)                  1.0797         0.000000   
     36. B(H  29,C   5)                  1.0808         0.000000   
     37. B(O  31,Ir  0)                  2.0471         0.000000   
     38. B(C  32,O  31)                  1.2847         0.000000   
     39. B(C  32,O  30)                  1.2337         0.000000   
     40. B(C  33,C  32)                  1.5025         0.000000   
     41. B(H  34,C  33)                  1.0866         0.000000   
     42. B(H  35,C  33)                  1.0917         0.000000   
     43. B(H  36,C  33)                  1.0877         0.000000   
     44. B(H  37,C   3)                  1.0793         0.000000   
     45. B(H  38,C   4)                  1.0802         0.000000   
     46. A(C   3,Ir  0,O  31)          114.3905         0.000000   
     47. A(C   2,Ir  0,O  31)          106.3779         0.000000   
     48. A(C   2,Ir  0,C   3)           64.6236         0.000000   
     49. A(C   4,Ir  0,C   5)           64.0707         0.000000   
     50. A(C   3,Ir  0,C   4)           38.9192         0.000000   
     51. A(N   6,Ir  0,O  31)           84.0322         0.000000   
     52. A(C   1,Ir  0,C   3)           64.3404         0.000000   
     53. A(C   1,Ir  0,O  31)          144.4308         0.000000   
     54. A(C   2,Ir  0,C  20)          155.8793         0.000000   
     55. A(C   5,Ir  0,O  31)           92.8510         0.000000   
     56. A(C   2,Ir  0,C   5)           38.5028         0.000000   
     57. A(C   3,Ir  0,C  20)          100.0976         0.000000   
     58. A(C   5,Ir  0,N   6)          147.1524         0.000000   
     59. A(C   1,Ir  0,C   2)           38.8916         0.000000   
     60. A(C   3,Ir  0,C   5)           37.9470         0.000000   
     61. A(C   1,Ir  0,C   5)           64.1262         0.000000   
     62. A(C   1,Ir  0,N   6)          100.7546         0.000000   
     63. A(C   2,Ir  0,N   6)          111.3369         0.000000   
     64. A(C   5,Ir  0,C  20)          135.7831         0.000000   
     65. A(C   4,Ir  0,O  31)          153.2476         0.000000   
     66. A(C   4,Ir  0,C  20)           91.6710         0.000000   
     67. A(C   1,Ir  0,C   4)           37.8989         0.000000   
     68. A(C   2,Ir  0,C   4)           64.5937         0.000000   
     69. A(C  20,Ir  0,O  31)           96.8572         0.000000   
     70. A(C   1,Ir  0,C  20)          118.6281         0.000000   
     71. A(N   6,Ir  0,C  20)           76.9314         0.000000   
     72. A(C   3,Ir  0,N   6)          161.5732         0.000000   
     73. A(C   4,Ir  0,N   6)          122.6564         0.000000   
     74. A(C   2,C   1,C   4)          108.3281         0.000000   
     75. A(Ir  0,C   1,C   2)           69.9590         0.000000   
     76. A(C   2,C   1,H  27)          125.9619         0.000000   
     77. A(Ir  0,C   1,C   4)           70.9517         0.000000   
     78. A(Ir  0,C   1,H  27)          124.1174         0.000000   
     79. A(C   4,C   1,H  27)          125.7033         0.000000   
     80. A(C   1,C   2,H  28)          126.6895         0.000000   
     81. A(C   5,C   2,H  28)          125.9633         0.000000   
     82. A(Ir  0,C   2,H  28)          126.6204         0.000000   
     83. A(C   1,C   2,C   5)          107.1348         0.000000   
     84. A(Ir  0,C   2,C   5)           71.5747         0.000000   
     85. A(Ir  0,C   2,C   1)           71.1494         0.000000   
     86. A(C   4,C   3,H  37)          126.3559         0.000000   
     87. A(C   5,C   3,H  37)          126.0624         0.000000   
     88. A(Ir  0,C   3,H  37)          125.4925         0.000000   
     89. A(Ir  0,C   3,C   5)           71.3590         0.000000   
     90. A(Ir  0,C   3,C   4)           70.5461         0.000000   
     91. A(C   4,C   3,C   5)          107.5316         0.000000   
     92. A(C   1,C   4,H  38)          125.9593         0.000000   
     93. A(C   1,C   4,C   3)          108.0983         0.000000   
     94. A(C   3,C   4,H  38)          125.9407         0.000000   
     95. A(Ir  0,C   4,C   3)           70.5347         0.000000   
     96. A(Ir  0,C   4,H  38)          124.3519         0.000000   
     97. A(Ir  0,C   4,C   1)           71.1494         0.000000   
     98. A(C   2,C   5,H  29)          125.3946         0.000000   
     99. A(C   2,C   5,C   3)          108.8509         0.000000   
    100. A(Ir  0,C   5,C   3)           70.6940         0.000000   
    101. A(C   3,C   5,H  29)          125.5950         0.000000   
    102. A(Ir  0,C   5,C   2)           69.9226         0.000000   
    103. A(Ir  0,C   5,H  29)          121.8169         0.000000   
    104. A(Ir  0,N   6,C   7)          122.8651         0.000000   
    105. A(C   7,N   6,C  17)          122.2139         0.000000   
    106. A(Ir  0,N   6,C  17)          114.9146         0.000000   
    107. A(C  12,C   7,H  13)          108.6653         0.000000   
    108. A(C   8,C   7,H  13)          108.3802         0.000000   
    109. A(N   6,C   7,H  13)          104.8101         0.000000   
    110. A(C   8,C   7,C  12)          111.7012         0.000000   
    111. A(N   6,C   7,C  12)          109.3689         0.000000   
    112. A(N   6,C   7,C   8)          113.5844         0.000000   
    113. A(H  10,C   8,H  11)          108.8812         0.000000   
    114. A(H   9,C   8,H  11)          107.4218         0.000000   
    115. A(C   7,C   8,H  11)          111.9616         0.000000   
    116. A(H   9,C   8,H  10)          106.5238         0.000000   
    117. A(C   7,C   8,H  10)          112.8701         0.000000   
    118. A(C   7,C   8,H   9)          108.8987         0.000000   
    119. A(H  15,C  12,H  16)          108.4140         0.000000   
    120. A(H  14,C  12,H  16)          107.4696         0.000000   
    121. A(C   7,C  12,H  16)          111.9984         0.000000   
    122. A(H  14,C  12,H  15)          107.8124         0.000000   
    123. A(C   7,C  12,H  15)          111.2475         0.000000   
    124. A(C   7,C  12,H  14)          109.7369         0.000000   
    125. A(C  18,C  17,H  19)          122.0758         0.000000   
    126. A(N   6,C  17,H  19)          122.4144         0.000000   
    127. A(N   6,C  17,C  18)          115.4628         0.000000   
    128. A(C  17,C  18,C  20)          118.9972         0.000000   
    129. A(C  20,C  18,S  22)          113.2979         0.000000   
    130. A(C  17,C  18,S  22)          127.5064         0.000000   
    131. A(Ir  0,C  20,C  21)          128.1183         0.000000   
    132. A(Ir  0,C  20,C  18)          100.2199         0.000000   
    133. A(C  21,C  20,H  24)          118.1126         0.000000   
    134. A(C  18,C  20,H  24)          115.7967         0.000000   
    135. A(Ir  0,C  20,H  24)           81.7087         0.000000   
    136. A(C  18,C  20,C  21)          110.0342         0.000000   
    137. A(C  23,C  21,H  25)          122.9907         0.000000   
    138. A(C  20,C  21,H  25)          123.8370         0.000000   
    139. A(C  20,C  21,C  23)          113.0783         0.000000   
    140. A(C  18,S  22,C  23)           91.2067         0.000000   
    141. A(S  22,C  23,H  26)          119.6111         0.000000   
    142. A(C  21,C  23,H  26)          127.9831         0.000000   
    143. A(C  21,C  23,S  22)          112.3830         0.000000   
    144. A(Ir  0,O  31,C  32)          126.1555         0.000000   
    145. A(O  31,C  32,C  33)          115.1947         0.000000   
    146. A(O  30,C  32,C  33)          120.4417         0.000000   
    147. A(O  30,C  32,O  31)          124.3469         0.000000   
    148. A(H  35,C  33,H  36)          107.4164         0.000000   
    149. A(H  34,C  33,H  36)          110.1562         0.000000   
    150. A(C  32,C  33,H  36)          111.6970         0.000000   
    151. A(H  34,C  33,H  35)          107.7269         0.000000   
    152. A(C  32,C  33,H  35)          108.8604         0.000000   
    153. A(C  32,C  33,H  34)          110.8324         0.000000   
    154. D(H  27,C   1,Ir  0,C   4)   -120.7855         0.000000   
    155. D(C   4,C   1,Ir  0,N   6)    130.5527         0.000000   
    156. D(C   4,C   1,Ir  0,C  20)     49.6747         0.000000   
    157. D(C   2,C   1,Ir  0,C   5)     38.3670         0.000000   
    158. D(H  27,C   1,Ir  0,C   2)    120.5249         0.000000   
    159. D(C   2,C   1,Ir  0,C   4)    118.6896         0.000000   
    160. D(C   2,C   1,Ir  0,C  20)    168.3643         0.000000   
    161. D(H  27,C   1,Ir  0,O  31)    104.5669         0.000000   
    162. D(C   4,C   1,Ir  0,O  31)   -134.6476         0.000000   
    163. D(C   4,C   1,Ir  0,C   2)   -118.6896         0.000000   
    164. D(H  27,C   1,Ir  0,C   3)   -158.7822         0.000000   
    165. D(H  27,C   1,Ir  0,N   6)      9.7672         0.000000   
    166. D(C   2,C   1,Ir  0,C   3)     80.6929         0.000000   
    167. D(C   4,C   1,Ir  0,C   3)    -37.9967         0.000000   
    168. D(C   2,C   1,Ir  0,N   6)   -110.7577         0.000000   
    169. D(H  27,C   1,Ir  0,C   5)    158.8919         0.000000   
    170. D(H  27,C   1,Ir  0,C  20)    -71.1107         0.000000   
    171. D(C   4,C   1,Ir  0,C   5)    -80.3227         0.000000   
    172. D(C   2,C   1,Ir  0,O  31)    -15.9580         0.000000   
    173. D(C   5,C   2,Ir  0,C   3)     36.3217         0.000000   
    174. D(C   5,C   2,Ir  0,C  20)     90.5533         0.000000   
    175. D(C   5,C   2,Ir  0,C   4)     79.6006         0.000000   
    176. D(H  28,C   2,C   1,H  27)      3.8904         0.000000   
    177. D(C   5,C   2,Ir  0,N   6)   -163.2833         0.000000   
    178. D(C   5,C   2,Ir  0,O  31)    -73.3713         0.000000   
    179. D(H  28,C   2,C   1,Ir  0)    122.1177         0.000000   
    180. D(H  28,C   2,Ir  0,C   5)    121.5765         0.000000   
    181. D(C   5,C   2,C   1,H  27)    178.8218         0.000000   
    182. D(C   1,C   2,Ir  0,C   3)    -79.9023         0.000000   
    183. D(H  28,C   2,C   1,C   4)   -177.0130         0.000000   
    184. D(Ir  0,C   2,C   1,C   4)     60.8692         0.000000   
    185. D(C   5,C   2,C   1,C   4)     -2.0817         0.000000   
    186. D(C   5,C   2,C   1,Ir  0)    -62.9509         0.000000   
    187. D(H  28,C   2,Ir  0,O  31)     48.2052         0.000000   
    188. D(H  28,C   2,Ir  0,C  20)   -147.8702         0.000000   
    189. D(C   1,C   2,Ir  0,O  31)    170.4047         0.000000   
    190. D(C   1,C   2,Ir  0,C  20)    -25.6706         0.000000   
    191. D(C   5,C   2,Ir  0,C   1)    116.2240         0.000000   
    192. D(H  28,C   2,Ir  0,C   3)    157.8981         0.000000   
    193. D(H  28,C   2,Ir  0,N   6)    -41.7068         0.000000   
    194. D(C   1,C   2,Ir  0,C   4)    -36.6234         0.000000   
    195. D(Ir  0,C   2,C   1,H  27)   -118.2274         0.000000   
    196. D(C   1,C   2,Ir  0,C   5)   -116.2240         0.000000   
    197. D(H  28,C   2,Ir  0,C   1)   -122.1996         0.000000   
    198. D(H  28,C   2,Ir  0,C   4)   -158.8229         0.000000   
    199. D(C   1,C   2,Ir  0,N   6)     80.4928         0.000000   
    200. D(H  37,C   3,Ir  0,C   2)   -158.3444         0.000000   
    201. D(C   5,C   3,Ir  0,C   2)    -36.8454         0.000000   
    202. D(C   5,C   3,Ir  0,N   6)   -118.2388         0.000000   
    203. D(C   4,C   3,Ir  0,C   1)     37.0091         0.000000   
    204. D(C   5,C   3,Ir  0,C   4)   -117.1492         0.000000   
    205. D(H  37,C   3,Ir  0,C   4)    121.3518         0.000000   
    206. D(H  37,C   3,Ir  0,C   1)    158.3609         0.000000   
    207. D(C   5,C   3,Ir  0,C   1)    -80.1400         0.000000   
    208. D(C   4,C   3,Ir  0,O  31)    177.6345         0.000000   
    209. D(H  37,C   3,Ir  0,C   5)   -121.4990         0.000000   
    210. D(C   4,C   3,Ir  0,C  20)    -80.0142         0.000000   
    211. D(C   5,C   3,Ir  0,O  31)     60.4853         0.000000   
    212. D(C   5,C   3,Ir  0,C  20)    162.8366         0.000000   
    213. D(C   4,C   3,Ir  0,N   6)     -1.0897         0.000000   
    214. D(H  37,C   3,Ir  0,N   6)    120.2621         0.000000   
    215. D(C   4,C   3,Ir  0,C   5)    117.1492         0.000000   
    216. D(C   4,C   3,Ir  0,C   2)     80.3038         0.000000   
    217. D(H  37,C   3,Ir  0,O  31)    -61.0137         0.000000   
    218. D(H  37,C   3,Ir  0,C  20)     41.3376         0.000000   
    219. D(C   1,C   4,C   3,Ir  0)    -61.5732         0.000000   
    220. D(H  38,C   4,C   3,H  37)     -1.4234         0.000000   
    221. D(H  38,C   4,C   3,Ir  0)    118.8802         0.000000   
    222. D(C   1,C   4,C   3,H  37)    178.1232         0.000000   
    223. D(C   1,C   4,C   3,C   5)      0.5815         0.000000   
    224. D(Ir  0,C   4,C   3,H  37)   -120.3036         0.000000   
    225. D(Ir  0,C   4,C   3,C   5)     62.1547         0.000000   
    226. D(H  38,C   4,C   1,H  27)     -0.4170         0.000000   
    227. D(H  38,C   4,C   3,C   5)   -178.9651         0.000000   
    228. D(C   3,C   4,C   1,H  27)   -179.9635         0.000000   
    229. D(C   3,C   4,C   1,C   2)      0.9370         0.000000   
    230. D(C   3,C   4,C   1,Ir  0)     61.1819         0.000000   
    231. D(H  38,C   4,Ir  0,O  31)   -125.6192         0.000000   
    232. D(Ir  0,C   4,C   1,H  27)    118.8546         0.000000   
    233. D(H  38,C   4,Ir  0,C  20)    -16.7610         0.000000   
    234. D(H  38,C   4,Ir  0,N   6)     58.7620         0.000000   
    235. D(H  38,C   4,Ir  0,C   5)   -158.3048         0.000000   
    236. D(H  38,C   4,Ir  0,C   3)   -120.8289         0.000000   
    237. D(Ir  0,C   4,C   1,C   2)    -60.2449         0.000000   
    238. D(H  38,C   4,Ir  0,C   2)    158.7839         0.000000   
    239. D(H  38,C   4,Ir  0,C   1)    121.2132         0.000000   
    240. D(C   3,C   4,Ir  0,O  31)     -4.7903         0.000000   
    241. D(C   3,C   4,Ir  0,C  20)    104.0679         0.000000   
    242. D(H  38,C   4,C   1,Ir  0)   -119.2716         0.000000   
    243. D(H  38,C   4,C   1,C   2)   -179.5165         0.000000   
    244. D(C   3,C   4,Ir  0,N   6)    179.5909         0.000000   
    245. D(C   1,C   4,Ir  0,O  31)    113.1676         0.000000   
    246. D(C   3,C   4,Ir  0,C   1)   -117.9579         0.000000   
    247. D(C   3,C   4,Ir  0,C   5)    -37.4759         0.000000   
    248. D(C   1,C   4,Ir  0,C  20)   -137.9743         0.000000   
    249. D(C   1,C   4,Ir  0,N   6)    -62.4512         0.000000   
    250. D(C   1,C   4,Ir  0,C   5)     80.4820         0.000000   
    251. D(C   3,C   4,Ir  0,C   2)    -80.3873         0.000000   
    252. D(C   1,C   4,Ir  0,C   3)    117.9579         0.000000   
    253. D(C   1,C   4,Ir  0,C   2)     37.5706         0.000000   
    254. D(H  29,C   5,C   2,C   1)    178.0684         0.000000   
    255. D(H  29,C   5,C   2,Ir  0)    115.3967         0.000000   
    256. D(C   3,C   5,C   2,H  28)    177.4351         0.000000   
    257. D(C   3,C   5,C   2,Ir  0)    -60.2151         0.000000   
    258. D(Ir  0,C   5,C   2,H  28)   -122.3498         0.000000   
    259. D(Ir  0,C   5,C   2,C   1)     62.6717         0.000000   
    260. D(H  29,C   5,Ir  0,C  20)     95.9403         0.000000   
    261. D(H  29,C   5,Ir  0,N   6)    -90.3304         0.000000   
    262. D(H  29,C   5,Ir  0,C   4)    158.9919         0.000000   
    263. D(H  29,C   5,Ir  0,C   3)    120.5604         0.000000   
    264. D(H  29,C   5,Ir  0,C   2)   -119.9313         0.000000   
    265. D(H  29,C   5,Ir  0,C   1)   -158.6852         0.000000   
    266. D(C   3,C   5,Ir  0,O  31)   -127.4819         0.000000   
    267. D(C   3,C   5,Ir  0,C  20)    -24.6201         0.000000   
    268. D(C   3,C   5,Ir  0,N   6)    149.1092         0.000000   
    269. D(C   3,C   5,Ir  0,C   4)     38.4315         0.000000   
    270. D(C   3,C   5,Ir  0,C   2)    119.5083         0.000000   
    271. D(H  29,C   5,Ir  0,O  31)     -6.9215         0.000000   
    272. D(C   3,C   5,Ir  0,C   1)     80.7545         0.000000   
    273. D(C   2,C   5,Ir  0,O  31)    113.0098         0.000000   
    274. D(C   2,C   5,Ir  0,C  20)   -144.1284         0.000000   
    275. D(C   3,C   5,C   2,C   1)      2.4566         0.000000   
    276. D(C   2,C   5,Ir  0,N   6)     29.6009         0.000000   
    277. D(C   2,C   5,Ir  0,C   3)   -119.5083         0.000000   
    278. D(C   2,C   5,Ir  0,C   4)    -81.0768         0.000000   
    279. D(H  29,C   5,C   2,H  28)     -6.9531         0.000000   
    280. D(C   2,C   5,Ir  0,C   1)    -38.7539         0.000000   
    281. D(H  29,C   5,C   3,C   4)   -177.4927         0.000000   
    282. D(H  29,C   5,C   3,Ir  0)   -115.8634         0.000000   
    283. D(C   2,C   5,C   3,H  37)   -179.4428         0.000000   
    284. D(C   2,C   5,C   3,C   4)     -1.8919         0.000000   
    285. D(C   2,C   5,C   3,Ir  0)     59.7374         0.000000   
    286. D(Ir  0,C   5,C   3,H  37)    120.8198         0.000000   
    287. D(H  29,C   5,C   3,H  37)      4.9564         0.000000   
    288. D(Ir  0,C   5,C   3,C   4)    -61.6293         0.000000   
    289. D(C  17,N   6,Ir  0,O  31)    119.6035         0.000000   
    290. D(C  17,N   6,Ir  0,C  20)     21.1212         0.000000   
    291. D(C  17,N   6,Ir  0,C   5)   -154.3939         0.000000   
    292. D(C  17,N   6,Ir  0,C   4)    -62.3779         0.000000   
    293. D(C  17,N   6,Ir  0,C   3)    -61.5648         0.000000   
    294. D(C  17,N   6,Ir  0,C   2)   -135.1165         0.000000   
    295. D(C  17,N   6,Ir  0,C   1)    -96.0445         0.000000   
    296. D(C   7,N   6,Ir  0,O  31)    -61.3017         0.000000   
    297. D(C   7,N   6,Ir  0,C  20)   -159.7840         0.000000   
    298. D(C   7,N   6,Ir  0,C   5)     24.7009         0.000000   
    299. D(C   7,N   6,Ir  0,C   4)    116.7169         0.000000   
    300. D(C   7,N   6,Ir  0,C   3)    117.5300         0.000000   
    301. D(C   7,N   6,Ir  0,C   2)     43.9783         0.000000   
    302. D(C   7,N   6,Ir  0,C   1)     83.0503         0.000000   
    303. D(H  13,C   7,N   6,C  17)   -147.3886         0.000000   
    304. D(H  13,C   7,N   6,Ir  0)     33.5818         0.000000   
    305. D(C  12,C   7,N   6,C  17)     96.2619         0.000000   
    306. D(C  12,C   7,N   6,Ir  0)    -82.7677         0.000000   
    307. D(C   8,C   7,N   6,C  17)    -29.2692         0.000000   
    308. D(C   8,C   7,N   6,Ir  0)    151.7012         0.000000   
    309. D(H  11,C   8,C   7,H  13)     64.4685         0.000000   
    310. D(H  11,C   8,C   7,C  12)   -175.8483         0.000000   
    311. D(H  11,C   8,C   7,N   6)    -51.5695         0.000000   
    312. D(H  10,C   8,C   7,H  13)   -172.2476         0.000000   
    313. D(H  10,C   8,C   7,C  12)    -52.5644         0.000000   
    314. D(H  10,C   8,C   7,N   6)     71.7145         0.000000   
    315. D(H   9,C   8,C   7,H  13)    -54.1697         0.000000   
    316. D(H   9,C   8,C   7,C  12)     65.5135         0.000000   
    317. D(H   9,C   8,C   7,N   6)   -170.2076         0.000000   
    318. D(H  16,C  12,C   7,H  13)    -57.7744         0.000000   
    319. D(H  16,C  12,C   7,C   8)   -177.2895         0.000000   
    320. D(H  16,C  12,C   7,N   6)     56.1009         0.000000   
    321. D(H  15,C  12,C   7,H  13)   -179.2822         0.000000   
    322. D(H  15,C  12,C   7,C   8)     61.2027         0.000000   
    323. D(H  15,C  12,C   7,N   6)    -65.4069         0.000000   
    324. D(H  14,C  12,C   7,H  13)     61.4955         0.000000   
    325. D(H  14,C  12,C   7,C   8)    -58.0196         0.000000   
    326. D(H  14,C  12,C   7,N   6)    175.3708         0.000000   
    327. D(H  19,C  17,N   6,C   7)     -3.4974         0.000000   
    328. D(H  19,C  17,N   6,Ir  0)    175.6039         0.000000   
    329. D(C  18,C  17,N   6,C   7)    174.0554         0.000000   
    330. D(C  18,C  17,N   6,Ir  0)     -6.8432         0.000000   
    331. D(S  22,C  18,C  17,H  19)    -32.7137         0.000000   
    332. D(S  22,C  18,C  17,N   6)    149.7243         0.000000   
    333. D(C  20,C  18,C  17,H  19)    152.7746         0.000000   
    334. D(C  20,C  18,C  17,N   6)    -24.7873         0.000000   
    335. D(H  24,C  20,C  18,S  22)    137.0702         0.000000   
    336. D(C  21,C  20,C  18,S  22)     -0.0955         0.000000   
    337. D(C  21,C  20,C  18,C  17)    175.1661         0.000000   
    338. D(Ir  0,C  20,C  18,S  22)   -137.2660         0.000000   
    339. D(H  24,C  20,Ir  0,O  31)      3.3549         0.000000   
    340. D(H  24,C  20,Ir  0,N   6)     85.5721         0.000000   
    341. D(H  24,C  20,Ir  0,C   5)    -97.9148         0.000000   
    342. D(H  24,C  20,Ir  0,C   3)   -112.9974         0.000000   
    343. D(H  24,C  20,Ir  0,C   2)   -161.1249         0.000000   
    344. D(H  24,C  20,Ir  0,C   1)   -179.1759         0.000000   
    345. D(C  21,C  20,Ir  0,O  31)    122.7561         0.000000   
    346. D(C  21,C  20,Ir  0,N   6)   -155.0267         0.000000   
    347. D(C  21,C  20,Ir  0,C   5)     21.4864         0.000000   
    348. D(C  21,C  20,Ir  0,C   4)    -31.8372         0.000000   
    349. D(C  21,C  20,Ir  0,C   3)      6.4038         0.000000   
    350. D(C  21,C  20,Ir  0,C   2)    -41.7237         0.000000   
    351. D(H  24,C  20,Ir  0,C   4)   -151.2384         0.000000   
    352. D(C  21,C  20,Ir  0,C   1)    -59.7747         0.000000   
    353. D(C  18,C  20,Ir  0,O  31)   -111.5171         0.000000   
    354. D(C  18,C  20,Ir  0,N   6)    -29.2999         0.000000   
    355. D(Ir  0,C  20,C  18,C  17)     37.9956         0.000000   
    356. D(C  18,C  20,Ir  0,C   5)    147.2132         0.000000   
    357. D(C  18,C  20,Ir  0,C   4)     93.8896         0.000000   
    358. D(C  18,C  20,Ir  0,C   3)    132.1306         0.000000   
    359. D(H  24,C  20,C  18,C  17)    -47.6683         0.000000   
    360. D(C  18,C  20,Ir  0,C   2)     84.0031         0.000000   
    361. D(C  18,C  20,Ir  0,C   1)     65.9521         0.000000   
    362. D(H  25,C  21,C  20,H  24)     40.5663         0.000000   
    363. D(H  25,C  21,C  20,C  18)    176.6184         0.000000   
    364. D(H  25,C  21,C  20,Ir  0)    -61.6355         0.000000   
    365. D(C  23,C  21,C  20,H  24)   -135.9964         0.000000   
    366. D(C  23,C  21,C  20,C  18)      0.0557         0.000000   
    367. D(C  23,C  21,C  20,Ir  0)    121.8018         0.000000   
    368. D(C  23,S  22,C  18,C  20)      0.0857         0.000000   
    369. D(C  23,S  22,C  18,C  17)   -174.6886         0.000000   
    370. D(H  26,C  23,S  22,C  18)   -178.4501         0.000000   
    371. D(C  21,C  23,S  22,C  18)     -0.0522         0.000000   
    372. D(H  26,C  23,C  21,H  25)      1.6435         0.000000   
    373. D(H  26,C  23,C  21,C  20)    178.2396         0.000000   
    374. D(S  22,C  23,C  21,H  25)   -176.5892         0.000000   
    375. D(S  22,C  23,C  21,C  20)      0.0068         0.000000   
    376. D(C  32,O  31,Ir  0,C  20)     -2.2798         0.000000   
    377. D(C  32,O  31,Ir  0,N   6)    -78.3013         0.000000   
    378. D(C  32,O  31,Ir  0,C   5)    134.5021         0.000000   
    379. D(C  32,O  31,Ir  0,C   4)    105.4065         0.000000   
    380. D(C  32,O  31,Ir  0,C   3)    102.1042         0.000000   
    381. D(C  32,O  31,Ir  0,C   2)    171.1757         0.000000   
    382. D(C  32,O  31,Ir  0,C   1)   -178.4594         0.000000   
    383. D(C  33,C  32,O  31,Ir  0)   -174.7524         0.000000   
    384. D(O  30,C  32,O  31,Ir  0)      3.7611         0.000000   
    385. D(H  36,C  33,C  32,O  31)    -32.8002         0.000000   
    386. D(H  36,C  33,C  32,O  30)    148.6234         0.000000   
    387. D(H  35,C  33,C  32,O  31)     85.6461         0.000000   
    388. D(H  35,C  33,C  32,O  30)    -92.9303         0.000000   
    389. D(H  34,C  33,C  32,O  31)   -156.0436         0.000000   
    390. D(H  34,C  33,C  32,O  30)     25.3799         0.000000   
    -----------------------------------------------------------------

Number of atoms                         .... 39
Number of degrees of freedom            .... 390

         *************************************************************
         *                GEOMETRY OPTIMIZATION CYCLE   1            *
         *************************************************************
---------------------------------
CARTESIAN COORDINATES (ANGSTROEM)
---------------------------------
  Ir     0.623080   -0.714520    0.432250
  C      0.109550   -2.819980    0.330400
  C      0.045560   -2.362030    1.693470
  C      2.213640   -2.094100    0.944230
  C      1.427490   -2.645370   -0.134010
  C      1.362450   -1.951960    2.061650
  N     -1.045560    0.142890   -0.518620
  C     -2.309300    0.419360    0.182300
  C     -3.090690    1.583430   -0.408060
  H     -3.912170    1.832880    0.262110
  H     -3.539160    1.346620   -1.373840
  H     -2.473980    2.476070   -0.514830
  C     -3.147220   -0.853150    0.234800
  H     -2.012640    0.684140    1.198000
  H     -4.046740   -0.677180    0.822970
  H     -3.457000   -1.163930   -0.763790
  H     -2.608520   -1.677380    0.699940
  C     -0.887510    0.391930   -1.763720
  C      0.444600    0.190350   -2.271000
  H     -1.691410    0.769240   -2.388410
  C      1.522970    0.268500   -1.389450
  C      2.733450   -0.070310   -2.066210
  S      0.893380   -0.270230   -3.841060
  C      2.543060   -0.378490   -3.376840
  H      1.531480    1.227990   -0.651170
  H      3.710520   -0.031310   -1.607040
  H      3.288030   -0.641210   -4.112520
  H     -0.714710   -3.215580   -0.245420
  H     -0.812220   -2.402270    2.347910
  H      1.642630   -1.529440    3.016190
  O      1.429390    2.425370    0.172920
  O      0.549130    0.962680    1.603600
  C      0.971300    2.132210    1.280300
  C      0.907800    3.160180    2.374300
  H      0.866440    4.163750    1.959660
  H      1.813390    3.087700    2.979660
  H      0.060260    2.992420    3.035000
  H      3.269330   -1.871200    0.917280
  H      1.789270   -2.888890   -1.122220

----------------------------
CARTESIAN COORDINATES (A.U.)
----------------------------
  NO LB      ZA    FRAG     MASS         X           Y           Z
   0 Ir   17.0000*   0   192.220    1.177451   -1.350247    0.816834
   1 C     6.0000    0    12.011    0.207019   -5.328990    0.624366
   2 C     6.0000    0    12.011    0.086096   -4.463590    3.200195
   3 C     6.0000    0    12.011    4.183173   -3.957275    1.784336
   4 C     6.0000    0    12.011    2.697565   -4.999025   -0.253242
   5 C     6.0000    0    12.011    2.574657   -3.688670    3.895954
   6 N     7.0000    0    14.007   -1.975822    0.270023   -0.980050
   7 C     6.0000    0    12.011   -4.363945    0.792476    0.344497
   8 C     6.0000    0    12.011   -5.840558    2.992249   -0.771122
   9 H     1.0000    0     1.008   -7.392930    3.463641    0.495316
  10 H     1.0000    0     1.008   -6.688043    2.544743   -2.596181
  11 H     1.0000    0     1.008   -4.675145    4.679094   -0.972888
  12 C     6.0000    0    12.011   -5.947384   -1.612220    0.443708
  13 H     1.0000    0     1.008   -3.803338    1.292837    2.263892
  14 H     1.0000    0     1.008   -7.647230   -1.279685    1.555188
  15 H     1.0000    0     1.008   -6.532783   -2.199509   -1.443354
  16 H     1.0000    0     1.008   -4.929388   -3.169789    1.322695
  17 C     6.0000    0    12.011   -1.677151    0.740640   -3.332948
  18 C     6.0000    0    12.011    0.840172    0.359709   -4.291568
  19 H     1.0000    0     1.008   -3.196302    1.453653   -4.513441
  20 C     6.0000    0    12.011    2.877996    0.507391   -2.625680
  21 C     6.0000    0    12.011    5.165472   -0.132867   -3.904571
  22 S    16.0000    0    32.060    1.688244   -0.510661   -7.258551
  23 C     6.0000    0    12.011    4.805687   -0.715242   -6.381303
  24 H     1.0000    0     1.008    2.894078    2.320565   -1.230533
  25 H     1.0000    0     1.008    7.011867   -0.059167   -3.036865
  26 H     1.0000    0     1.008    6.213476   -1.211711   -7.771537
  27 H     1.0000    0     1.008   -1.350606   -6.076566   -0.463777
  28 H     1.0000    0     1.008   -1.534873   -4.539632    4.436907
  29 H     1.0000    0     1.008    3.104121   -2.890223    5.699773
  30 O     8.0000    0    15.999    2.701156    4.583285    0.326771
  31 O     8.0000    0    15.999    1.037705    1.819202    3.030365
  32 C     6.0000    0    12.011    1.835491    4.029293    2.419416
  33 C     6.0000    0    12.011    1.715493    5.971875    4.486777
  34 H     1.0000    0     1.008    1.637334    7.868347    3.703221
  35 H     1.0000    0     1.008    3.426810    5.834907    5.630741
  36 H     1.0000    0     1.008    0.113875    5.654854    5.735319
  37 H     1.0000    0     1.008    6.178138   -3.536056    1.733408
  38 H     1.0000    0     1.008    3.381230   -5.459211   -2.120688
* core charge reduced due to ECP

--------------------------------
INTERNAL COORDINATES (ANGSTROEM)
--------------------------------
 Ir     0   0   0     0.000000000000     0.00000000     0.00000000
 C      1   0   0     2.169573297909     0.00000000     0.00000000
 C      2   1   0     1.439365397493    69.95899580     0.00000000
 C      1   2   3     2.166851543230    64.34041326    80.69293570
 C      2   1   3     1.408236891933    70.95167233   241.31036719
 C      4   1   2     1.411862476341    71.35900154   279.85997135
 N      1   2   3     2.103251082158   100.75461528   249.24234164
 C      7   1   2     1.471313459090   122.86506609    83.05027579
 C      8   7   1     1.521234441695   113.58443557   151.70117142
 H      9   8   7     1.089120067669   108.89865944   189.79236222
 H      9   8   7     1.090841567506   112.87009786    71.71445679
 H      9   8   7     1.090200544212   111.96164946   308.43053391
 C      8   7   1     1.524515620287   109.36885013   277.23227468
 H      8   7   1     1.090762161977   104.81012400    33.58175271
 H     13   8   7     1.089057216220   109.73691681   175.37079358
 H     13   8   7     1.090747379048   111.24746058   294.59308648
 H     13   8   7     1.088994032353   111.99835248    56.10092484
 C      7   1   2     1.279560367509   114.91460082   263.95547494
 C     18   7   1     1.439612637795   115.46281216   353.15676658
 H     18   7   1     1.085751187980   122.41439637   175.60391367
 C     19  18   7     1.395033935752   118.99719564   335.21265249
 C     21  19  18     1.427605738326   110.03418399   175.16606227
 S     19  18   7     1.696651357351   127.50637700   149.72433953
 C     22  21  19     1.359769929584   113.07825567     0.05571734
 H     21  19  18     1.210681972526   115.79666659   312.33171600
 H     22  21  19     1.080288791852   123.83704321   176.61842090
 H     24  22  21     1.079456882742   127.98308876   178.23959165
 H      2   1   3     1.080496450711   124.11742946   120.52490564
 H      3   2   1     1.079674719348   126.68950434   122.11774562
 H      6   4   1     1.080819408782   125.59498651   244.13657871
 O     25  21  19     1.457142944464   174.63709645   356.75821972
 O      1   2   3     2.047078226400   144.43083223   344.04203523
 C     31  25  21     1.233725941245   109.77862738   102.82276662
 C     33  31  25     1.502528059938   120.44172131   173.14861905
 H     34  33  31     1.086641488302   110.83242232    25.37994344
 H     34  33  31     1.091699284648   108.86038963   267.06965596
 H     34  33  31     1.087654338106   111.69700660   148.62338896
 H      4   1   2     1.079301667098   125.49247382   158.36093178
 H      5   2   1     1.080160063555   125.95928437   240.72836840

---------------------------
INTERNAL COORDINATES (A.U.)
---------------------------
 Ir     0   0   0     0.000000000000     0.00000000     0.00000000
 C      1   0   0     4.099899360516     0.00000000     0.00000000
 C      2   1   0     2.720006407904    69.95899580     0.00000000
 C      1   2   3     4.094755989570    64.34041326    80.69293570
 C      2   1   3     2.661182057437    70.95167233   241.31036719
 C      4   1   2     2.668033419045    71.35900154   279.85997135
 N      1   2   3     3.974568536153   100.75461528   249.24234164
 C      7   1   2     2.780379494833   122.86506609    83.05027579
 C      8   7   1     2.874716480293   113.58443557   151.70117142
 H      9   8   7     2.058138654853   108.89865944   189.79236222
 H      9   8   7     2.061391818085   112.87009786    71.71445679
 H      9   8   7     2.060180459612   111.96164946   308.43053391
 C      8   7   1     2.880917009228   109.36885013   277.23227468
 H      8   7   1     2.061241763380   104.81012400    33.58175271
 H     13   8   7     2.058019882826   109.73691681   175.37079358
 H     13   8   7     2.061213827693   111.24746058   294.59308648
 H     13   8   7     2.057900482621   111.99835248    56.10092484
 C      7   1   2     2.418018666412   114.91460082   263.95547494
 C     18   7   1     2.720473624365   115.46281216   353.15676658
 H     18   7   1     2.051772394862   122.41439637   175.60391367
 C     19  18   7     2.636232086098   118.99719564   335.21265249
 C     21  19  18     2.697783872650   110.03418399   175.16606227
 S     19  18   7     3.206206410139   127.50637700   149.72433953
 C     22  21  19     2.569592772055   113.07825567     0.05571734
 H     21  19  18     2.287857363350   115.79666659   312.33171600
 H     22  21  19     2.041449962144   123.83704321   176.61842090
 H     24  22  21     2.039877881760   127.98308876   178.23959165
 H      2   1   3     2.041842380519   124.11742946   120.52490564
 H      3   2   1     2.040289533287   126.68950434   122.11774562
 H      6   4   1     2.042452682825   125.59498651   244.13657871
 O     25  21  19     2.753601103012   174.63709645   356.75821972
 O      1   2   3     3.868417222609   144.43083223   344.04203523
 C     31  25  21     2.331404153267   109.77862738   102.82276662
 C     33  31  25     2.839366541814   120.44172131   173.14861905
 H     34  33  31     2.053454818648   110.83242232    25.37994344
 H     34  33  31     2.063012668582   108.86038963   267.06965596
 H     34  33  31     2.055368827391   111.69700660   148.62338896
 H      4   1   2     2.039584566699   125.49247382   158.36093178
 H      5   2   1     2.041206700919   125.95928437   240.72836840

---------------------
BASIS SET INFORMATION
---------------------
There are 6 groups of distinct atoms

 Group   1 Type Ir  : 7s6p5d1f contracted to 6s3p2d1f pattern {211111/411/41/1}
 Group   2 Type C   : 8s4p1d contracted to 4s2p1d pattern {5111/31/1}
 Group   3 Type N   : 8s4p1d contracted to 4s2p1d pattern {5111/31/1}
 Group   4 Type H   : 4s contracted to 2s pattern {31}
 Group   5 Type S   : 10s7p1d contracted to 4s3p1d pattern {5311/511/1}
 Group   6 Type O   : 8s4p1d contracted to 4s2p1d pattern {5111/31/1}

Atom   0Ir   basis set group =>   1
Atom   1C    basis set group =>   2
Atom   2C    basis set group =>   2
Atom   3C    basis set group =>   2
Atom   4C    basis set group =>   2
Atom   5C    basis set group =>   2
Atom   6N    basis set group =>   3
Atom   7C    basis set group =>   2
Atom   8C    basis set group =>   2
Atom   9H    basis set group =>   4
Atom  10H    basis set group =>   4
Atom  11H    basis set group =>   4
Atom  12C    basis set group =>   2
Atom  13H    basis set group =>   4
Atom  14H    basis set group =>   4
Atom  15H    basis set group =>   4
Atom  16H    basis set group =>   4
Atom  17C    basis set group =>   2
Atom  18C    basis set group =>   2
Atom  19H    basis set group =>   4
Atom  20C    basis set group =>   2
Atom  21C    basis set group =>   2
Atom  22S    basis set group =>   5
Atom  23C    basis set group =>   2
Atom  24H    basis set group =>   4
Atom  25H    basis set group =>   4
Atom  26H    basis set group =>   4
Atom  27H    basis set group =>   4
Atom  28H    basis set group =>   4
Atom  29H    basis set group =>   4
Atom  30O    basis set group =>   6
Atom  31O    basis set group =>   6
Atom  32C    basis set group =>   2
Atom  33C    basis set group =>   2
Atom  34H    basis set group =>   4
Atom  35H    basis set group =>   4
Atom  36H    basis set group =>   4
Atom  37H    basis set group =>   4
Atom  38H    basis set group =>   4
---------------------------------
AUXILIARY/J BASIS SET INFORMATION
---------------------------------
There are 6 groups of distinct atoms

 Group   1 Type Ir  : 11s5p5d3f3g contracted to 8s5p5d2f3g pattern {41111111/11111/11111/21/111}
 Group   2 Type C   : 12s5p4d2f1g contracted to 6s4p3d1f1g pattern {711111/2111/211/2/1}
 Group   3 Type N   : 12s5p4d2f1g contracted to 6s4p3d1f1g pattern {711111/2111/211/2/1}
 Group   4 Type H   : 5s2p1d contracted to 3s1p1d pattern {311/2/1}
 Group   5 Type S   : 14s5p5d2f1g contracted to 8s4p3d1f1g pattern {71111111/2111/311/2/1}
 Group   6 Type O   : 12s5p4d2f1g contracted to 6s4p3d1f1g pattern {711111/2111/211/2/1}

Atom   0Ir   basis set group =>   1
Atom   1C    basis set group =>   2
Atom   2C    basis set group =>   2
Atom   3C    basis set group =>   2
Atom   4C    basis set group =>   2
Atom   5C    basis set group =>   2
Atom   6N    basis set group =>   3
Atom   7C    basis set group =>   2
Atom   8C    basis set group =>   2
Atom   9H    basis set group =>   4
Atom  10H    basis set group =>   4
Atom  11H    basis set group =>   4
Atom  12C    basis set group =>   2
Atom  13H    basis set group =>   4
Atom  14H    basis set group =>   4
Atom  15H    basis set group =>   4
Atom  16H    basis set group =>   4
Atom  17C    basis set group =>   2
Atom  18C    basis set group =>   2
Atom  19H    basis set group =>   4
Atom  20C    basis set group =>   2
Atom  21C    basis set group =>   2
Atom  22S    basis set group =>   5
Atom  23C    basis set group =>   2
Atom  24H    basis set group =>   4
Atom  25H    basis set group =>   4
Atom  26H    basis set group =>   4
Atom  27H    basis set group =>   4
Atom  28H    basis set group =>   4
Atom  29H    basis set group =>   4
Atom  30O    basis set group =>   6
Atom  31O    basis set group =>   6
Atom  32C    basis set group =>   2
Atom  33C    basis set group =>   2
Atom  34H    basis set group =>   4
Atom  35H    basis set group =>   4
Atom  36H    basis set group =>   4
Atom  37H    basis set group =>   4
Atom  38H    basis set group =>   4
-------------------------
ECP PARAMETER INFORMATION
-------------------------

 Group 1, Type Ir ECP Def2-ECP (replacing 60 core electrons, lmax=3)

Atom   0Ir   ECP group =>   1



           ************************************************************
           *        Program running with 8 parallel MPI-processes     *
           *              working on a common directory               *
           ************************************************************
------------------------------------------------------------------------------
                           ORCA GTO INTEGRAL CALCULATION
                           -- RI-GTO INTEGRALS CHOSEN --
------------------------------------------------------------------------------
------------------------------------------------------------------------------
                   ___                                                        
                  /   \      - P O W E R E D   B Y -                         
                 /     \                                                     
                 |  |  |   _    _      __       _____    __    __             
                 |  |  |  | |  | |    /  \     |  _  \  |  |  /  |          
                  \  \/   | |  | |   /    \    | | | |  |  | /  /          
                 / \  \   | |__| |  /  /\  \   | |_| |  |  |/  /          
                |  |  |   |  __  | /  /__\  \  |    /   |      \           
                |  |  |   | |  | | |   __   |  |    \   |  |\   \          
                \     /   | |  | | |  |  |  |  | |\  \  |  | \   \       
                 \___/    |_|  |_| |__|  |__|  |_| \__\ |__|  \__/        
                                                                              
                      - O R C A' S   B I G   F R I E N D -                    
                                      &                                       
                       - I N T E G R A L  F E E D E R -                       
                                                                              
 v1 FN, 2020, v2 2021                                                         
------------------------------------------------------------------------------


Reading SHARK input file reaction-4-manual-optts.SHARKINP.tmp ... ok
----------------------
SHARK INTEGRAL PACKAGE
----------------------

Number of atoms                             ...     39
Number of basis functions                   ...    358
Number of shells                            ...    184
Maximum angular momentum                    ...      3
Integral batch strategy                     ... SHARK/LIBINT Hybrid
RI-J (if used) integral strategy            ... SPLIT-RIJ (Revised 2003 algorithm where possible)
Printlevel                                  ...      1
Contraction scheme used                     ... SEGMENTED contraction
Coulomb Range Separation                    ... NOT USED
Exchange Range Separation                   ... NOT USED
Finite Nucleus Model                        ... NOT USED
Auxiliary Coulomb fitting basis             ... AVAILABLE
   # of basis functions in Aux-J            ...   1231
   # of shells in Aux-J                     ...    405
   Maximum angular momentum in Aux-J        ...      4
Auxiliary J/K fitting basis                 ... NOT available
Auxiliary Correlation fitting basis         ... NOT available
Auxiliary 'external' fitting basis          ... NOT available
Integral threshold                          ...     2.500000e-11
Primitive cut-off                           ...     2.500000e-12
Primitive pair pre-selection threshold      ...     2.500000e-12

Calculating pre-screening integrals         ... done (  0.1 sec) Dimension = 184
Organizing shell pair data                  ... done (  0.1 sec)
Shell pair information
Total number of shell pairs                 ...     17020
Shell pairs after pre-screening             ...     12981
Total number of primitive shell pairs       ...     60705
Primitive shell pairs kept                  ...     29203
          la=0 lb=0:   4977 shell pairs
          la=1 lb=0:   4253 shell pairs
          la=1 lb=1:    857 shell pairs
          la=2 lb=0:   1745 shell pairs
          la=2 lb=1:    792 shell pairs
          la=2 lb=2:    180 shell pairs
          la=3 lb=0:    113 shell pairs
          la=3 lb=1:     42 shell pairs
          la=3 lb=2:     21 shell pairs
          la=3 lb=3:      1 shell pairs

Calculating one electron integrals          ... done (  0.0 sec)
Calculating ECP integrals                   ... done (  1.0 sec)
Calculating RI/J V-Matrix + Cholesky decomp.... done (  0.1 sec)
Calculating Nuclear repulsion               ... done (  0.0 sec) ENN=   2037.518752861760 Eh

SHARK setup successfully completed in   2.0 seconds

Maximum memory used throughout the entire GTOINT-calculation: 27.1 MB


           ************************************************************
           *        Program running with 8 parallel MPI-processes     *
           *              working on a common directory               *
           ************************************************************
-------------------------------------------------------------------------------
                                 ORCA SCF
-------------------------------------------------------------------------------

------------
SCF SETTINGS
------------
Hamiltonian:
 Density Functional     Method          .... DFT(GTOs)
 Exchange Functional    Exchange        .... PBE
   PBE kappa parameter   XKappa         ....  1.024500
   PBE mue parameter    XMuePBE         ....  0.123457
 Correlation Functional Correlation     .... PBE
   PBE beta parameter  CBetaPBE         ....  0.030000
 LDA part of GGA corr.  LDAOpt          .... PW91-LDA
 Gradients option       PostSCFGGA      .... off
 Hybrid DFT is turned on
   Fraction HF Exchange ScalHFX         ....  0.420000
   Scaling of DF-GGA-X  ScalDFX         ....  0.580000
   Scaling of DF-GGA-C  ScalDFC         ....  1.000000
   Scaling of DF-LDA-C  ScalLDAC        ....  1.000000
   Perturbative correction              ....  0.000000
   Density functional embedding theory  .... OFF
 RI-approximation to the Coulomb term is turned on
   Number of AuxJ basis functions       .... 1231
   RIJ-ON(X) (HFX calculated with O(N)) .... on
   Number of AuxJ basis functions       .... 1231
   RIJ-COSX (HFX calculated with COS-X)).... on


General Settings:
 Integral files         IntName         .... reaction-4-manual-optts
 Hartree-Fock type      HFTyp           .... RHF
 Total Charge           Charge          ....    1
 Multiplicity           Mult            ....    1
 Number of Electrons    NEL             ....  164
 Basis Dimension        Dim             ....  358
 Nuclear Repulsion      ENuc            ....   2037.5187528618 Eh

Convergence Acceleration:
 DIIS                   CNVDIIS         .... on
   Start iteration      DIISMaxIt       ....    12
   Startup error        DIISStart       ....  0.200000
   # of expansion vecs  DIISMaxEq       ....     5
   Bias factor          DIISBfac        ....   1.050
   Max. coefficient     DIISMaxC        ....  10.000
 Trust-Rad. Augm. Hess. CNVTRAH         .... auto
   Auto Start mean grad. ratio tolernc. ....  1.125000
   Auto Start start iteration           ....    20
   Auto Start num. interpolation iter.  ....    10
   Max. Number of Micro iterations      ....    16
   Max. Number of Macro iterations      .... Maxiter - #DIIS iter
   Number of Davidson start vectors     ....     2
   Converg. threshold I  (grad. norm)   ....   1.000e-05
   Converg. threshold II (energy diff.) ....   1.000e-08
   Grad. Scal. Fac. for Micro threshold ....   0.100
   Minimum threshold for Micro iter.    ....   0.010
   NR start threshold (gradient norm)   ....   0.001
   Initial trust radius                 ....   0.400
   Minimum AH scaling param. (alpha)    ....   1.000
   Maximum AH scaling param. (alpha)    .... 1000.000
   Orbital update algorithm             .... Taylor
   White noise on init. David. guess    .... on
   Maximum white noise                  ....   0.010
   Quad. conv. algorithm                .... NR
   COSX micro iterations for RIJONX calc.... off
 SOSCF                  CNVSOSCF        .... off
 Level Shifting         CNVShift        .... on
   Level shift para.    LevelShift      ....    0.2500
   Turn off err/grad.   ShiftErr        ....    0.0010
 Zerner damping         CNVZerner       .... off
 Static damping         CNVDamp         .... on
   Fraction old density DampFac         ....    0.7000
   Max. Damping (<1)    DampMax         ....    0.9800
   Min. Damping (>=0)   DampMin         ....    0.0000
   Turn off err/grad.   DampErr         ....    0.1000
 Fernandez-Rico         CNVRico         .... off

SCF Procedure:
 Maximum # iterations   MaxIter         ....   125
 SCF integral mode      SCFMode         .... Direct
   Integral package                     .... SHARK and LIBINT hybrid scheme
 Reset frequency        DirectResetFreq ....    20
 Integral Threshold     Thresh          ....  2.500e-11 Eh
 Primitive CutOff       TCut            ....  2.500e-12 Eh

Convergence Tolerance:
 Convergence Check Mode ConvCheckMode   .... Total+1el-Energy
 Convergence forced     ConvForced      .... 0
 Energy Change          TolE            ....  1.000e-08 Eh
 1-El. energy change                    ....  1.000e-05 Eh
 DIIS Error             TolErr          ....  5.000e-07


Diagonalization of the overlap matrix:
Smallest eigenvalue                        ... 1.264e-03
Time for diagonalization                   ...    0.024 sec
Threshold for overlap eigenvalues          ... 1.000e-08
Number of eigenvalues below threshold      ... 0
Time for construction of square roots      ...    0.017 sec
Total time needed                          ...    0.043 sec

--------------------
INITIAL GUESS: HCORE
--------------------
                      -----------------
                      INTIAL GUESS DONE 
                      -----------------
-------------------
DFT GRID GENERATION
-------------------

General Integration Accuracy     IntAcc      ... 4.159
Radial Grid Type                 RadialGrid  ... OptM3 with GC (2021)
Angular Grid (max. ang.)         AngularGrid ... 3 (Lebedev-194)
Angular grid pruning method      GridPruning ... 4 (adaptive)
Weight generation scheme         WeightScheme... Becke
Basis function cutoff            BFCut       ... 1.0000e-11
Integration weight cutoff        WCut        ... 1.0000e-14
Angular grids for H and He will be reduced by one unit
Partially contracted basis set               ... off
Rotationally invariant grid construction     ... off

Total number of grid points                  ...    93274
Total number of batches                      ...     1479
Average number of points per batch           ...       63
Average number of grid points per atom       ...     2392
Time for grid setup =    0.498 sec

--------------------
COSX GRID GENERATION
--------------------

GRIDX 1
-------
General Integration Accuracy     IntAcc      ... 3.816
Radial Grid Type                 RadialGrid  ... OptM3 with GC (2021)
Angular Grid (max. ang.)         AngularGrid ... 1 (Lebedev-50)
Angular grid pruning method      GridPruning ... 4 (adaptive)
Weight generation scheme         WeightScheme... Becke
Basis function cutoff            BFCut       ... 1.0000e-11
Integration weight cutoff        WCut        ... 1.0000e-14
Angular grids for H and He will be reduced by one unit
Partially contracted basis set               ... on
Rotationally invariant grid construction     ... off

Total number of grid points                  ...    23174
Total number of batches                      ...      381
Average number of points per batch           ...       60
Average number of grid points per atom       ...      594
UseSFitting                                  ... on

GRIDX 2
-------
General Integration Accuracy     IntAcc      ... 4.020
Radial Grid Type                 RadialGrid  ... OptM3 with GC (2021)
Angular Grid (max. ang.)         AngularGrid ... 2 (Lebedev-110)
Angular grid pruning method      GridPruning ... 4 (adaptive)
Weight generation scheme         WeightScheme... Becke
Basis function cutoff            BFCut       ... 1.0000e-11
Integration weight cutoff        WCut        ... 1.0000e-14
Angular grids for H and He will be reduced by one unit
Partially contracted basis set               ... on
Rotationally invariant grid construction     ... off

Total number of grid points                  ...    50325
Total number of batches                      ...      806
Average number of points per batch           ...       62
Average number of grid points per atom       ...     1290
UseSFitting                                  ... on

GRIDX 3
-------
General Integration Accuracy     IntAcc      ... 4.338
Radial Grid Type                 RadialGrid  ... OptM3 with GC (2021)
Angular Grid (max. ang.)         AngularGrid ... 3 (Lebedev-194)
Angular grid pruning method      GridPruning ... 4 (adaptive)
Weight generation scheme         WeightScheme... Becke
Basis function cutoff            BFCut       ... 1.0000e-11
Integration weight cutoff        WCut        ... 1.0000e-14
Angular grids for H and He will be reduced by one unit
Partially contracted basis set               ... on
Rotationally invariant grid construction     ... off

Total number of grid points                  ...   108747
Total number of batches                      ...     1716
Average number of points per batch           ...       63
Average number of grid points per atom       ...     2788
UseSFitting                                  ... on

Time for X-Grid setup             =    1.218 sec

--------------
SCF ITERATIONS
--------------
ITER       Energy         Delta-E        Max-DP      RMS-DP      [F,P]     Damp
               ***  Starting incremental Fock matrix formation  ***
  0   -849.6823245072   0.00000000000020.52544071  0.15786742  2.8551394 0.7000
  1  -1087.7744371178-238.09211261061310.99560399  0.13912269  1.4747476 0.7000
  2  -1156.4154403098 -68.641003191952 5.53373260  0.07320199  1.0600883 0.7000
  3  -1183.4897025000 -27.074262190256 3.84484263  0.04886493  0.7721388 0.7000
  4  -1204.7740946477 -21.284392147650 2.70796420  0.03957826  0.4636944 0.7000
  5  -1218.4861255356 -13.712030887956 2.48167891  0.03376113  0.3669424 0.7000
  6  -1228.7185262945 -10.232400758900 1.70997182  0.02923233  0.3450547 0.7000
  7  -1237.5137956873  -8.795269392729 1.85049192  0.02708717  0.3233938 0.7000
  8  -1242.4019583668  -4.888162679505 1.58292566  0.02594239  0.3805618 0.7000
  9  -1248.3679702113  -5.966011844555 1.40161134  0.02407889  0.3405155 0.7000
 10  -1252.8446226088  -4.476652397503 1.52459441  0.02629328  0.3470050 0.7000
 11  -1255.1697365519  -2.325113943100 1.43513430  0.02328161  0.3143100 0.7000
                               ***Turning on DIIS***
 12  -1258.9331336847  -3.763397132727 1.40668960  0.02364778  0.3048565 0.7000
 13  -1259.2561780178  -0.323044333195 1.29984253  0.01898002  0.2862802 0.7000
 14  -1268.3856317259  -9.129453708086 0.90889145  0.01346376  0.2038698 0.7000
 15  -1274.7402537138  -6.354621987882 0.63572052  0.00952729  0.1513448 0.7000
 16  -1279.0549838136  -4.314730099821 1.48038917  0.02240660  0.0933512 0.0000
 17  -1288.3759049333  -9.320921119677 0.05761488  0.00082758  0.0540588 0.0000
 18  -1288.4236708707  -0.047765937349 0.05051939  0.00073591  0.0284229 0.0000
 19  -1288.4379844283  -0.014313557630 0.02861860  0.00042859  0.0282943 0.0000
               *** Restarting incremental Fock matrix formation ***
                                   *** Resetting DIIS ***
 20  -1288.4472650677  -0.009280639443 0.01269235  0.00029406  0.0063691 0.0000
 21  -1288.4483272243  -0.001062156553 0.00493171  0.00009400  0.0060289 0.0000
 22  -1288.4488021041  -0.000474879791 0.00263347  0.00005378  0.0014195 0.0000
 23  -1288.4488741741  -0.000072070052 0.00210331  0.00002929  0.0010020 0.0000
 24  -1288.4488946669  -0.000020492730 0.00271698  0.00002726  0.0004449 0.0000
               *** Restarting incremental Fock matrix formation ***
                                   *** Resetting DIIS ***
 25  -1288.4496814377  -0.000786770877 0.00484840  0.00009315  0.0006379 0.0000
 26  -1288.4496950484  -0.000013610708 0.00202471  0.00002122  0.0009201 0.0000
 27  -1288.4496943763   0.000000672123 0.00076949  0.00000827  0.0010464 0.0000
 28  -1288.4496999145  -0.000005538135 0.00045687  0.00000483  0.0003121 0.0000
 29  -1288.4497006271  -0.000000712604 0.00007334  0.00000122  0.0000522 0.0000
 30  -1288.4497006326  -0.000000005585 0.00004499  0.00000061  0.0000465 0.0000
 31  -1288.4497006397  -0.000000007057 0.00002550  0.00000029  0.0000080 0.0000
 32  -1288.4497006372   0.000000002493 0.00001432  0.00000015  0.0000083 0.0000
 33  -1288.4497006345   0.000000002709 0.00000745  0.00000007  0.0000024 0.0000
 34  -1288.4497006358  -0.000000001300 0.00000463  0.00000004  0.0000015 0.0000
                            ***DIIS convergence achieved***

               *****************************************************
               *                     SUCCESS                       *
               *           SCF CONVERGED AFTER  35 CYCLES          *
               *****************************************************

Old exchange energy                            =    -59.651960706 Eh
New exchange energy                            =    -59.651920008 Eh
Exchange energy change after final integration =      0.000040698 Eh
Total energy after final integration           =  -1288.449659935 Eh
Final COS-X integration done in                =     9.086 sec

----------------
TOTAL SCF ENERGY
----------------

Total Energy       :        -1288.44965994 Eh          -35060.49769 eV

Components:
Nuclear Repulsion  :         2037.51875286 Eh           55443.70397 eV
Electronic Energy  :        -3325.96841280 Eh          -90504.20166 eV
One Electron Energy:        -5830.59333294 Eh         -158658.51063 eV
Two Electron Energy:         2504.62492015 Eh           68154.30898 eV
Max COSX asymmetry :            0.00001802 Eh               0.00049 eV

Virial components:
Potential Energy   :        -2501.51843570 Eh          -68069.77724 eV
Kinetic Energy     :         1213.06877576 Eh           33009.27955 eV
Virial Ratio       :            2.06214065


DFT components:
N(Alpha)           :       82.000271895703 electrons
N(Beta)            :       82.000271895703 electrons
N(Total)           :      164.000543791406 electrons
E(X)               :      -79.589120781676 Eh       
E(C)               :       -7.456597536681 Eh       
E(XC)              :      -87.045718318357 Eh       
DFET-embed. en.    :        0.000000000000 Eh       

---------------
SCF CONVERGENCE
---------------

  Last Energy change         ...    2.9613e-09  Tolerance :   1.0000e-08
  Last MAX-Density change    ...    0.0000e+00  Tolerance :   1.0000e-07
  Last RMS-Density change    ...    0.0000e+00  Tolerance :   5.0000e-09
  Last DIIS Error            ...    4.9274e-07  Tolerance :   5.0000e-07

             **** THE GBW FILE WAS UPDATED (reaction-4-manual-optts.gbw) ****
             **** DENSITY reaction-4-manual-optts.scfp WAS UPDATED ****
             **** ENERGY FILE WAS UPDATED (reaction-4-manual-optts.en.tmp) ****
             **** THE GBW FILE WAS UPDATED (reaction-4-manual-optts.gbw) ****
             **** DENSITY reaction-4-manual-optts.scfp WAS UPDATED ****
----------------
ORBITAL ENERGIES
----------------

  NO   OCC          E(Eh)            E(eV) 
   0   2.0000     -89.767593     -2442.7004 
   1   2.0000     -19.623952      -533.9949 
   2   2.0000     -19.595595      -533.2232 
   3   2.0000     -14.839606      -403.8062 
   4   2.0000     -10.682216      -290.6779 
   5   2.0000     -10.660357      -290.0831 
   6   2.0000     -10.633963      -289.3648 
   7   2.0000     -10.630938      -289.2825 
   8   2.0000     -10.630674      -289.2754 
   9   2.0000     -10.627097      -289.1780 
  10   2.0000     -10.624468      -289.1065 
  11   2.0000     -10.622150      -289.0434 
  12   2.0000     -10.614668      -288.8398 
  13   2.0000     -10.612423      -288.7787 
  14   2.0000     -10.589871      -288.1650 
  15   2.0000     -10.587499      -288.1005 
  16   2.0000     -10.555892      -287.2404 
  17   2.0000     -10.551305      -287.1156 
  18   2.0000     -10.534778      -286.6659 
  19   2.0000      -8.406987      -228.7657 
  20   2.0000      -6.296905      -171.3475 
  21   2.0000      -6.293286      -171.2490 
  22   2.0000      -6.291940      -171.2124 
  23   2.0000      -4.025212      -109.5316 
  24   2.0000      -2.343457       -63.7687 
  25   2.0000      -2.310320       -62.8670 
  26   2.0000      -2.308772       -62.8249 
  27   2.0000      -1.307967       -35.5916 
  28   2.0000      -1.212733       -33.0002 
  29   2.0000      -1.209600       -32.9149 
  30   2.0000      -1.167450       -31.7679 
  31   2.0000      -1.130561       -30.7641 
  32   2.0000      -1.027064       -27.9478 
  33   2.0000      -0.981086       -26.6967 
  34   2.0000      -0.973237       -26.4831 
  35   2.0000      -0.970333       -26.4041 
  36   2.0000      -0.962039       -26.1784 
  37   2.0000      -0.928452       -25.2645 
  38   2.0000      -0.902003       -24.5447 
  39   2.0000      -0.875200       -23.8154 
  40   2.0000      -0.800213       -21.7749 
  41   2.0000      -0.784388       -21.3443 
  42   2.0000      -0.783357       -21.3162 
  43   2.0000      -0.782016       -21.2797 
  44   2.0000      -0.767848       -20.8942 
  45   2.0000      -0.755159       -20.5489 
  46   2.0000      -0.743518       -20.2322 
  47   2.0000      -0.723762       -19.6946 
  48   2.0000      -0.691664       -18.8211 
  49   2.0000      -0.676513       -18.4088 
  50   2.0000      -0.664930       -18.0937 
  51   2.0000      -0.649710       -17.6795 
  52   2.0000      -0.646971       -17.6050 
  53   2.0000      -0.636575       -17.3221 
  54   2.0000      -0.634562       -17.2673 
  55   2.0000      -0.629473       -17.1288 
  56   2.0000      -0.622759       -16.9461 
  57   2.0000      -0.613221       -16.6866 
  58   2.0000      -0.603348       -16.4179 
  59   2.0000      -0.602853       -16.4045 
  60   2.0000      -0.600505       -16.3406 
  61   2.0000      -0.591932       -16.1073 
  62   2.0000      -0.581005       -15.8100 
  63   2.0000      -0.572705       -15.5841 
  64   2.0000      -0.564269       -15.3546 
  65   2.0000      -0.557624       -15.1737 
  66   2.0000      -0.551512       -15.0074 
  67   2.0000      -0.548235       -14.9182 
  68   2.0000      -0.540504       -14.7079 
  69   2.0000      -0.536659       -14.6032 
  70   2.0000      -0.528141       -14.3714 
  71   2.0000      -0.519128       -14.1262 
  72   2.0000      -0.515007       -14.0141 
  73   2.0000      -0.500853       -13.6289 
  74   2.0000      -0.488103       -13.2820 
  75   2.0000      -0.481289       -13.0966 
  76   2.0000      -0.475153       -12.9296 
  77   2.0000      -0.445261       -12.1162 
  78   2.0000      -0.443579       -12.0704 
  79   2.0000      -0.423423       -11.5219 
  80   2.0000      -0.416840       -11.3428 
  81   2.0000      -0.399609       -10.8739 
  82   0.0000      -0.206695        -5.6244 
  83   0.0000      -0.149771        -4.0755 
  84   0.0000      -0.141690        -3.8556 
  85   0.0000      -0.094244        -2.5645 
  86   0.0000      -0.076618        -2.0849 
  87   0.0000      -0.066394        -1.8067 
  88   0.0000      -0.057802        -1.5729 
  89   0.0000      -0.054124        -1.4728 
  90   0.0000      -0.047446        -1.2911 
  91   0.0000      -0.032125        -0.8742 
  92   0.0000      -0.005235        -0.1424 
  93   0.0000      -0.002181        -0.0593 
  94   0.0000       0.014145         0.3849 
  95   0.0000       0.018566         0.5052 
  96   0.0000       0.021411         0.5826 
  97   0.0000       0.034170         0.9298 
  98   0.0000       0.046758         1.2724 
  99   0.0000       0.062639         1.7045 
 100   0.0000       0.070033         1.9057 
 101   0.0000       0.073058         1.9880 
 102   0.0000       0.074752         2.0341 
 103   0.0000       0.083604         2.2750 
 104   0.0000       0.085969         2.3393 
 105   0.0000       0.093016         2.5311 
 106   0.0000       0.095693         2.6039 
 107   0.0000       0.103514         2.8168 
 108   0.0000       0.107220         2.9176 
 109   0.0000       0.109629         2.9832 
 110   0.0000       0.114279         3.1097 
 111   0.0000       0.121164         3.2970 
 112   0.0000       0.124088         3.3766 
 113   0.0000       0.125622         3.4184 
 114   0.0000       0.130465         3.5501 
 115   0.0000       0.136820         3.7231 
 116   0.0000       0.146668         3.9910 
 117   0.0000       0.152758         4.1567 
 118   0.0000       0.158817         4.3216 
 119   0.0000       0.165398         4.5007 
 120   0.0000       0.169230         4.6050 
 121   0.0000       0.184754         5.0274 
 122   0.0000       0.192530         5.2390 
 123   0.0000       0.201368         5.4795 
 124   0.0000       0.222206         6.0465 
 125   0.0000       0.236933         6.4473 
 126   0.0000       0.245403         6.6778 
 127   0.0000       0.253099         6.8872 
 128   0.0000       0.272854         7.4247 
 129   0.0000       0.291521         7.9327 
 130   0.0000       0.307817         8.3761 
 131   0.0000       0.314007         8.5446 
 132   0.0000       0.321077         8.7370 
[...]
    109       0.000001  -0.000009  -0.000016
    110       0.000034  -0.000006   0.000041
    111       0.010277   0.532606  -0.694106
    112       0.001899   0.111137  -0.145903
    113      -0.000652  -0.020773   0.027664
    114      -0.027838   0.005466  -0.124722
    115       0.019364  -0.007133   0.089688
    116       0.078224  -0.025053   0.360571


-----------
IR SPECTRUM
-----------

 Mode   freq       eps      Int      T**2         TX        TY        TZ
       cm**-1   L/(mol*cm) km/mol    a.u.
----------------------------------------------------------------------------
  7:     28.37   0.000009    0.04  0.000095  (-0.002914 -0.008832  0.002901)
  8:     43.36   0.000189    0.96  0.001360  (-0.023278 -0.028563 -0.001658)
  9:     53.32   0.000075    0.38  0.000442  (-0.019829 -0.005798  0.003834)
 10:     59.49   0.000041    0.21  0.000215  (-0.000327 -0.012965 -0.006821)
 11:     66.80   0.000227    1.15  0.001059  ( 0.024907  0.007805  0.019442)
 12:     84.85   0.000635    3.21  0.002337  (-0.021439  0.040606  0.015103)
 13:     94.35   0.000486    2.46  0.001608  (-0.031918 -0.020926 -0.012307)
 14:    119.63   0.000410    2.07  0.001069  ( 0.025477  0.016617  0.011998)
 15:    124.77   0.000149    0.75  0.000373  (-0.015813  0.008659  0.006916)
 16:    152.43   0.000274    1.38  0.000560  (-0.022917  0.005278  0.002652)
 17:    173.69   0.002649   13.39  0.004759  (-0.012978  0.060953  0.029581)
 18:    210.98   0.000296    1.50  0.000439  ( 0.010352 -0.018069 -0.002202)
 19:    215.79   0.005702   28.81  0.008246  (-0.013317 -0.072431 -0.053124)
 20:    241.38   0.000207    1.04  0.000267  ( 0.006301  0.000536  0.015078)
 21:    256.50   0.000157    0.79  0.000191  (-0.001489  0.011634  0.007327)
 22:    272.16   0.000269    1.36  0.000309  ( 0.002839  0.016560  0.005150)
 23:    280.13   0.000494    2.49  0.000550  ( 0.003244 -0.017327  0.015467)
 24:    302.01   0.001767    8.93  0.001826  ( 0.002421 -0.033218 -0.026770)
 25:    315.98   0.007796   39.40  0.007699  ( 0.000092 -0.054257 -0.068958)
 26:    357.88   0.000245    1.24  0.000213  (-0.002749  0.013628 -0.004479)
 27:    369.06   0.000799    4.04  0.000676  (-0.004880 -0.020685 -0.014974)
 28:    394.20   0.000415    2.09  0.000328  ( 0.009213  0.005156  0.014721)
 29:    394.49   0.000859    4.34  0.000679  ( 0.011491  0.000875  0.023377)
 30:    424.37   0.001078    5.45  0.000793  ( 0.018767 -0.020655 -0.003733)
 31:    443.51   0.001665    8.41  0.001171  (-0.028322 -0.000657  0.019208)
 32:    526.34   0.001416    7.16  0.000840  ( 0.002594  0.028664  0.003381)
 33:    547.49   0.010341   52.26  0.005894  ( 0.008199  0.051074  0.056733)
 34:    571.58   0.002571   12.99  0.001404  (-0.007493  0.015432  0.033310)
 35:    582.92   0.002859   14.45  0.001531  ( 0.005775 -0.037340 -0.010144)
 36:    601.11   0.001280    6.47  0.000664  ( 0.004345  0.021968 -0.012768)
 37:    607.02   0.001488    7.52  0.000765  (-0.010005 -0.008126 -0.024476)
 38:    643.38   0.007491   37.86  0.003633  ( 0.002120  0.034185  0.049600)
 39:    650.19   0.000333    1.68  0.000160  ( 0.012429 -0.001263 -0.001944)
 40:    671.71   0.001495    7.56  0.000695  (-0.018830 -0.018439  0.000193)
 41:    720.01   0.026318  133.00  0.011407  (-0.002858  0.074324  0.076646)
 42:    741.78   0.007952   40.18  0.003345  ( 0.008084  0.051597  0.024852)
 43:    805.54   0.013329   67.36  0.005164  (-0.003845 -0.070270  0.014523)
 44:    823.47   0.003175   16.04  0.001203  ( 0.004288  0.010216  0.032869)
 45:    851.26   0.001674    8.46  0.000614  ( 0.003288 -0.023733  0.006300)
 46:    860.44   0.000176    0.89  0.000064  ( 0.003104  0.006354  0.003698)
 47:    875.67   0.012912   65.25  0.004602  ( 0.009382 -0.051930 -0.042624)
 48:    907.31   0.005015   25.34  0.001725  (-0.021913  0.035214  0.002164)
 49:    920.76   0.008943   45.19  0.003031  ( 0.016018 -0.051119  0.012693)
 50:    931.04   0.001825    9.22  0.000612  ( 0.006556 -0.021358  0.010612)
 51:    936.71   0.001105    5.58  0.000368  (-0.001707  0.018608  0.004335)
 52:    967.86   0.000076    0.38  0.000025  ( 0.004054  0.000682 -0.002761)
 53:    976.73   0.003154   15.94  0.001008  ( 0.007769 -0.017207 -0.025517)
 54:    985.31   0.000416    2.10  0.000132  ( 0.004001 -0.010705  0.001076)
 55:    988.41   0.003097   15.65  0.000978  ( 0.007336 -0.024792  0.017585)
 56:    994.09   0.000491    2.48  0.000154  (-0.000885 -0.004353  0.011587)
 57:    998.79   0.014742   74.50  0.004606  (-0.014443  0.066214  0.003613)
 58:   1004.38   0.000924    4.67  0.000287  ( 0.002771 -0.016623  0.001773)
 59:   1013.43   0.004516   22.82  0.001391  (-0.007900  0.035958 -0.005928)
 60:   1039.87   0.001969    9.95  0.000591  (-0.020294  0.000719  0.013363)
 61:   1060.48   0.004592   23.21  0.001351  ( 0.006889  0.035043  0.008703)
 62:   1064.77   0.003448   17.43  0.001011  ( 0.012167  0.021699  0.019792)
 63:   1082.56   0.003438   17.37  0.000991  (-0.004676 -0.030580  0.005836)
 64:   1107.15   0.001962    9.92  0.000553  (-0.020048 -0.004498 -0.011443)
 65:   1110.61   0.000060    0.30  0.000017  (-0.002772 -0.002984  0.000479)
 66:   1116.61   0.000341    1.72  0.000095  (-0.005748 -0.006757 -0.004070)
 67:   1149.32   0.001424    7.20  0.000387  (-0.000132  0.004899  0.019044)
 68:   1168.20   0.000497    2.51  0.000133  ( 0.006805 -0.005835  0.007232)
 69:   1169.95   0.004558   23.03  0.001216  (-0.034594  0.004129  0.001387)
 70:   1192.37   0.001152    5.82  0.000302  ( 0.015240 -0.008291  0.000725)
 71:   1233.22   0.004802   24.27  0.001215  ( 0.028109 -0.003336  0.020343)
 72:   1243.54   0.012561   63.48  0.003152  (-0.001340 -0.007705  0.055597)
 73:   1269.61   0.005274   26.65  0.001296  (-0.011086  0.023804  0.024635)
 74:   1325.30   0.000006    0.03  0.000001  (-0.000457  0.000213  0.001109)
 75:   1325.39   0.055525  280.60  0.013073  (-0.034475  0.029631  0.104914)
 76:   1374.87   0.025800  130.38  0.005856  ( 0.033691  0.022466  0.064932)
 77:   1392.93   0.018316   92.56  0.004103  (-0.022559 -0.019734 -0.056614)
 78:   1408.02   0.008557   43.24  0.001897  ( 0.011382 -0.007698 -0.041324)
 79:   1435.32   0.018570   93.85  0.004037  (-0.011701 -0.052366  0.034036)
 80:   1444.52   0.000656    3.31  0.000142  (-0.008028 -0.007280 -0.004925)
 81:   1451.45   0.011910   60.19  0.002561  (-0.006502 -0.028680 -0.041180)
 82:   1455.79   0.002760   13.95  0.000592  (-0.009768 -0.007242  0.021068)
 83:   1458.53   0.011916   60.22  0.002549  ( 0.005779  0.008446 -0.049444)
 84:   1467.99   0.009085   45.91  0.001931  ( 0.007799 -0.012020 -0.041546)
 85:   1481.91   0.003439   17.38  0.000724  ( 0.020679 -0.017124  0.001819)
 86:   1500.84   0.001489    7.53  0.000310  (-0.008951 -0.005623  0.014068)
 87:   1508.54   0.101565  513.27  0.021010  ( 0.041874  0.105970  0.089594)
 88:   1519.14   0.006632   33.51  0.001362  (-0.001323 -0.016172 -0.033151)
 89:   1522.79   0.002338   11.82  0.000479  (-0.013797 -0.006561 -0.015676)
 90:   1525.55   0.042418  214.37  0.008677  (-0.015713  0.055123  0.073428)
 91:   1531.05   0.001661    8.40  0.000339  ( 0.001516  0.008481  0.016260)
 92:   1541.59   0.001612    8.15  0.000326  (-0.005651 -0.007423  0.015468)
 93:   1543.76   0.086606  437.67  0.017507  ( 0.011209 -0.099944 -0.085980)
 94:   1556.75   0.003385   17.11  0.000679  ( 0.003293 -0.010901 -0.023428)
 95:   1559.62   0.001779    8.99  0.000356  (-0.014675 -0.005984 -0.010240)
 96:   1585.12   0.011375   57.48  0.002239  ( 0.008287  0.033720  0.032151)
 97:   1743.39   0.007528   38.04  0.001347  ( 0.030849  0.003919 -0.019504)
 98:   1891.63   0.196595  993.51  0.032433  ( 0.044792  0.166658  0.051490)
 99:   3123.36   0.001027    5.19  0.000103  (-0.002906  0.007079 -0.006636)
100:   3129.29   0.001347    6.81  0.000134  (-0.005793 -0.010035  0.000182)
101:   3134.42   0.000012    0.06  0.000001  (-0.000977 -0.000263  0.000397)
102:   3157.54   0.000047    0.24  0.000005  ( 0.000264  0.002098 -0.000435)
103:   3207.06   0.000852    4.31  0.000083  (-0.002873 -0.006779 -0.005359)
104:   3215.90   0.001871    9.46  0.000182  ( 0.006929 -0.001406  0.011472)
105:   3217.47   0.000253    1.28  0.000025  ( 0.002815 -0.002355 -0.003322)
106:   3219.64   0.000926    4.68  0.000090  (-0.003292 -0.005898  0.006640)
107:   3225.39   0.002391   12.08  0.000231  (-0.011917  0.009449  0.000006)
108:   3250.56   0.000124    0.63  0.000012  ( 0.003319  0.000310 -0.000914)
109:   3255.50   0.000173    0.88  0.000017  (-0.002337 -0.002963  0.001542)
110:   3308.56   0.000615    3.11  0.000058  (-0.000448  0.000629  0.007577)
111:   3323.57   0.000063    0.32  0.000006  (-0.001973 -0.000299 -0.001405)
112:   3325.68   0.000205    1.04  0.000019  ( 0.002169  0.002669  0.002723)
113:   3335.52   0.002298   11.61  0.000215  ( 0.001310  0.004035  0.014035)
114:   3336.68   0.001705    8.62  0.000159  ( 0.008980 -0.002360 -0.008558)
115:   3339.06   0.002223   11.23  0.000208  ( 0.011801  0.004511 -0.006938)
116:   3346.45   0.001135    5.74  0.000106  (-0.006413  0.004179 -0.006877)

* The epsilon (eps) is given for a Dirac delta lineshape.
** The dipole moment derivative (T) already includes vibrational overlap.

The first frequency considered to be a vibration is 7
The total number of vibrations considered is 110


--------------------------
THERMOCHEMISTRY AT 298.15K
--------------------------

Temperature         ... 298.15 K
Pressure            ... 1.00 atm
Total Mass          ... 469.60 AMU

Throughout the following assumptions are being made:
  (1) The electronic state is orbitally nondegenerate
  (2) There are no thermally accessible electronically excited states
  (3) Hindered rotations indicated by low frequency modes are not
      treated as such but are treated as vibrations and this may
      cause some error
  (4) All equations used are the standard statistical mechanics
      equations for an ideal gas
  (5) All vibrations are strictly harmonic

freq.      28.37  E(vib)   ...       0.55 
freq.      43.36  E(vib)   ...       0.53 
freq.      53.32  E(vib)   ...       0.52 
freq.      59.49  E(vib)   ...       0.51 
freq.      66.80  E(vib)   ...       0.50 
freq.      84.85  E(vib)   ...       0.48 
freq.      94.35  E(vib)   ...       0.47 
freq.     119.63  E(vib)   ...       0.44 
freq.     124.77  E(vib)   ...       0.43 
freq.     152.43  E(vib)   ...       0.40 
freq.     173.69  E(vib)   ...       0.38 
freq.     210.98  E(vib)   ...       0.34 
freq.     215.79  E(vib)   ...       0.34 
freq.     241.38  E(vib)   ...       0.31 
freq.     256.50  E(vib)   ...       0.30 
freq.     272.16  E(vib)   ...       0.29 
freq.     280.13  E(vib)   ...       0.28 
freq.     302.01  E(vib)   ...       0.26 
freq.     315.98  E(vib)   ...       0.25 
freq.     357.88  E(vib)   ...       0.22 
freq.     369.06  E(vib)   ...       0.21 
freq.     394.20  E(vib)   ...       0.20 
freq.     394.49  E(vib)   ...       0.20 
freq.     424.37  E(vib)   ...       0.18 
freq.     443.51  E(vib)   ...       0.17 
freq.     526.34  E(vib)   ...       0.13 
freq.     547.49  E(vib)   ...       0.12 
freq.     571.58  E(vib)   ...       0.11 
freq.     582.92  E(vib)   ...       0.11 
freq.     601.11  E(vib)   ...       0.10 
freq.     607.02  E(vib)   ...       0.10 
freq.     643.38  E(vib)   ...       0.09 
freq.     650.19  E(vib)   ...       0.08 
freq.     671.71  E(vib)   ...       0.08 
freq.     720.01  E(vib)   ...       0.07 
freq.     741.78  E(vib)   ...       0.06 
freq.     805.54  E(vib)   ...       0.05 
freq.     823.47  E(vib)   ...       0.05 
freq.     851.26  E(vib)   ...       0.04 
freq.     860.44  E(vib)   ...       0.04 
freq.     875.67  E(vib)   ...       0.04 
freq.     907.31  E(vib)   ...       0.03 
freq.     920.76  E(vib)   ...       0.03 
freq.     931.04  E(vib)   ...       0.03 
freq.     936.71  E(vib)   ...       0.03 
freq.     967.86  E(vib)   ...       0.03 
freq.     976.73  E(vib)   ...       0.03 
freq.     985.31  E(vib)   ...       0.02 
freq.     988.41  E(vib)   ...       0.02 
freq.     994.09  E(vib)   ...       0.02 
freq.     998.79  E(vib)   ...       0.02 
freq.    1004.38  E(vib)   ...       0.02 
freq.    1013.43  E(vib)   ...       0.02 
freq.    1039.87  E(vib)   ...       0.02 
freq.    1060.48  E(vib)   ...       0.02 
freq.    1064.77  E(vib)   ...       0.02 
freq.    1082.56  E(vib)   ...       0.02 
freq.    1107.15  E(vib)   ...       0.02 
freq.    1110.61  E(vib)   ...       0.02 
freq.    1116.61  E(vib)   ...       0.01 
freq.    1149.32  E(vib)   ...       0.01 
freq.    1168.20  E(vib)   ...       0.01 
freq.    1169.95  E(vib)   ...       0.01 
freq.    1192.37  E(vib)   ...       0.01 
freq.    1233.22  E(vib)   ...       0.01 
freq.    1243.54  E(vib)   ...       0.01 
freq.    1269.61  E(vib)   ...       0.01 
freq.    1325.30  E(vib)   ...       0.01 
freq.    1325.39  E(vib)   ...       0.01 
freq.    1374.87  E(vib)   ...       0.01 
freq.    1392.93  E(vib)   ...       0.00 
freq.    1408.02  E(vib)   ...       0.00 
freq.    1435.32  E(vib)   ...       0.00 
freq.    1444.52  E(vib)   ...       0.00 
freq.    1451.45  E(vib)   ...       0.00 
freq.    1455.79  E(vib)   ...       0.00 
freq.    1458.53  E(vib)   ...       0.00 
freq.    1467.99  E(vib)   ...       0.00 
freq.    1481.91  E(vib)   ...       0.00 
freq.    1500.84  E(vib)   ...       0.00 
freq.    1508.54  E(vib)   ...       0.00 
freq.    1519.14  E(vib)   ...       0.00 
freq.    1522.79  E(vib)   ...       0.00 
freq.    1525.55  E(vib)   ...       0.00 
freq.    1531.05  E(vib)   ...       0.00 
freq.    1541.59  E(vib)   ...       0.00 
freq.    1543.76  E(vib)   ...       0.00 
freq.    1556.75  E(vib)   ...       0.00 
freq.    1559.62  E(vib)   ...       0.00 
freq.    1585.12  E(vib)   ...       0.00 
freq.    1743.39  E(vib)   ...       0.00 
freq.    1891.63  E(vib)   ...       0.00 
freq.    3123.36  E(vib)   ...       0.00 
freq.    3129.29  E(vib)   ...       0.00 
freq.    3134.42  E(vib)   ...       0.00 
freq.    3157.54  E(vib)   ...       0.00 
freq.    3207.06  E(vib)   ...       0.00 
freq.    3215.90  E(vib)   ...       0.00 
freq.    3217.47  E(vib)   ...       0.00 
freq.    3219.64  E(vib)   ...       0.00 
freq.    3225.39  E(vib)   ...       0.00 
freq.    3250.56  E(vib)   ...       0.00 
freq.    3255.50  E(vib)   ...       0.00 
freq.    3308.56  E(vib)   ...       0.00 
freq.    3323.57  E(vib)   ...       0.00 
freq.    3325.68  E(vib)   ...       0.00 
freq.    3335.52  E(vib)   ...       0.00 
freq.    3336.68  E(vib)   ...       0.00 
freq.    3339.06  E(vib)   ...       0.00 
freq.    3346.45  E(vib)   ...       0.00 

------------
INNER ENERGY
------------

The inner energy is: U= E(el) + E(ZPE) + E(vib) + E(rot) + E(trans)
    E(el)   - is the total energy from the electronic structure calculation
              = E(kin-el) + E(nuc-el) + E(el-el) + E(nuc-nuc)
    E(ZPE)  - the the zero temperature vibrational energy from the frequency calculation
    E(vib)  - the the finite temperature correction to E(ZPE) due to population
              of excited vibrational states
    E(rot)  - is the rotational thermal energy
    E(trans)- is the translational thermal energy

Summary of contributions to the inner energy U:
Electronic energy                ...  -1288.40059459 Eh
Zero point energy                ...      0.31938983 Eh     200.42 kcal/mol
Thermal vibrational correction   ...      0.01690002 Eh      10.60 kcal/mol
Thermal rotational correction    ...      0.00141627 Eh       0.89 kcal/mol
Thermal translational correction ...      0.00141627 Eh       0.89 kcal/mol
-----------------------------------------------------------------------
Total thermal energy                  -1288.06147220 Eh


Summary of corrections to the electronic energy:
(perhaps to be used in another calculation)
Total thermal correction                  0.01973257 Eh      12.38 kcal/mol
Non-thermal (ZPE) correction              0.31938983 Eh     200.42 kcal/mol
-----------------------------------------------------------------------
Total correction                          0.33912239 Eh     212.80 kcal/mol


--------
ENTHALPY
--------

The enthalpy is H = U + kB*T
                kB is Boltzmann's constant
Total free energy                 ...  -1288.06147220 Eh 
Thermal Enthalpy correction       ...      0.00094421 Eh       0.59 kcal/mol
-----------------------------------------------------------------------
Total Enthalpy                    ...  -1288.06052799 Eh


Note: Only C1 symmetry has been detected, increase convergence thresholds 
      if your molecule has a higher symmetry. Symmetry factor of 1.0 is   
      used for the rotational entropy correction. 
 

Note: Rotational entropy computed according to Herzberg 
Infrared and Raman Spectra, Chapter V,1, Van Nostrand Reinhold, 1945 
Point Group:  C1, Symmetry Number:   1  
Rotational constants in cm-1:     0.010625     0.009135     0.008224 

Vibrational entropy computed according to the QRRHO of S. Grimme
Chem.Eur.J. 2012 18 9955


-------
ENTROPY
-------

The entropy contributions are T*S = T*(S(el)+S(vib)+S(rot)+S(trans))
     S(el)   - electronic entropy
     S(vib)  - vibrational entropy
     S(rot)  - rotational entropy
     S(trans)- translational entropy
The entropies will be listed as multiplied by the temperature to get
units of energy

Electronic entropy                ...      0.00000000 Eh      0.00 kcal/mol
Vibrational entropy               ...      0.02987346 Eh     18.75 kcal/mol
Rotational entropy                ...      0.01613936 Eh     10.13 kcal/mol
Translational entropy             ...      0.02106181 Eh     13.22 kcal/mol
-----------------------------------------------------------------------
Final entropy term                ...      0.06707464 Eh     42.09 kcal/mol

In case the symmetry of your molecule has not been determined correctly
or in case you have a reason to use a different symmetry number we print 
out the resulting rotational entropy values for sn=1,12 :
 --------------------------------------------------------
|  sn= 1 | S(rot)=       0.01613936 Eh     10.13 kcal/mol|
|  sn= 2 | S(rot)=       0.01548491 Eh      9.72 kcal/mol|
|  sn= 3 | S(rot)=       0.01510208 Eh      9.48 kcal/mol|
|  sn= 4 | S(rot)=       0.01483045 Eh      9.31 kcal/mol|
|  sn= 5 | S(rot)=       0.01461976 Eh      9.17 kcal/mol|
|  sn= 6 | S(rot)=       0.01444762 Eh      9.07 kcal/mol|
|  sn= 7 | S(rot)=       0.01430207 Eh      8.97 kcal/mol|
|  sn= 8 | S(rot)=       0.01417600 Eh      8.90 kcal/mol|
|  sn= 9 | S(rot)=       0.01406479 Eh      8.83 kcal/mol|
|  sn=10 | S(rot)=       0.01396531 Eh      8.76 kcal/mol|
|  sn=11 | S(rot)=       0.01387532 Eh      8.71 kcal/mol|
|  sn=12 | S(rot)=       0.01379316 Eh      8.66 kcal/mol|
 --------------------------------------------------------


-------------------
GIBBS FREE ENERGY
-------------------

The Gibbs free energy is G = H - T*S

Total enthalpy                    ...  -1288.06052799 Eh 
Total entropy correction          ...     -0.06707464 Eh    -42.09 kcal/mol
-----------------------------------------------------------------------
Final Gibbs free energy         ...  -1288.12760263 Eh

For completeness - the Gibbs free energy minus the electronic energy
G-E(el)                           ...      0.27299196 Eh    171.30 kcal/mol


Timings for individual modules:

Sum of individual times         ...     2557.397 sec (=  42.623 min)
GTO integral calculation        ...       10.861 sec (=   0.181 min)   0.4 %
SCF iterations                  ...      355.555 sec (=   5.926 min)  13.9 %
SCF Gradient evaluation         ...       87.406 sec (=   1.457 min)   3.4 %
Geometry relaxation             ...        2.181 sec (=   0.036 min)   0.1 %
Analytical frequency calculation...     2101.393 sec (=  35.023 min)  82.2 %
                             ****ORCA TERMINATED NORMALLY****
TOTAL RUN TIME: 0 days 0 hours 42 minutes 42 seconds 286 msec
