
                                 *****************
                                 * O   R   C   A *
                                 *****************

                                            #,                                       
                                            ###                                      
                                            ####                                     
                                            #####                                    
                                            ######                                   
                                           ########,                                 
                                     ,,################,,,,,                         
                               ,,#################################,,                 
                          ,,##########################################,,             
                       ,#########################################, ''#####,          
                    ,#############################################,,   '####,        
                  ,##################################################,,,,####,       
                ,###########''''           ''''###############################       
              ,#####''   ,,,,##########,,,,          '''####'''          '####       
            ,##' ,,,,###########################,,,                        '##       
           ' ,,###''''                  '''############,,,                           
         ,,##''                                '''############,,,,        ,,,,,,###''
      ,#''                                            '''#######################'''  
     '                                                          ''''####''''         
             ,#######,   #######,   ,#######,      ##                                
            ,#'     '#,  ##    ##  ,#'     '#,    #''#        ######   ,####,        
            ##       ##  ##   ,#'  ##            #'  '#       #        #'  '#        
            ##       ##  #######   ##           ,######,      #####,   #    #        
            '#,     ,#'  ##    ##  '#,     ,#' ,#      #,         ##   #,  ,#        
             '#######'   ##     ##  '#######'  #'      '#     #####' # '####'        



                  #######################################################
                  #                        -***-                        #
                  #          Department of theory and spectroscopy      #
                  #    Directorship and core code : Frank Neese         #
                  #        Max Planck Institute fuer Kohlenforschung    #
                  #                Kaiser Wilhelm Platz 1               #
                  #                 D-45470 Muelheim/Ruhr               #
                  #                      Germany                        #
                  #                                                     #
                  #                  All rights reserved                #
                  #                        -***-                        #
                  #######################################################


                         Program Version 5.0.3 -  RELEASE  -


 With contributions from (in alphabetic order):
   Daniel Aravena         : Magnetic Suceptibility
   Michael Atanasov       : Ab Initio Ligand Field Theory (pilot matlab implementation)
   Alexander A. Auer      : GIAO ZORA, VPT2 properties, NMR spectrum
   Ute Becker             : Parallelization
   Giovanni Bistoni       : ED, misc. LED, open-shell LED, HFLD
   Martin Brehm           : Molecular dynamics
   Dmytro Bykov           : SCF Hessian
   Vijay G. Chilkuri      : MRCI spin determinant printing, contributions to CSF-ICE
   Dipayan Datta          : RHF DLPNO-CCSD density
   Achintya Kumar Dutta   : EOM-CC, STEOM-CC
   Dmitry Ganyushin       : Spin-Orbit,Spin-Spin,Magnetic field MRCI
   Miquel Garcia          : C-PCM and meta-GGA Hessian, CC/C-PCM, Gaussian charge scheme
   Yang Guo               : DLPNO-NEVPT2, F12-NEVPT2, CIM, IAO-localization
   Andreas Hansen         : Spin unrestricted coupled pair/coupled cluster methods
   Benjamin Helmich-Paris : MC-RPA, TRAH-SCF, COSX integrals
   Lee Huntington         : MR-EOM, pCC
   Robert Izsak           : Overlap fitted RIJCOSX, COSX-SCS-MP3, EOM
   Marcus Kettner         : VPT2
   Christian Kollmar      : KDIIS, OOCD, Brueckner-CCSD(T), CCSD density, CASPT2, CASPT2-K
   Simone Kossmann        : Meta GGA functionals, TD-DFT gradient, OOMP2, MP2 Hessian
   Martin Krupicka        : Initial AUTO-CI
   Lucas Lang             : DCDCAS
   Marvin Lechner         : AUTO-CI (C++ implementation), FIC-MRCC
   Dagmar Lenk            : GEPOL surface, SMD
   Dimitrios Liakos       : Extrapolation schemes; Compound Job, initial MDCI parallelization
   Dimitrios Manganas     : Further ROCIS development; embedding schemes
   Dimitrios Pantazis     : SARC Basis sets
   Anastasios Papadopoulos: AUTO-CI, single reference methods and gradients
   Taras Petrenko         : DFT Hessian,TD-DFT gradient, ASA, ECA, R-Raman, ABS, FL, XAS/XES, NRVS
   Peter Pinski           : DLPNO-MP2, DLPNO-MP2 Gradient
   Christoph Reimann      : Effective Core Potentials
   Marius Retegan         : Local ZFS, SOC
   Christoph Riplinger    : Optimizer, TS searches, QM/MM, DLPNO-CCSD(T), (RO)-DLPNO pert. Triples
   Tobias Risthaus        : Range-separated hybrids, TD-DFT gradient, RPA, STAB
   Michael Roemelt        : Original ROCIS implementation
   Masaaki Saitow         : Open-shell DLPNO-CCSD energy and density
   Barbara Sandhoefer     : DKH picture change effects
   Avijit Sen             : IP-ROCIS
   Kantharuban Sivalingam : CASSCF convergence, NEVPT2, FIC-MRCI
   Bernardo de Souza      : ESD, SOC TD-DFT
   Georgi Stoychev        : AutoAux, RI-MP2 NMR, DLPNO-MP2 response
   Willem Van den Heuvel  : Paramagnetic NMR
   Boris Wezisla          : Elementary symmetry handling
   Frank Wennmohs         : Technical directorship


 We gratefully acknowledge several colleagues who have allowed us to
 interface, adapt or use parts of their codes:
   Stefan Grimme, W. Hujo, H. Kruse, P. Pracht,  : VdW corrections, initial TS optimization,
                  C. Bannwarth, S. Ehlert          DFT functionals, gCP, sTDA/sTD-DF
   Ed Valeev, F. Pavosevic, A. Kumar             : LibInt (2-el integral package), F12 methods
   Garnet Chan, S. Sharma, J. Yang, R. Olivares  : DMRG
   Ulf Ekstrom                                   : XCFun DFT Library
   Mihaly Kallay                                 : mrcc  (arbitrary order and MRCC methods)
   Jiri Pittner, Ondrej Demel                    : Mk-CCSD
   Frank Weinhold                                : gennbo (NPA and NBO analysis)
   Christopher J. Cramer and Donald G. Truhlar   : smd solvation model
   Lars Goerigk                                  : TD-DFT with DH, B97 family of functionals
   V. Asgeirsson, H. Jonsson                     : NEB implementation
   FAccTs GmbH                                   : IRC, NEB, NEB-TS, DLPNO-Multilevel, CI-OPT
                                                   MM, QMMM, 2- and 3-layer-ONIOM, Crystal-QMMM,
                                                   LR-CPCM, SF, NACMEs, symmetry and pop. for TD-DFT,
                                                   nearIR, NL-DFT gradient (VV10), updates on ESD,
                                                   ML-optimized integration grids
   S Lehtola, MJT Oliveira, MAL Marques          : LibXC Library
   Liviu Ungur et al                             : ANISO software


 Your calculation uses the libint2 library for the computation of 2-el integrals
 For citations please refer to: http://libint.valeyev.net

 Your ORCA version has been built with support for libXC version: 5.1.0
 For citations please refer to: https://tddft.org/programs/libxc/

 This ORCA versions uses:
   CBLAS   interface :  Fast vector & matrix operations
   LAPACKE interface :  Fast linear algebra routines
   SCALAPACK package :  Parallel linear algebra routines
   Shared memory     :  Shared parallel matrices
   BLAS/LAPACK       :  OpenBLAS 0.3.15  USE64BITINT DYNAMIC_ARCH NO_AFFINITY SkylakeX SINGLE_THREADED
        Core in use  :  SkylakeX
   Copyright (c) 2011-2014, The OpenBLAS Project


Your calculation utilizes the geometrical counterpoise correction gCP
Please cite in your paper:
H.Kruse, S. Grimme J.Chem.Phys., 136, (2012), 154101 
   

Your calculation utilizes the atom-pairwise dispersion correction
with the Becke-Johnson damping scheme (D3BJ)
Cite in your paper:
S.Grimme, S.Ehrlich, L.Goerigk, J Comput Chem, (2011), 32, 1456–1465 
S.Grimme, J.Antony, S.Ehrlich and H.Krieg, J.Chem.Phys., 132, (2010), 154104 
   

Your calculation employs the composite approach PBEh-3c.
Please cite in your paper:
S. Grimme, J. G. Brandenburg, C. Bannwarth, A. Hansen J.Chem.Phys., 143, (2015), 054107 
   

================================================================================

cite the ECPs for Pd [Def2-ECP] as follows:
Ce-Yb(ecp-28): M. Dolg, H. Stoll, H.Preuss, J. Chem. Phys., 1989, 90, 1730-1734.
Y-Cd(ecp-28), Hf-Hg(ecp-46): D. Andrae,U. Haeussermann, M. Dolg, H. Stoll, H. Preuss, Theor. Chim. Acta, 1990, 77, 123-141.
In-Sb(ecp-28), Tl-Bi(ecp-46): B. Metz, H. Stoll, M. Dolg, J. Chem. Phys., 2000, 113, 2563-2569.
Te-Xe(ecp-28), Po-Rn(ecp-46): K. A. Peterson, D. Figgen, E. Goll, H. Stoll, M. Dolg, J. Chem. Phys., 2003, 119, 11113-11123.
Rb(ecp-28), Cs(ecp-46): T. Leininger, A. Nicklass, W. Kuechle, H. Stoll, M. Dolg, A. Bergner, Chem. Phys. Lett., 1996, 255, 274-280.
Sr(ecp-28), Ba(ecp-46): M. Kaupp, P. V. Schleyer, H. Stoll and H. Preuss, J. Chem. Phys., 1991, 94, 1360-1366.
La(ecp-46): M. Dolg, H. Stoll, A. Savin, H. Preuss, Theor. Chim. Acta, 1989, 75, 173-194.
Lu(ecp-28): X. Cao, M. Dolg, J. Chem. Phys., 2001, 115, 7348-7355.

ECP parameters for Pd [Def2-ECP] have been obtained from:
TURBOMOLE (7.0.2)

----- Orbital basis set information -----
Your calculation utilizes the basis: def2-mSVP

----- AuxJ basis set information -----
Your calculation utilizes the auxiliary basis: def2/J
   F. Weigend, Phys. Chem. Chem. Phys. 8, 1057 (2006).

================================================================================
                                        WARNINGS
                       Please study these warnings very carefully!
================================================================================


INFO   : the flag for use of the SHARK integral package has been found!

================================================================================
                                       INPUT FILE
================================================================================
NAME = 11_0_orca.inp
|  1> ! EnGrad PBEh-3c
|  2> %output 
|  3> xyzfile=True 
|  4> end 
|  5> %scf 
|  6> maxiter 250 
|  7> end
|  8> %output
|  9> Print[P_Hirshfeld] = 1
| 10> end
| 11> % maxcore
| 12> 4000
| 13> %pal nprocs 4
| 14> end
| 15> *xyz 0 1
| 16> C   -1.26531000   0.06894000  -1.02241000 
| 17> C   -2.32893000  -0.82434000  -1.08991000 
| 18> C   -2.23022000  -2.07741000  -0.50600000 
| 19> C   -1.05615000  -2.43734000   0.14007000 
| 20> C   -0.08554000  -0.28836000  -0.37440000 
| 21> C    0.01203000  -1.55252000   0.20243000 
| 22> H   -1.36540000   1.03449000  -1.50456000 
| 23> H   -3.23433000  -0.53847000  -1.61093000 
| 24> H   -3.05762000  -2.77273000  -0.56277000 
| 25> H    0.92734000  -1.86608000   0.68936000 
| 26> H   -0.96388000  -3.41844000   0.58910000 
| 27> Pd   1.44840000   0.90054000  -0.31164000 
| 28> O    3.59504000   1.58069000  -0.46482000 
| 29> O    2.87387000  -0.46053000  -0.78216000 
| 30> O    0.18889000   2.46944000   0.21014000 
| 31> C   -0.33840000   2.58755000   1.29011000 
| 32> O   -0.10649000   1.76680000   2.27893000 
| 33> H   -0.62276000   1.98477000   3.06301000 
| 34> C    3.81244000   0.39076000  -0.74437000 
| 35> H    4.83085000   0.03775000  -0.96753000 
| 36> H   -1.03382000   3.41448000   1.47837000 
| 37> *
| 38> 
| 39>                          ****END OF INPUT****
================================================================================

                     *******************************
                     * Energy+Gradient Calculation *
                     *******************************

---------------------------------
CARTESIAN COORDINATES (ANGSTROEM)
---------------------------------
  C     -1.265310    0.068940   -1.022410
  C     -2.328930   -0.824340   -1.089910
  C     -2.230220   -2.077410   -0.506000
  C     -1.056150   -2.437340    0.140070
  C     -0.085540   -0.288360   -0.374400
  C      0.012030   -1.552520    0.202430
  H     -1.365400    1.034490   -1.504560
  H     -3.234330   -0.538470   -1.610930
  H     -3.057620   -2.772730   -0.562770
  H      0.927340   -1.866080    0.689360
  H     -0.963880   -3.418440    0.589100
  Pd     1.448400    0.900540   -0.311640
  O      3.595040    1.580690   -0.464820
  O      2.873870   -0.460530   -0.782160
  O      0.188890    2.469440    0.210140
  C     -0.338400    2.587550    1.290110
  O     -0.106490    1.766800    2.278930
  H     -0.622760    1.984770    3.063010
  C      3.812440    0.390760   -0.744370
  H      4.830850    0.037750   -0.967530
  H     -1.033820    3.414480    1.478370

----------------------------
CARTESIAN COORDINATES (A.U.)
----------------------------
  NO LB      ZA    FRAG     MASS         X           Y           Z
   0 C     6.0000    0    12.011   -2.391089    0.130278   -1.932075
   1 C     6.0000    0    12.011   -4.401040   -1.557777   -2.059631
   2 C     6.0000    0    12.011   -4.214505   -3.925736   -0.956201
   3 C     6.0000    0    12.011   -1.995834   -4.605905    0.264694
   4 C     6.0000    0    12.011   -0.161647   -0.544921   -0.707513
   5 C     6.0000    0    12.011    0.022733   -2.933838    0.382537
   6 H     1.0000    0     1.008   -2.580232    1.954903   -2.843206
   7 H     1.0000    0     1.008   -6.111998   -1.017561   -3.044217
   8 H     1.0000    0     1.008   -5.778064   -5.239700   -1.063481
   9 H     1.0000    0     1.008    1.752419   -3.526380    1.302702
  10 H     1.0000    0     1.008   -1.821469   -6.459915    1.113238
  11 Pd   18.0000*   0   106.400    2.737079    1.701774   -0.588914
  12 O     8.0000    0    15.999    6.793641    2.987071   -0.878383
  13 O     8.0000    0    15.999    5.430827   -0.870276   -1.478068
  14 O     8.0000    0    15.999    0.356950    4.666565    0.397107
  15 C     6.0000    0    12.011   -0.639483    4.889761    2.437955
  16 O     8.0000    0    15.999   -0.201237    3.338768    4.306554
  17 H     1.0000    0     1.008   -1.176846    3.750672    5.788250
  18 C     6.0000    0    12.011    7.204468    0.738429   -1.406655
  19 H     1.0000    0     1.008    9.128983    0.071337   -1.828367
  20 H     1.0000    0     1.008   -1.953637    6.452432    2.793714
* core charge reduced due to ECP

--------------------------------
INTERNAL COORDINATES (ANGSTROEM)
--------------------------------
 C      0   0   0     0.000000000000     0.00000000     0.00000000
 C      1   0   0     1.390608828104     0.00000000     0.00000000
 C      2   1   0     1.385957783304   120.38783137     0.00000000
 C      3   2   1     1.387586543139   119.40279756   359.57834104
 C      1   2   3     1.392636888424   120.37966321     0.39795371
 C      4   3   2     1.388453713452   120.43480542     0.00000000
 H      1   2   3     1.083869656878   118.68666171   178.86848086
 H      2   1   3     1.083020155537   119.55204195   180.58094723
 H      3   2   1     1.082258515929   120.28627831   180.23300390
 H      6   4   3     1.083149617828   119.06666487   181.60945923
 H      4   3   2     1.082912232732   120.01084728   180.75409856
 Pd     5   1   2     1.941750228840   121.81502017   177.70945305
 O     12   5   1     2.257018259674   159.01299627   227.75353440
 O     12   5   1     2.026293497053    97.87201253   225.68554692
 O     12   5   1     2.078477091166    89.51730107    46.42089011
 C     15  12   5     1.207609173988   124.25836632    72.29073963
 O     16  15  12     1.305824568233   122.55997762     3.99247222
 H     17  16  15     0.963756753647   112.25780614   181.53793962
 C     13  12   5     1.241508907499    83.85750419   358.01873590
 H     19  13  12     1.100715846075   121.00094788   179.48388113
 H     16  15  12     1.096751580304   120.27252807   183.22073919

---------------------------
INTERNAL COORDINATES (A.U.)
---------------------------
 C      0   0   0     0.000000000000     0.00000000     0.00000000
 C      1   0   0     2.627869844529     0.00000000     0.00000000
 C      2   1   0     2.619080643620   120.38783137     0.00000000
 C      3   2   1     2.622158553647   119.40279756   359.57834104
 C      1   2   3     2.631702323118   120.37966321     0.39795371
 C      4   3   2     2.623797268051   120.43480542     0.00000000
 H      1   2   3     2.048216816366   118.68666171   178.86848086
 H      2   1   3     2.046611491482   119.55204195   180.58094723
 H      3   2   1     2.045172201209   120.28627831   180.23300390
 H      6   4   3     2.046856139756   119.06666487   181.60945923
 H      4   3   2     2.046407546936   120.01084728   180.75409856
 Pd     5   1   2     3.669376152986   121.81502017   177.70945305
 O     12   5   1     4.265146390043   159.01299627   227.75353440
 O     12   5   1     3.829139776376    97.87201253   225.68554692
 O     12   5   1     3.927752477932    89.51730107    46.42089011
 C     15  12   5     2.282050615648   124.25836632    72.29073963
 O     16  15  12     2.467650812906   122.55997762     3.99247222
 H     17  16  15     1.821236324110   112.25780614   181.53793962
 C     13  12   5     2.346111827997    83.85750419   358.01873590
 H     19  13  12     2.080051500349   121.00094788   179.48388113
 H     16  15  12     2.072560123720   120.27252807   183.22073919

---------------------
BASIS SET INFORMATION
---------------------
There are 4 groups of distinct atoms

 Group   1 Type C   : 8s4p1d contracted to 4s2p1d pattern {5111/31/1}
 Group   2 Type H   : 4s contracted to 2s pattern {31}
 Group   3 Type Pd  : 7s6p5d1f contracted to 5s3p2d1f pattern {31111/411/41/1}
 Group   4 Type O   : 8s4p1d contracted to 4s2p1d pattern {5111/31/1}

Atom   0C    basis set group =>   1
Atom   1C    basis set group =>   1
Atom   2C    basis set group =>   1
Atom   3C    basis set group =>   1
Atom   4C    basis set group =>   1
Atom   5C    basis set group =>   1
Atom   6H    basis set group =>   2
Atom   7H    basis set group =>   2
Atom   8H    basis set group =>   2
Atom   9H    basis set group =>   2
Atom  10H    basis set group =>   2
Atom  11Pd   basis set group =>   3
Atom  12O    basis set group =>   4
Atom  13O    basis set group =>   4
Atom  14O    basis set group =>   4
Atom  15C    basis set group =>   1
Atom  16O    basis set group =>   4
Atom  17H    basis set group =>   2
Atom  18C    basis set group =>   1
Atom  19H    basis set group =>   2
Atom  20H    basis set group =>   2
---------------------------------
AUXILIARY/J BASIS SET INFORMATION
---------------------------------
There are 4 groups of distinct atoms

 Group   1 Type C   : 12s5p4d2f1g contracted to 6s4p3d1f1g pattern {711111/2111/211/2/1}
 Group   2 Type H   : 5s2p1d contracted to 3s1p1d pattern {311/2/1}
 Group   3 Type Pd  : 11s5p5d3f3g contracted to 8s5p5d2f3g pattern {41111111/11111/11111/21/111}
 Group   4 Type O   : 12s5p4d2f1g contracted to 6s4p3d1f1g pattern {711111/2111/211/2/1}

Atom   0C    basis set group =>   1
Atom   1C    basis set group =>   1
Atom   2C    basis set group =>   1
Atom   3C    basis set group =>   1
Atom   4C    basis set group =>   1
Atom   5C    basis set group =>   1
Atom   6H    basis set group =>   2
Atom   7H    basis set group =>   2
Atom   8H    basis set group =>   2
Atom   9H    basis set group =>   2
Atom  10H    basis set group =>   2
Atom  11Pd   basis set group =>   3
Atom  12O    basis set group =>   4
Atom  13O    basis set group =>   4
Atom  14O    basis set group =>   4
Atom  15C    basis set group =>   1
Atom  16O    basis set group =>   4
Atom  17H    basis set group =>   2
Atom  18C    basis set group =>   1
Atom  19H    basis set group =>   2
Atom  20H    basis set group =>   2
-------------------------
ECP PARAMETER INFORMATION
-------------------------

 Group 1, Type Pd ECP Def2-ECP (replacing 28 core electrons, lmax=3)

Atom  11Pd   ECP group =>   1



           ************************************************************
           *        Program running with 4 parallel MPI-processes     *
           *              working on a common directory               *
           ************************************************************
------------------------------------------------------------------------------
                           ORCA GTO INTEGRAL CALCULATION
                           -- RI-GTO INTEGRALS CHOSEN --
------------------------------------------------------------------------------
------------------------------------------------------------------------------
                   ___                                                        
                  /   \      - P O W E R E D   B Y -                         
                 /     \                                                     
                 |  |  |   _    _      __       _____    __    __             
                 |  |  |  | |  | |    /  \     |  _  \  |  |  /  |          
                  \  \/   | |  | |   /    \    | | | |  |  | /  /          
                 / \  \   | |__| |  /  /\  \   | |_| |  |  |/  /          
                |  |  |   |  __  | /  /__\  \  |    /   |      \           
                |  |  |   | |  | | |   __   |  |    \   |  |\   \          
                \     /   | |  | | |  |  |  |  | |\  \  |  | \   \       
                 \___/    |_|  |_| |__|  |__|  |_| \__\ |__|  \__/        
                                                                              
                      - O R C A' S   B I G   F R I E N D -                    
                                      &                                       
                       - I N T E G R A L  F E E D E R -                       
                                                                              
 v1 FN, 2020, v2 2021                                                         
------------------------------------------------------------------------------


Reading SHARK input file 11_0_orca.SHARKINP.tmp ... ok
----------------------
SHARK INTEGRAL PACKAGE
----------------------

Number of atoms                             ...     21
Number of basis functions                   ...    227
Number of shells                            ...    111
Maximum angular momentum                    ...      3
Integral batch strategy                     ... SHARK/LIBINT Hybrid
RI-J (if used) integral strategy            ... SPLIT-RIJ (Revised 2003 algorithm where possible)
Printlevel                                  ...      1
Contraction scheme used                     ... SEGMENTED contraction
Coulomb Range Separation                    ... NOT USED
Exchange Range Separation                   ... NOT USED
Finite Nucleus Model                        ... NOT USED
Auxiliary Coulomb fitting basis             ... AVAILABLE
   # of basis functions in Aux-J            ...    765
   # of shells in Aux-J                     ...    243
   Maximum angular momentum in Aux-J        ...      4
Auxiliary J/K fitting basis                 ... NOT available
Auxiliary Correlation fitting basis         ... NOT available
Auxiliary 'external' fitting basis          ... NOT available
Integral threshold                          ...     2.500000e-11
Primitive cut-off                           ...     2.500000e-12
Primitive pair pre-selection threshold      ...     2.500000e-12

Calculating pre-screening integrals         ... done (  0.0 sec) Dimension = 111
Organizing shell pair data                  ... done (  0.0 sec)
Shell pair information
Total number of shell pairs                 ...      6216
Shell pairs after pre-screening             ...      4873
Total number of primitive shell pairs       ...     21723
Primitive shell pairs kept                  ...     11487
          la=0 lb=0:   1684 shell pairs
          la=1 lb=0:   1597 shell pairs
          la=1 lb=1:    358 shell pairs
          la=2 lb=0:    708 shell pairs
          la=2 lb=1:    344 shell pairs
          la=2 lb=2:     87 shell pairs
          la=3 lb=0:     54 shell pairs
          la=3 lb=1:     27 shell pairs
          la=3 lb=2:     13 shell pairs
          la=3 lb=3:      1 shell pairs

Calculating one electron integrals          ... done (  0.0 sec)
Calculating ECP integrals                   ... done (  0.2 sec)
Calculating RI/J V-Matrix + Cholesky decomp.... done (  0.0 sec)
Calculating Nuclear repulsion               ... done (  0.0 sec) ENN=    920.133670927551 Eh

SHARK setup successfully completed in   0.5 seconds

Maximum memory used throughout the entire GTOINT-calculation: 17.6 MB


           ************************************************************
           *        Program running with 4 parallel MPI-processes     *
           *              working on a common directory               *
           ************************************************************
-------------------------------------------------------------------------------
                                 ORCA SCF
-------------------------------------------------------------------------------

------------
SCF SETTINGS
------------
Hamiltonian:
 Density Functional     Method          .... DFT(GTOs)
 Exchange Functional    Exchange        .... PBE
   PBE kappa parameter   XKappa         ....  1.024500
   PBE mue parameter    XMuePBE         ....  0.123457
 Correlation Functional Correlation     .... PBE
   PBE beta parameter  CBetaPBE         ....  0.030000
 LDA part of GGA corr.  LDAOpt          .... PW91-LDA
 Gradients option       PostSCFGGA      .... off
 Hybrid DFT is turned on
   Fraction HF Exchange ScalHFX         ....  0.420000
   Scaling of DF-GGA-X  ScalDFX         ....  0.580000
   Scaling of DF-GGA-C  ScalDFC         ....  1.000000
   Scaling of DF-LDA-C  ScalLDAC        ....  1.000000
   Perturbative correction              ....  0.000000
   Density functional embedding theory  .... OFF
 RI-approximation to the Coulomb term is turned on
   Number of AuxJ basis functions       .... 765
   RIJ-ON(X) (HFX calculated with O(N)) .... on
   Number of AuxJ basis functions       .... 765
   RIJ-COSX (HFX calculated with COS-X)).... on


General Settings:
 Integral files         IntName         .... 11_0_orca
 Hartree-Fock type      HFTyp           .... RHF
 Total Charge           Charge          ....    0
 Multiplicity           Mult            ....    1
 Number of Electrons    NEL             ....  106
 Basis Dimension        Dim             ....  227
 Nuclear Repulsion      ENuc            ....    920.1336709276 Eh

Convergence Acceleration:
 DIIS                   CNVDIIS         .... on
   Start iteration      DIISMaxIt       ....    12
   Startup error        DIISStart       ....  0.200000
   # of expansion vecs  DIISMaxEq       ....     5
   Bias factor          DIISBfac        ....   1.050
   Max. coefficient     DIISMaxC        ....  10.000
 Trust-Rad. Augm. Hess. CNVTRAH         .... auto
   Auto Start mean grad. ratio tolernc. ....  1.125000
   Auto Start start iteration           ....    20
   Auto Start num. interpolation iter.  ....    10
   Max. Number of Micro iterations      ....    16
   Max. Number of Macro iterations      .... Maxiter - #DIIS iter
   Number of Davidson start vectors     ....     2
   Converg. threshold I  (grad. norm)   ....   1.000e-05
   Converg. threshold II (energy diff.) ....   1.000e-08
   Grad. Scal. Fac. for Micro threshold ....   0.100
   Minimum threshold for Micro iter.    ....   0.010
   NR start threshold (gradient norm)   ....   0.001
   Initial trust radius                 ....   0.400
   Minimum AH scaling param. (alpha)    ....   1.000
   Maximum AH scaling param. (alpha)    .... 1000.000
   Orbital update algorithm             .... Taylor
   White noise on init. David. guess    .... on
   Maximum white noise                  ....   0.010
   Quad. conv. algorithm                .... NR
   COSX micro iterations for RIJONX calc.... off
 SOSCF                  CNVSOSCF        .... off
 Level Shifting         CNVShift        .... on
   Level shift para.    LevelShift      ....    0.2500
   Turn off err/grad.   ShiftErr        ....    0.0010
 Zerner damping         CNVZerner       .... off
 Static damping         CNVDamp         .... on
   Fraction old density DampFac         ....    0.7000
   Max. Damping (<1)    DampMax         ....    0.9800
   Min. Damping (>=0)   DampMin         ....    0.0000
   Turn off err/grad.   DampErr         ....    0.1000
 Fernandez-Rico         CNVRico         .... off

SCF Procedure:
 Maximum # iterations   MaxIter         ....   250
 SCF integral mode      SCFMode         .... Direct
   Integral package                     .... SHARK and LIBINT hybrid scheme
 Reset frequency        DirectResetFreq ....    20
 Integral Threshold     Thresh          ....  2.500e-11 Eh
 Primitive CutOff       TCut            ....  2.500e-12 Eh

Convergence Tolerance:
 Convergence Check Mode ConvCheckMode   .... Total+1el-Energy
 Convergence forced     ConvForced      .... 0
 Energy Change          TolE            ....  1.000e-08 Eh
 1-El. energy change                    ....  1.000e-05 Eh
 DIIS Error             TolErr          ....  5.000e-07


Diagonalization of the overlap matrix:
Smallest eigenvalue                        ... 4.507e-04
Time for diagonalization                   ...    0.008 sec
Threshold for overlap eigenvalues          ... 1.000e-08
Number of eigenvalues below threshold      ... 0
Time for construction of square roots      ...    0.004 sec
Total time needed                          ...    0.012 sec

--------------------------------
INITIAL GUESS: MINIMAL BASIS EHT
--------------------------------
The minimal basis has 81 functions
EHT matrix was diagonalized
Basis set overlap was calculated now projecting the orbitals
Using GuessMode=FMatrix for the initial guess
C*T matrix was formed
Effective Fockian was calculated
Effective Fockian was diagonalized
Initial density was built
                      ------------------
                      INITIAL GUESS DONE
                      ------------------
-------------------
DFT GRID GENERATION
-------------------

General Integration Accuracy     IntAcc      ... 4.159
Radial Grid Type                 RadialGrid  ... OptM3 with GC (2021)
Angular Grid (max. ang.)         AngularGrid ... 3 (Lebedev-194)
Angular grid pruning method      GridPruning ... 4 (adaptive)
Weight generation scheme         WeightScheme... Becke
Basis function cutoff            BFCut       ... 1.0000e-11
Integration weight cutoff        WCut        ... 1.0000e-14
Angular grids for H and He will be reduced by one unit
Partially contracted basis set               ... off
Rotationally invariant grid construction     ... off

Total number of grid points                  ...    56406
Total number of batches                      ...      894
Average number of points per batch           ...       63
Average number of grid points per atom       ...     2686
Time for grid setup =    0.288 sec

--------------------
COSX GRID GENERATION
--------------------

GRIDX 1
-------
General Integration Accuracy     IntAcc      ... 3.816
Radial Grid Type                 RadialGrid  ... OptM3 with GC (2021)
Angular Grid (max. ang.)         AngularGrid ... 1 (Lebedev-50)
Angular grid pruning method      GridPruning ... 4 (adaptive)
Weight generation scheme         WeightScheme... Becke
Basis function cutoff            BFCut       ... 1.0000e-11
Integration weight cutoff        WCut        ... 1.0000e-14
Angular grids for H and He will be reduced by one unit
Partially contracted basis set               ... on
Rotationally invariant grid construction     ... off

Total number of grid points                  ...    13596
Total number of batches                      ...      220
Average number of points per batch           ...       61
Average number of grid points per atom       ...      647
UseSFitting                                  ... on

GRIDX 2
-------
General Integration Accuracy     IntAcc      ... 4.020
Radial Grid Type                 RadialGrid  ... OptM3 with GC (2021)
Angular Grid (max. ang.)         AngularGrid ... 2 (Lebedev-110)
Angular grid pruning method      GridPruning ... 4 (adaptive)
Weight generation scheme         WeightScheme... Becke
Basis function cutoff            BFCut       ... 1.0000e-11
Integration weight cutoff        WCut        ... 1.0000e-14
Angular grids for H and He will be reduced by one unit
Partially contracted basis set               ... on
Rotationally invariant grid construction     ... off

Total number of grid points                  ...    30378
Total number of batches                      ...      484
Average number of points per batch           ...       62
Average number of grid points per atom       ...     1447
UseSFitting                                  ... on

GRIDX 3
-------
General Integration Accuracy     IntAcc      ... 4.338
Radial Grid Type                 RadialGrid  ... OptM3 with GC (2021)
Angular Grid (max. ang.)         AngularGrid ... 3 (Lebedev-194)
Angular grid pruning method      GridPruning ... 4 (adaptive)
Weight generation scheme         WeightScheme... Becke
Basis function cutoff            BFCut       ... 1.0000e-11
Integration weight cutoff        WCut        ... 1.0000e-14
Angular grids for H and He will be reduced by one unit
Partially contracted basis set               ... on
Rotationally invariant grid construction     ... off

Total number of grid points                  ...    66147
Total number of batches                      ...     1044
Average number of points per batch           ...       63
Average number of grid points per atom       ...     3150
UseSFitting                                  ... on

Time for X-Grid setup             =    0.673 sec

--------------
SCF ITERATIONS
--------------
ITER       Energy         Delta-E        Max-DP      RMS-DP      [F,P]     Damp
               ***  Starting incremental Fock matrix formation  ***
  0   -720.5594028698   0.000000000000 4.40306535  0.05288494  5.1040425 0.7000
  1   -713.6139533308   6.945449538999 3.75985609  0.06729081  3.9263665 0.7000
  2   -712.2653244535   1.348628877293 1.33103184  0.02846701  2.6142497 0.7000
  3   -717.3751382634  -5.109813809927 3.67428899  0.03246320  1.9276910 0.7000
  4   -720.2474491062  -2.872310842816 1.95430348  0.02283691  1.2652341 0.7000
  5   -724.2568782256  -4.009429119389 1.28565373  0.01586145  0.9703705 0.7000
  6   -728.0511605131  -3.794282287554 0.90165119  0.01132596  0.6836228 0.7000
  7   -730.6174156298  -2.566255116699 0.65327988  0.00819287  0.4849762 0.7000
  8   -732.5125314246  -1.895115794732 0.46630883  0.00588941  0.3494995 0.7000
  9   -733.8778575485  -1.365326123886 0.32740659  0.00419157  0.2507716 0.7000
                               ***Turning on DIIS***
 10   -734.8492674249  -0.971409876408 0.22785312  0.00296226  0.1776547 0.7000
 11   -735.5373465037  -0.688079078867 0.15755412  0.00209520  0.1245334 0.7000
 12   -736.0233303805  -0.485983876720 0.36428329  0.00493243  0.0867359 0.0000
 13   -737.1722652721  -1.148934891652 0.00532805  0.00015569  0.0027367 0.0000
 14   -737.1726478088  -0.000382536642 0.00346052  0.00008036  0.0014040 0.0000
 15   -737.1727626343  -0.000114825530 0.00338453  0.00005579  0.0011070 0.0000
 16   -737.1728066369  -0.000044002616 0.00373740  0.00005342  0.0007875 0.0000
               *** Restarting incremental Fock matrix formation ***
                                   *** Resetting DIIS ***
 17   -737.1723891386   0.000417498252 0.00277350  0.00005431  0.0004998 0.0000
 18   -737.1723919170  -0.000002778363 0.00153440  0.00001784  0.0008693 0.0000
 19   -737.1723948705  -0.000002953443 0.00065676  0.00000878  0.0003543 0.0000
 20   -737.1723956116  -0.000000741123 0.00025524  0.00000338  0.0001484 0.0000
 21   -737.1723957504  -0.000000138793 0.00025966  0.00000270  0.0000648 0.0000
 22   -737.1723958097  -0.000000059372 0.00011166  0.00000124  0.0000390 0.0000
 23   -737.1723958164  -0.000000006619 0.00004640  0.00000051  0.0000232 0.0000
                 **** Energy Check signals convergence ****

               *****************************************************
               *                     SUCCESS                       *
               *           SCF CONVERGED AFTER  24 CYCLES          *
               *****************************************************

Old exchange energy                            =    -37.402339362 Eh
New exchange energy                            =    -37.402392258 Eh
Exchange energy change after final integration =     -0.000052896 Eh
Total energy after final integration           =   -737.172448716 Eh
Final COS-X integration done in                =     4.923 sec

----------------
TOTAL SCF ENERGY
----------------

Total Energy       :         -737.17244872 Eh          -20059.48213 eV

Components:
Nuclear Repulsion  :          920.13367093 Eh           25038.11010 eV
Electronic Energy  :        -1657.30611964 Eh          -45097.59223 eV
One Electron Energy:        -2888.18751233 Eh          -78591.57773 eV
Two Electron Energy:         1230.88139269 Eh           33493.98550 eV
Max COSX asymmetry :            0.00004697 Eh               0.00128 eV

Virial components:
Potential Energy   :        -1390.21391692 Eh          -37829.64390 eV
Kinetic Energy     :          653.04146820 Eh           17770.16177 eV
Virial Ratio       :            2.12882946


DFT components:
N(Alpha)           :       52.999899559034 electrons
N(Beta)            :       52.999899559034 electrons
N(Total)           :      105.999799118068 electrons
E(X)               :      -49.986262221030 Eh       
E(C)               :       -4.854013349466 Eh       
E(XC)              :      -54.840275570496 Eh       
DFET-embed. en.    :        0.000000000000 Eh       

---------------
SCF CONVERGENCE
---------------

  Last Energy change         ...   -3.5716e-09  Tolerance :   1.0000e-08
  Last MAX-Density change    ...    0.0000e+00  Tolerance :   1.0000e-07
  Last RMS-Density change    ...    0.0000e+00  Tolerance :   5.0000e-09
  Last DIIS Error            ...    7.9114e-06  Tolerance :   5.0000e-07

             **** THE GBW FILE WAS UPDATED (11_0_orca.gbw) ****
             **** DENSITY 11_0_orca.scfp WAS UPDATED ****
             **** ENERGY FILE WAS UPDATED (11_0_orca.en.tmp) ****
             **** THE GBW FILE WAS UPDATED (11_0_orca.gbw) ****
             **** DENSITY 11_0_orca.scfp WAS UPDATED ****
----------------
ORBITAL ENERGIES
----------------

  NO   OCC          E(Eh)            E(eV) 
   0   2.0000     -19.612106      -533.6725 
   1   2.0000     -19.574873      -532.6594 
   2   2.0000     -19.487578      -530.2840 
   3   2.0000     -19.470749      -529.8260 
   4   2.0000     -10.648383      -289.7572 
   5   2.0000     -10.547397      -287.0093 
   6   2.0000     -10.442844      -284.1642 
   7   2.0000     -10.435484      -283.9640 
   8   2.0000     -10.433643      -283.9139 
   9   2.0000     -10.432746      -283.8894 
  10   2.0000     -10.431666      -283.8601 
  11   2.0000     -10.428831      -283.7829 
  12   2.0000      -3.638705       -99.0142 
  13   2.0000      -2.287917       -62.2574 
  14   2.0000      -2.282443       -62.1084 
  15   2.0000      -2.252292       -61.2880 
  16   2.0000      -1.297730       -35.3130 
  17   2.0000      -1.210741       -32.9460 
  18   2.0000      -1.181666       -32.1548 
  19   2.0000      -1.072418       -29.1820 
  20   2.0000      -0.939204       -25.5570 
  21   2.0000      -0.822430       -22.3795 
  22   2.0000      -0.816783       -22.2258 
  23   2.0000      -0.784674       -21.3521 
  24   2.0000      -0.722724       -19.6663 
  25   2.0000      -0.666400       -18.1337 
  26   2.0000      -0.657431       -17.8896 
  27   2.0000      -0.652256       -17.7488 
  28   2.0000      -0.620088       -16.8735 
  29   2.0000      -0.581702       -15.8289 
  30   2.0000      -0.568244       -15.4627 
  31   2.0000      -0.545518       -14.8443 
  32   2.0000      -0.520096       -14.1525 
  33   2.0000      -0.514828       -14.0092 
  34   2.0000      -0.499742       -13.5987 
  35   2.0000      -0.497860       -13.5475 
  36   2.0000      -0.485742       -13.2177 
  37   2.0000      -0.466822       -12.7029 
  38   2.0000      -0.454298       -12.3621 
  39   2.0000      -0.445634       -12.1263 
  40   2.0000      -0.441843       -12.0232 
  41   2.0000      -0.412485       -11.2243 
  42   2.0000      -0.387009       -10.5310 
  43   2.0000      -0.376678       -10.2499 
  44   2.0000      -0.371826       -10.1179 
  45   2.0000      -0.354906        -9.6575 
  46   2.0000      -0.344747        -9.3810 
  47   2.0000      -0.325782        -8.8650 
  48   2.0000      -0.312845        -8.5129 
  49   2.0000      -0.301954        -8.2166 
  50   2.0000      -0.282202        -7.6791 
  51   2.0000      -0.275249        -7.4899 
  52   2.0000      -0.262219        -7.1353 
  53   0.0000      -0.026367        -0.7175 
  54   0.0000      -0.008625        -0.2347 
  55   0.0000       0.032286         0.8786 
  56   0.0000       0.033381         0.9083 
  57   0.0000       0.051682         1.4063 
  58   0.0000       0.059848         1.6285 
  59   0.0000       0.075550         2.0558 
  60   0.0000       0.082793         2.2529 
  61   0.0000       0.107591         2.9277 
  62   0.0000       0.121844         3.3155 
  63   0.0000       0.145090         3.9481 
  64   0.0000       0.176913         4.8140 
  65   0.0000       0.206255         5.6125 
  66   0.0000       0.211555         5.7567 
  67   0.0000       0.218228         5.9383 
  68   0.0000       0.232240         6.3196 
  69   0.0000       0.236513         6.4358 
  70   0.0000       0.260932         7.1003 
  71   0.0000       0.272729         7.4213 
  72   0.0000       0.289503         7.8778 
  73   0.0000       0.315612         8.5882 
  74   0.0000       0.324729         8.8363 
  75   0.0000       0.342142         9.3102 
  76   0.0000       0.349279         9.5044 
  77   0.0000       0.359752         9.7894 
  78   0.0000       0.363242         9.8843 
  79   0.0000       0.401533        10.9263 
  80   0.0000       0.428117        11.6497 
  81   0.0000       0.442899        12.0519 
  82   0.0000       0.470108        12.7923 
  83   0.0000       0.484047        13.1716 
  84   0.0000       0.493343        13.4245 
  85   0.0000       0.528301        14.3758 
  86   0.0000       0.548052        14.9132 
  87   0.0000       0.556646        15.1471 
  88   0.0000       0.577926        15.7262 
  89   0.0000       0.595866        16.2143 
  90   0.0000       0.599310        16.3081 
  91   0.0000       0.605485        16.4761 
  92   0.0000       0.618992        16.8436 
  93   0.0000       0.624992        17.0069 
  94   0.0000       0.639441        17.4001 
  95   0.0000       0.641977        17.4691 
  96   0.0000       0.656898        17.8751 
  97   0.0000       0.657851        17.9010 
  98   0.0000       0.659265        17.9395 
  99   0.0000       0.687904        18.7188 
 100   0.0000       0.694369        18.8947 
 101   0.0000       0.704793        19.1784 
 102   0.0000       0.718248        19.5445 
 103   0.0000       0.740363        20.1463 
 104   0.0000       0.747345        20.3363 
 105   0.0000       0.773078        21.0365 
 106   0.0000       0.797694        21.7064 
 107   0.0000       0.803044        21.8519 
 108   0.0000       0.831761        22.6334 
 109   0.0000       0.858392        23.3580 
 110   0.0000       0.869664        23.6648 
 111   0.0000       0.886482        24.1224 
 112   0.0000       0.911700        24.8086 
 113   0.0000       0.938240        25.5308 
 114   0.0000       0.963509        26.2184 
 115   0.0000       0.975072        26.5331 
 116   0.0000       0.981322        26.7031 
 117   0.0000       0.991923        26.9916 
 118   0.0000       0.996610        27.1191 
 119   0.0000       1.003764        27.3138 
 120   0.0000       1.034749        28.1570 
 121   0.0000       1.054872        28.7045 
 122   0.0000       1.068162        29.0662 
 123   0.0000       1.073049        29.1992 
 124   0.0000       1.078616        29.3506 
 125   0.0000       1.107694        30.1419 
 126   0.0000       1.111424        30.2434 
 127   0.0000       1.121746        30.5243 
 128   0.0000       1.146286        31.1920 
 129   0.0000       1.166282        31.7362 
 130   0.0000       1.173408        31.9301 
 131   0.0000       1.196409        32.5559 
 132   0.0000       1.226102        33.3639 
 133   0.0000       1.233274        33.5591 
 134   0.0000       1.260842        34.3092 
 135   0.0000       1.289541        35.0902 
 136   0.0000       1.321732        35.9662 
 137   0.0000       1.332832        36.2682 
 138   0.0000       1.351986        36.7894 
 139   0.0000       1.369126        37.2558 
 140   0.0000       1.417592        38.5746 
 141   0.0000       1.446000        39.3477 
 142   0.0000       1.456487        39.6330 
 143   0.0000       1.489969        40.5441 
 144   0.0000       1.505052        40.9545 
 145   0.0000       1.525864        41.5209 
 146   0.0000       1.559795        42.4442 
 147   0.0000       1.562483        42.5173 
 148   0.0000       1.584409        43.1140 
 149   0.0000       1.594028        43.3757 
 150   0.0000       1.605119        43.6775 
 151   0.0000       1.663539        45.2672 
 152   0.0000       1.748358        47.5752 
 153   0.0000       1.755202        47.7615 
 154   0.0000       1.781271        48.4708 
 155   0.0000       1.817475        49.4560 
 156   0.0000       1.832107        49.8542 
 157   0.0000       1.843372        50.1607 
 158   0.0000       1.856094        50.5069 
 159   0.0000       1.872292        50.9476 
 160   0.0000       1.885132        51.2970 
 161   0.0000       1.909658        51.9644 
 162   0.0000       1.932649        52.5900 
 163   0.0000       1.940132        52.7937 
 164   0.0000       1.974329        53.7242 
 165   0.0000       1.993831        54.2549 
 166   0.0000       2.003346        54.5138 
 167   0.0000       2.037066        55.4314 
 168   0.0000       2.061531        56.0971 
 169   0.0000       2.086673        56.7813 
 170   0.0000       2.100739        57.1640 
 171   0.0000       2.119398        57.6717 
 172   0.0000       2.148034        58.4510 
 173   0.0000       2.184994        59.4567 
 174   0.0000       2.213755        60.2393 
 175   0.0000       2.217978        60.3543 
 176   0.0000       2.228025        60.6277 
 177   0.0000       2.231979        60.7352 
 178   0.0000       2.284419        62.1622 
 179   0.0000       2.298320        62.5405 
 180   0.0000       2.357056        64.1387 
 181   0.0000       2.378418        64.7200 
 182   0.0000       2.394523        65.1583 
 183   0.0000       2.400673        65.3256 
 184   0.0000       2.447891        66.6105 
 185   0.0000       2.453744        66.7698 
 186   0.0000       2.471737        67.2594 
 187   0.0000       2.476408        67.3865 
 188   0.0000       2.483916        67.5908 
 189   0.0000       2.517189        68.4962 
 190   0.0000       2.538445        69.0746 
 191   0.0000       2.543575        69.2142 
 192   0.0000       2.564984        69.7968 
 193   0.0000       2.630383        71.5764 
 194   0.0000       2.645579        71.9899 
 195   0.0000       2.648448        72.0679 
 196   0.0000       2.666219        72.5515 
 197   0.0000       2.718100        73.9633 
 198   0.0000       2.739059        74.5336 
 199   0.0000       2.759378        75.0865 
 200   0.0000       2.785250        75.7905 
 201   0.0000       2.797291        76.1182 
 202   0.0000       2.810299        76.4721 
 203   0.0000       2.824634        76.8622 
 204   0.0000       2.829825        77.0035 
 205   0.0000       2.848489        77.5113 
 206   0.0000       2.903424        79.0062 
 207   0.0000       2.970376        80.8280 
 208   0.0000       2.994808        81.4929 
 209   0.0000       3.025022        82.3150 
 210   0.0000       3.046023        82.8865 
 211   0.0000       3.104117        84.4673 
 212   0.0000       3.170470        86.2729 
 213   0.0000       3.471089        94.4531 
 214   0.0000      13.292119       361.6970 
 215   0.0000      13.671310       372.0152 
 216   0.0000      13.683286       372.3411 
 217   0.0000      13.800507       375.5309 
 218   0.0000      13.925413       378.9297 
 219   0.0000      14.133560       384.5937 
 220   0.0000      14.153915       385.1476 
 221   0.0000      14.569521       396.4568 
 222   0.0000      25.433828       692.0897 
 223   0.0000      25.582390       696.1322 
 224   0.0000      25.666223       698.4134 
 225   0.0000      25.756775       700.8775 
 226   0.0000      51.604562      1404.2315 

                    ********************************
                    * MULLIKEN POPULATION ANALYSIS *
                    ********************************

-----------------------
MULLIKEN ATOMIC CHARGES
-----------------------
   0 C :   -0.269620
   1 C :   -0.220674
   2 C :   -0.231699
   3 C :   -0.221929
   4 C :   -0.091026
   5 C :   -0.233939
   6 H :    0.222782
   7 H :    0.209270
   8 H :    0.210835
   9 H :    0.234915
  10 H :    0.212128
  11 Pd:    0.356279
  12 O :   -0.468580
  13 O :   -0.486995
  14 O :   -0.371041
  15 C :    0.390469
  16 O :   -0.496217
  17 H :    0.469371
  18 C :    0.378620
  19 H :    0.179251
  20 H :    0.227799
Sum of atomic charges:   -0.0000000

--------------------------------
MULLIKEN REDUCED ORBITAL CHARGES
--------------------------------
  0 C s       :     3.258985  s :     3.258985
      pz      :     1.011540  p :     2.970295
      px      :     0.912622
      py      :     1.046134
      dz2     :     0.004094  d :     0.040340
      dxz     :     0.006942
      dyz     :     0.006797
      dx2y2   :     0.012613
      dxy     :     0.009894
  1 C s       :     3.244526  s :     3.244526
      pz      :     1.002873  p :     2.935689
      px      :     1.010584
      py      :     0.922231
      dz2     :     0.003807  d :     0.040460
      dxz     :     0.007210
      dyz     :     0.007220
      dx2y2   :     0.011757
      dxy     :     0.010465
  2 C s       :     3.242294  s :     3.242294
      pz      :     0.983673  p :     2.949454
      px      :     0.994404
      py      :     0.971377
      dz2     :     0.006470  d :     0.039950
      dxz     :     0.005194
      dyz     :     0.005855
      dx2y2   :     0.009009
      dxy     :     0.013422
  3 C s       :     3.246829  s :     3.246829
      pz      :     0.995434  p :     2.934650
      px      :     0.913287
      py      :     1.025928
      dz2     :     0.004224  d :     0.040450
      dxz     :     0.007294
      dyz     :     0.006439
      dx2y2   :     0.012872
      dxy     :     0.009622
  4 C s       :     3.260254  s :     3.260254
      pz      :     0.919395  p :     2.786103
      px      :     0.951733
      py      :     0.914975
      dz2     :     0.005674  d :     0.044668
      dxz     :     0.008075
      dyz     :     0.007398
      dx2y2   :     0.013655
      dxy     :     0.009867
  5 C s       :     3.267602  s :     3.267602
      pz      :     1.006760  p :     2.926082
      px      :     1.003913
      py      :     0.915409
      dz2     :     0.003699  d :     0.040254
      dxz     :     0.006910
      dyz     :     0.006754
      dx2y2   :     0.011510
      dxy     :     0.011381
  6 H s       :     0.777218  s :     0.777218
  7 H s       :     0.790730  s :     0.790730
  8 H s       :     0.789165  s :     0.789165
  9 H s       :     0.765085  s :     0.765085
 10 H s       :     0.787872  s :     0.787872
 11 Pds       :     2.522353  s :     2.522353
      pz      :     2.052535  p :     6.278784
      px      :     2.124159
      py      :     2.102090
      dz2     :     1.922201  d :     8.838098
      dxz     :     1.952928
      dyz     :     1.952811
      dx2y2   :     1.919575
      dxy     :     1.090583
      f0      :     0.000325  f :     0.004487
      f+1     :     0.000524
      f-1     :     0.000399
      f+2     :     0.000106
      f-2     :     0.000590
      f+3     :     0.000911
      f-3     :     0.001632
 12 O s       :     3.801062  s :     3.801062
      pz      :     1.544396  p :     4.639247
      px      :     1.696697
      py      :     1.398155
      dz2     :     0.003485  d :     0.028271
      dxz     :     0.000813
      dyz     :     0.009413
      dx2y2   :     0.008328
      dxy     :     0.006232
 13 O s       :     3.812258  s :     3.812258
      pz      :     1.636458  p :     4.644791
      px      :     1.409833
      py      :     1.598500
      dz2     :     0.003394  d :     0.029947
      dxz     :     0.004630
      dyz     :     0.005632
      dx2y2   :     0.005862
      dxy     :     0.010430
 14 O s       :     3.782587  s :     3.782587
      pz      :     1.407474  p :     4.556880
      px      :     1.496034
      py      :     1.653372
      dz2     :     0.010417  d :     0.031574
      dxz     :     0.008540
      dyz     :     0.007279
      dx2y2   :     0.003105
      dxy     :     0.002233
 15 C s       :     3.054438  s :     3.054438
      pz      :     0.777736  p :     2.419985
      px      :     0.816428
      py      :     0.825822
      dz2     :     0.040115  d :     0.135108
      dxz     :     0.030514
      dyz     :     0.040665
      dx2y2   :     0.008332
      dxy     :     0.015482
 16 O s       :     3.796801  s :     3.796801
      pz      :     1.327760  p :     4.667200
      px      :     1.693505
      py      :     1.645935
      dz2     :     0.002959  d :     0.032217
      dxz     :     0.009576
      dyz     :     0.008010
      dx2y2   :     0.006213
      dxy     :     0.005459
 17 H s       :     0.530629  s :     0.530629
 18 C s       :     3.045546  s :     3.045546
      pz      :     0.737096  p :     2.437128
      px      :     0.891303
      py      :     0.808730
      dz2     :     0.008870  d :     0.138706
      dxz     :     0.010420
      dyz     :     0.027761
      dx2y2   :     0.044747
      dxy     :     0.046907
 19 H s       :     0.820749  s :     0.820749
 20 H s       :     0.772201  s :     0.772201


                     *******************************
                     * LOEWDIN POPULATION ANALYSIS *
                     *******************************

----------------------
LOEWDIN ATOMIC CHARGES
----------------------
   0 C :   -0.134680
   1 C :   -0.136508
   2 C :   -0.149841
   3 C :   -0.132284
   4 C :   -0.005019
   5 C :   -0.110375
   6 H :    0.146696
   7 H :    0.131885
   8 H :    0.132026
   9 H :    0.156895
  10 H :    0.133561
  11 Pd:   -0.316603
  12 O :   -0.209544
  13 O :   -0.169328
  14 O :   -0.034056
  15 C :    0.180230
  16 O :   -0.204587
  17 H :    0.353707
  18 C :    0.134707
  19 H :    0.106574
  20 H :    0.126543

-------------------------------
LOEWDIN REDUCED ORBITAL CHARGES
-------------------------------
  0 C s       :     2.877485  s :     2.877485
      pz      :     1.025977  p :     3.165515
      px      :     1.071811
      py      :     1.067726
      dz2     :     0.008201  d :     0.091681
      dxz     :     0.016076
      dyz     :     0.012423
      dx2y2   :     0.029768
      dxy     :     0.025212
  1 C s       :     2.889369  s :     2.889369
      pz      :     1.012882  p :     3.154999
      px      :     1.063347
      py      :     1.078771
      dz2     :     0.007674  d :     0.092140
      dxz     :     0.013458
      dyz     :     0.016233
      dx2y2   :     0.028352
      dxy     :     0.026423
  2 C s       :     2.888143  s :     2.888143
      pz      :     1.027393  p :     3.170705
      px      :     1.070882
      py      :     1.072431
      dz2     :     0.012251  d :     0.090992
      dxz     :     0.011958
      dyz     :     0.013997
      dx2y2   :     0.022809
      dxy     :     0.029977
  3 C s       :     2.889604  s :     2.889604
      pz      :     1.009849  p :     3.150749
      px      :     1.078774
      py      :     1.062126
      dz2     :     0.008347  d :     0.091930
      dxz     :     0.017032
      dyz     :     0.011740
      dx2y2   :     0.030263
      dxy     :     0.024548
  4 C s       :     2.868762  s :     2.868762
      pz      :     0.950424  p :     3.033208
      px      :     1.037087
      py      :     1.045697
      dz2     :     0.011347  d :     0.103049
      dxz     :     0.017787
      dyz     :     0.016813
      dx2y2   :     0.032447
      dxy     :     0.024654
  5 C s       :     2.877223  s :     2.877223
      pz      :     1.009763  p :     3.141723
      px      :     1.064666
      py      :     1.067295
      dz2     :     0.007447  d :     0.091429
      dxz     :     0.012639
      dyz     :     0.015041
      dx2y2   :     0.027727
      dxy     :     0.028575
  6 H s       :     0.853304  s :     0.853304
  7 H s       :     0.868115  s :     0.868115
  8 H s       :     0.867974  s :     0.867974
  9 H s       :     0.843105  s :     0.843105
 10 H s       :     0.866439  s :     0.866439
 11 Pds       :     2.510986  s :     2.510986
      pz      :     2.094755  p :     6.620548
      px      :     2.295389
      py      :     2.230405
      dz2     :     1.973233  d :     9.179070
      dxz     :     1.988538
      dyz     :     1.985610
      dx2y2   :     1.970467
      dxy     :     1.261220
      f0      :     0.000420  f :     0.006000
      f+1     :     0.000683
      f-1     :     0.000535
      f+2     :     0.000116
      f-2     :     0.000806
      f+3     :     0.001232
      f-3     :     0.002208
 12 O s       :     3.487434  s :     3.487434
      pz      :     1.519356  p :     4.667524
      px      :     1.670003
      py      :     1.478165
      dz2     :     0.006658  d :     0.054586
      dxz     :     0.001814
      dyz     :     0.013658
      dx2y2   :     0.018938
      dxy     :     0.013519
 13 O s       :     3.464493  s :     3.464493
      pz      :     1.593850  p :     4.646080
      px      :     1.446583
      py      :     1.605647
      dz2     :     0.007207  d :     0.058754
      dxz     :     0.007971
      dyz     :     0.007155
      dx2y2   :     0.013201
      dxy     :     0.023221
 14 O s       :     3.422236  s :     3.422236
      pz      :     1.472115  p :     4.547295
      px      :     1.475069
      py      :     1.600111
      dz2     :     0.021455  d :     0.064525
      dxz     :     0.018668
      dyz     :     0.013364
      dx2y2   :     0.006181
      dxy     :     0.004857
 15 C s       :     2.857397  s :     2.857397
      pz      :     0.918094  p :     2.666703
      px      :     0.855849
      py      :     0.892760
      dz2     :     0.092416  d :     0.295670
      dxz     :     0.065586
      dyz     :     0.091984
      dx2y2   :     0.016279
      dxy     :     0.029405
 16 O s       :     3.470919  s :     3.470919
      pz      :     1.336469  p :     4.675336
      px      :     1.672773
      py      :     1.666094
      dz2     :     0.009267  d :     0.058332
      dxz     :     0.015913
      dyz     :     0.017463
      dx2y2   :     0.008229
      dxy     :     0.007460
 17 H s       :     0.646293  s :     0.646293
 18 C s       :     2.851319  s :     2.851319
      pz      :     0.746422  p :     2.707807
      px      :     0.999625
      py      :     0.961760
      dz2     :     0.020507  d :     0.306166
      dxz     :     0.019223
      dyz     :     0.059506
      dx2y2   :     0.100329
      dxy     :     0.106602
 19 H s       :     0.893426  s :     0.893426
 20 H s       :     0.873457  s :     0.873457


                      *****************************
                      * MAYER POPULATION ANALYSIS *
                      *****************************

  NA   - Mulliken gross atomic population
  ZA   - Total nuclear charge
  QA   - Mulliken gross atomic charge
  VA   - Mayer's total valence
  BVA  - Mayer's bonded valence
  FA   - Mayer's free valence

  ATOM       NA         ZA         QA         VA         BVA        FA
  0 C      6.2696     6.0000    -0.2696     3.8030     3.8030    -0.0000
  1 C      6.2207     6.0000    -0.2207     3.8237     3.8237    -0.0000
  2 C      6.2317     6.0000    -0.2317     3.8209     3.8209     0.0000
  3 C      6.2219     6.0000    -0.2219     3.8123     3.8123    -0.0000
  4 C      6.0910     6.0000    -0.0910     3.8162     3.8162    -0.0000
  5 C      6.2339     6.0000    -0.2339     3.7918     3.7918    -0.0000
  6 H      0.7772     1.0000     0.2228     0.9130     0.9130     0.0000
  7 H      0.7907     1.0000     0.2093     0.9145     0.9145    -0.0000
  8 H      0.7892     1.0000     0.2108     0.9146     0.9146    -0.0000
  9 H      0.7651     1.0000     0.2349     0.9103     0.9103    -0.0000
 10 H      0.7879     1.0000     0.2121     0.9136     0.9136    -0.0000
 11 Pd    17.6437    18.0000     0.3563     2.3971     2.3971     0.0000
 12 O      8.4686     8.0000    -0.4686     2.1461     2.1461     0.0000
 13 O      8.4870     8.0000    -0.4870     2.1564     2.1564     0.0000
 14 O      8.3710     8.0000    -0.3710     2.2772     2.2772    -0.0000
 15 C      5.6095     6.0000     0.3905     3.9060     3.9060     0.0000
 16 O      8.4962     8.0000    -0.4962     2.0964     2.0964    -0.0000
 17 H      0.5306     1.0000     0.4694     0.7593     0.7593     0.0000
 18 C      5.6214     6.0000     0.3786     3.9532     3.9532     0.0000
 19 H      0.8207     1.0000     0.1793     0.9172     0.9172     0.0000
 20 H      0.7722     1.0000     0.2278     0.8978     0.8978    -0.0000

  Mayer bond orders larger than 0.100000
B(  0-C ,  1-C ) :   1.4191 B(  0-C ,  4-C ) :   1.3805 B(  0-C ,  6-H ) :   0.9124 
B(  1-C ,  2-C ) :   1.4329 B(  1-C ,  7-H ) :   0.9208 B(  2-C ,  3-C ) :   1.4207 
B(  2-C ,  8-H ) :   0.9221 B(  3-C ,  5-C ) :   1.4211 B(  3-C , 10-H ) :   0.9204 
B(  4-C ,  5-C ) :   1.3787 B(  4-C , 11-Pd) :   0.9384 B(  5-C ,  9-H ) :   0.9106 
B( 11-Pd, 12-O ) :   0.3438 B( 11-Pd, 13-O ) :   0.5467 B( 11-Pd, 14-O ) :   0.3541 
B( 12-O , 13-O ) :   0.1166 B( 12-O , 18-C ) :   1.6186 B( 13-O , 18-C ) :   1.4204 
B( 14-O , 15-C ) :   1.7824 B( 15-C , 16-O ) :   1.2077 B( 15-C , 20-H ) :   0.8720 
B( 16-O , 17-H ) :   0.7394 B( 18-C , 19-H ) :   0.8855 


------------------
HIRSHFELD ANALYSIS
------------------

Total integrated alpha density =     52.999899559
Total integrated beta density  =     52.999899559

  ATOM     CHARGE      SPIN    
   0 C   -0.078352    0.000000
   1 C   -0.052809    0.000000
   2 C   -0.057361    0.000000
   3 C   -0.047815    0.000000
   4 C   -0.115862    0.000000
   5 C   -0.063840    0.000000
   6 H    0.027268    0.000000
   7 H    0.038543    0.000000
   8 H    0.039172    0.000000
   9 H    0.036360    0.000000
  10 H    0.040520    0.000000
  11 Pd   0.493829    0.000000
  12 O   -0.362325    0.000000
  13 O   -0.317976    0.000000
  14 O   -0.221541    0.000000
  15 C    0.255690    0.000000
  16 O   -0.146241    0.000000
  17 H    0.222606    0.000000
  18 C    0.171889    0.000000
  19 H    0.055490    0.000000
  20 H    0.082958    0.000000

  TOTAL   0.000201    0.000000

-------
TIMINGS
-------

Total SCF time: 0 days 0 hours 0 min 50 sec 

Total time                  ....      50.339 sec
Sum of individual times     ....      50.085 sec  ( 99.5%)

Fock matrix formation       ....      48.422 sec  ( 96.2%)
  Split-RI-J                ....       5.211 sec  ( 10.8% of F)
  Chain of spheres X        ....      38.289 sec  ( 79.1% of F)
  XC integration            ....       4.674 sec  (  9.7% of F)
    Basis function eval.    ....       1.719 sec  ( 36.8% of XC)
    Density eval.           ....       1.099 sec  ( 23.5% of XC)
    XC-Functional eval.     ....       0.408 sec  (  8.7% of XC)
    XC-Potential eval.      ....       1.140 sec  ( 24.4% of XC)
Diagonalization             ....       0.295 sec  (  0.6%)
Density matrix formation    ....       0.015 sec  (  0.0%)
Population analysis         ....       0.203 sec  (  0.4%)
Initial guess               ....       0.028 sec  (  0.1%)
Orbital Transformation      ....       0.000 sec  (  0.0%)
Orbital Orthonormalization  ....       0.000 sec  (  0.0%)
DIIS solution               ....       0.161 sec  (  0.3%)
Grid generation             ....       0.961 sec  (  1.9%)

Maximum memory used throughout the entire SCF-calculation: 73.9 MB


-------------------------------------------------------------------------------
                          DFT DISPERSION CORRECTION                            
                                                                               
                              DFTD3 V3.1  Rev 1                                
                          USING Becke-Johnson damping                          
-------------------------------------------------------------------------------
The PBEh-3c composite method is recognized
Using three-body term ABC
Active option DFTDOPT                   ...         4   

molecular C6(AA) [au] = 6848.859943 


            DFT-D V3
 parameters
 s6 scaling factor         :     1.0000 
 a1 scaling factor         :     0.4860 
 s8 scaling factor         :     0.0000 
 a2 scaling factor         :     4.5000 
 Damping factor alpha9(ATM):    16.0000 
 ad hoc parameters k1-k3   :    16.0000     1.3333    -4.0000 

 Edisp/kcal,au: -8.037987722161  -0.012809347423 
 E6   /kcal   :  -8.079189777 
 E8   /kcal   :  -0.000000000 
 E6(ABC)      :   0.041202055 
 % E8         :   0.000000000 
 % E6(ABC)    :  -0.512591667 

-------------------------   ----------------
Dispersion correction           -0.012809347
-------------------------   ----------------

 ** NOTE ** -> element pd will be treated as ni
------------------   -----------------
gCP correction             0.047871921
------------------   -----------------

-------------------------   --------------------
FINAL SINGLE POINT ENERGY      -737.137386142243
-------------------------   --------------------



           ************************************************************
           *        Program running with 4 parallel MPI-processes     *
           *              working on a common directory               *
           ************************************************************
------------------------------------------------------------------------------
                         ORCA SCF GRADIENT CALCULATION
------------------------------------------------------------------------------

 ... reading COSX grid (gridx3)
Gradient of the Kohn-Sham DFT energy:
Kohn-Sham wavefunction type      ... RKS
Hartree-Fock exchange scaling    ...    0.420
Number of operators              ...    1
Number of atoms                  ...   21
Basis set dimensions             ...  227
Integral neglect threshold       ... 2.5e-11
Integral primitive cutoff        ... 2.5e-12
SHARK Integral package           ... ON

Nuc. rep. gradient       (SHARK) ... done (  0.0 sec)
HCore & Overlap gradient (SHARK) ... done (  0.1 sec)
ECP gradient             (SHARK) ... done (  1.0 sec)
RI-J gradient            (SHARK) ... done (  0.9 sec)
COSX-gradient                    ... done (  6.0 sec)
Exchange-correlation gradient    ... done
Dispersion correction            ... done
gCP correction                   ... done

------------------
CARTESIAN GRADIENT
------------------

   1   C   :    0.000041673   -0.000007378   -0.000060646
   2   C   :    0.000071039    0.000010213    0.000014543
   3   C   :    0.000090375   -0.000066469    0.000002426
   4   C   :    0.000041391   -0.000085546   -0.000002909
   5   C   :    0.000062969   -0.000136808    0.000102227
   6   C   :    0.000116318   -0.000036452   -0.000039117
   7   H   :    0.000082112   -0.000041922    0.000011035
   8   H   :    0.000070663   -0.000035493    0.000029945
   9   H   :    0.000054279   -0.000019632   -0.000019107
  10   H   :    0.000099734   -0.000051317    0.000025781
  11   H   :    0.000046980    0.000004242   -0.000061276
  12   Pd  :    0.000137667    0.000010743    0.000063161
  13   O   :   -0.000019227    0.000004284    0.000084818
  14   O   :    0.000115457    0.000036144    0.000017576
  15   O   :    0.000087452   -0.000094087    0.000023833
  16   C   :   -0.000015714    0.000003897    0.000118199
  17   O   :    0.000123999   -0.000145095   -0.000052368
  18   H   :    0.000110165   -0.000076328    0.000092585
  19   C   :    0.000177670   -0.000200784   -0.000079322
  20   H   :    0.000062272   -0.000131896   -0.000013415
  21   H   :    0.000168244   -0.000003861   -0.000042164

Difference to translation invariance:
           :    0.0017255172   -0.0010635443    0.0002158063

Difference to rotation invariance:
           :    0.0016463292    0.0002307364   -0.0020984417

Norm of the cartesian gradient     ...    0.0006268913
RMS gradient                       ...    0.0000789809
MAX gradient                       ...    0.0002007838

-------
TIMINGS
-------

Total SCF gradient time            ...        9.449 sec

One electron gradient       ....       1.120 sec  ( 11.8%)
RI-J Coulomb gradient       ....       0.872 sec  (  9.2%)
COSX gradient               ....       5.992 sec  ( 63.4%)
XC gradient                 ....       1.031 sec  ( 10.9%)

Maximum memory used throughout the entire SCFGRAD-calculation: 47.3 MB

                            ***************************************
                            *     ORCA property calculations      *
                            ***************************************

                                    ---------------------
                                    Active property flags
                                    ---------------------
   (+) Dipole Moment


------------------------------------------------------------------------------
                       ORCA ELECTRIC PROPERTIES CALCULATION
------------------------------------------------------------------------------

Dipole Moment Calculation                       ... on
Quadrupole Moment Calculation                   ... off
Polarizability Calculation                      ... off
GBWName                                         ... 11_0_orca.gbw
Electron density                                ... 11_0_orca.scfp
The origin for moment calculation is the CENTER OF MASS  = ( 1.463123,  0.892973 -0.257287)

-------------
DIPOLE MOMENT
-------------
                                X             Y             Z
Electronic contribution:     53.01947      35.26596     -11.73935
Nuclear contribution   :    -54.78138     -33.91864      13.80689
                        -----------------------------------------
Total Dipole Moment    :     -1.76192       1.34732       2.06754
                        -----------------------------------------
Magnitude (a.u.)       :      3.03222
Magnitude (Debye)      :      7.70729



--------------------
Rotational spectrum 
--------------------
 
Rotational constants in cm-1:     0.030836     0.016460     0.012495 
Rotational constants in MHz :   924.431494   493.465817   374.593730 

 Dipole components along the rotational axes: 
x,y,z [a.u.] :    -0.867365     2.764376     0.894567 
x,y,z [Debye]:    -2.204666     7.026484     2.273810 

 

Timings for individual modules:

Sum of individual times         ...       61.019 sec (=   1.017 min)
GTO integral calculation        ...        0.746 sec (=   0.012 min)   1.2 %
SCF iterations                  ...       50.577 sec (=   0.843 min)  82.9 %
SCF Gradient evaluation         ...        9.696 sec (=   0.162 min)  15.9 %
                             ****ORCA TERMINATED NORMALLY****
TOTAL RUN TIME: 0 days 0 hours 1 minutes 1 seconds 564 msec
