
                                 *****************
                                 * O   R   C   A *
                                 *****************

                                            #,                                       
                                            ###                                      
                                            ####                                     
                                            #####                                    
                                            ######                                   
                                           ########,                                 
                                     ,,################,,,,,                         
                               ,,#################################,,                 
                          ,,##########################################,,             
                       ,#########################################, ''#####,          
                    ,#############################################,,   '####,        
                  ,##################################################,,,,####,       
                ,###########''''           ''''###############################       
              ,#####''   ,,,,##########,,,,          '''####'''          '####       
            ,##' ,,,,###########################,,,                        '##       
           ' ,,###''''                  '''############,,,                           
         ,,##''                                '''############,,,,        ,,,,,,###''
      ,#''                                            '''#######################'''  
     '                                                          ''''####''''         
             ,#######,   #######,   ,#######,      ##                                
            ,#'     '#,  ##    ##  ,#'     '#,    #''#        ######   ,####,        
            ##       ##  ##   ,#'  ##            #'  '#       #        #'  '#        
            ##       ##  #######   ##           ,######,      #####,   #    #        
            '#,     ,#'  ##    ##  '#,     ,#' ,#      #,         ##   #,  ,#        
             '#######'   ##     ##  '#######'  #'      '#     #####' # '####'        



                  #######################################################
                  #                        -***-                        #
                  #          Department of theory and spectroscopy      #
                  #    Directorship and core code : Frank Neese         #
                  #        Max Planck Institute fuer Kohlenforschung    #
                  #                Kaiser Wilhelm Platz 1               #
                  #                 D-45470 Muelheim/Ruhr               #
                  #                      Germany                        #
                  #                                                     #
                  #                  All rights reserved                #
                  #                        -***-                        #
                  #######################################################


                         Program Version 5.0.3 -  RELEASE  -


 With contributions from (in alphabetic order):
   Daniel Aravena         : Magnetic Suceptibility
   Michael Atanasov       : Ab Initio Ligand Field Theory (pilot matlab implementation)
   Alexander A. Auer      : GIAO ZORA, VPT2 properties, NMR spectrum
   Ute Becker             : Parallelization
   Giovanni Bistoni       : ED, misc. LED, open-shell LED, HFLD
   Martin Brehm           : Molecular dynamics
   Dmytro Bykov           : SCF Hessian
   Vijay G. Chilkuri      : MRCI spin determinant printing, contributions to CSF-ICE
   Dipayan Datta          : RHF DLPNO-CCSD density
   Achintya Kumar Dutta   : EOM-CC, STEOM-CC
   Dmitry Ganyushin       : Spin-Orbit,Spin-Spin,Magnetic field MRCI
   Miquel Garcia          : C-PCM and meta-GGA Hessian, CC/C-PCM, Gaussian charge scheme
   Yang Guo               : DLPNO-NEVPT2, F12-NEVPT2, CIM, IAO-localization
   Andreas Hansen         : Spin unrestricted coupled pair/coupled cluster methods
   Benjamin Helmich-Paris : MC-RPA, TRAH-SCF, COSX integrals
   Lee Huntington         : MR-EOM, pCC
   Robert Izsak           : Overlap fitted RIJCOSX, COSX-SCS-MP3, EOM
   Marcus Kettner         : VPT2
   Christian Kollmar      : KDIIS, OOCD, Brueckner-CCSD(T), CCSD density, CASPT2, CASPT2-K
   Simone Kossmann        : Meta GGA functionals, TD-DFT gradient, OOMP2, MP2 Hessian
   Martin Krupicka        : Initial AUTO-CI
   Lucas Lang             : DCDCAS
   Marvin Lechner         : AUTO-CI (C++ implementation), FIC-MRCC
   Dagmar Lenk            : GEPOL surface, SMD
   Dimitrios Liakos       : Extrapolation schemes; Compound Job, initial MDCI parallelization
   Dimitrios Manganas     : Further ROCIS development; embedding schemes
   Dimitrios Pantazis     : SARC Basis sets
   Anastasios Papadopoulos: AUTO-CI, single reference methods and gradients
   Taras Petrenko         : DFT Hessian,TD-DFT gradient, ASA, ECA, R-Raman, ABS, FL, XAS/XES, NRVS
   Peter Pinski           : DLPNO-MP2, DLPNO-MP2 Gradient
   Christoph Reimann      : Effective Core Potentials
   Marius Retegan         : Local ZFS, SOC
   Christoph Riplinger    : Optimizer, TS searches, QM/MM, DLPNO-CCSD(T), (RO)-DLPNO pert. Triples
   Tobias Risthaus        : Range-separated hybrids, TD-DFT gradient, RPA, STAB
   Michael Roemelt        : Original ROCIS implementation
   Masaaki Saitow         : Open-shell DLPNO-CCSD energy and density
   Barbara Sandhoefer     : DKH picture change effects
   Avijit Sen             : IP-ROCIS
   Kantharuban Sivalingam : CASSCF convergence, NEVPT2, FIC-MRCI
   Bernardo de Souza      : ESD, SOC TD-DFT
   Georgi Stoychev        : AutoAux, RI-MP2 NMR, DLPNO-MP2 response
   Willem Van den Heuvel  : Paramagnetic NMR
   Boris Wezisla          : Elementary symmetry handling
   Frank Wennmohs         : Technical directorship


 We gratefully acknowledge several colleagues who have allowed us to
 interface, adapt or use parts of their codes:
   Stefan Grimme, W. Hujo, H. Kruse, P. Pracht,  : VdW corrections, initial TS optimization,
                  C. Bannwarth, S. Ehlert          DFT functionals, gCP, sTDA/sTD-DF
   Ed Valeev, F. Pavosevic, A. Kumar             : LibInt (2-el integral package), F12 methods
   Garnet Chan, S. Sharma, J. Yang, R. Olivares  : DMRG
   Ulf Ekstrom                                   : XCFun DFT Library
   Mihaly Kallay                                 : mrcc  (arbitrary order and MRCC methods)
   Jiri Pittner, Ondrej Demel                    : Mk-CCSD
   Frank Weinhold                                : gennbo (NPA and NBO analysis)
   Christopher J. Cramer and Donald G. Truhlar   : smd solvation model
   Lars Goerigk                                  : TD-DFT with DH, B97 family of functionals
   V. Asgeirsson, H. Jonsson                     : NEB implementation
   FAccTs GmbH                                   : IRC, NEB, NEB-TS, DLPNO-Multilevel, CI-OPT
                                                   MM, QMMM, 2- and 3-layer-ONIOM, Crystal-QMMM,
                                                   LR-CPCM, SF, NACMEs, symmetry and pop. for TD-DFT,
                                                   nearIR, NL-DFT gradient (VV10), updates on ESD,
                                                   ML-optimized integration grids
   S Lehtola, MJT Oliveira, MAL Marques          : LibXC Library
   Liviu Ungur et al                             : ANISO software


 Your calculation uses the libint2 library for the computation of 2-el integrals
 For citations please refer to: http://libint.valeyev.net

 Your ORCA version has been built with support for libXC version: 5.1.0
 For citations please refer to: https://tddft.org/programs/libxc/

 This ORCA versions uses:
   CBLAS   interface :  Fast vector & matrix operations
   LAPACKE interface :  Fast linear algebra routines
   SCALAPACK package :  Parallel linear algebra routines
   Shared memory     :  Shared parallel matrices
   BLAS/LAPACK       :  OpenBLAS 0.3.15  USE64BITINT DYNAMIC_ARCH NO_AFFINITY Prescott SINGLE_THREADED
        Core in use  :  Prescott
   Copyright (c) 2011-2014, The OpenBLAS Project


Your calculation utilizes the geometrical counterpoise correction gCP
Please cite in your paper:
H.Kruse, S. Grimme J.Chem.Phys., 136, (2012), 154101 
   

Your calculation utilizes the atom-pairwise dispersion correction
with the Becke-Johnson damping scheme (D3BJ)
Cite in your paper:
S.Grimme, S.Ehrlich, L.Goerigk, J Comput Chem, (2011), 32, 1456–1465 
S.Grimme, J.Antony, S.Ehrlich and H.Krieg, J.Chem.Phys., 132, (2010), 154104 
   

Your calculation employs the composite approach PBEh-3c.
Please cite in your paper:
S. Grimme, J. G. Brandenburg, C. Bannwarth, A. Hansen J.Chem.Phys., 143, (2015), 054107 
   

================================================================================

cite the ECPs for Pd [Def2-ECP] as follows:
Ce-Yb(ecp-28): M. Dolg, H. Stoll, H.Preuss, J. Chem. Phys., 1989, 90, 1730-1734.
Y-Cd(ecp-28), Hf-Hg(ecp-46): D. Andrae,U. Haeussermann, M. Dolg, H. Stoll, H. Preuss, Theor. Chim. Acta, 1990, 77, 123-141.
In-Sb(ecp-28), Tl-Bi(ecp-46): B. Metz, H. Stoll, M. Dolg, J. Chem. Phys., 2000, 113, 2563-2569.
Te-Xe(ecp-28), Po-Rn(ecp-46): K. A. Peterson, D. Figgen, E. Goll, H. Stoll, M. Dolg, J. Chem. Phys., 2003, 119, 11113-11123.
Rb(ecp-28), Cs(ecp-46): T. Leininger, A. Nicklass, W. Kuechle, H. Stoll, M. Dolg, A. Bergner, Chem. Phys. Lett., 1996, 255, 274-280.
Sr(ecp-28), Ba(ecp-46): M. Kaupp, P. V. Schleyer, H. Stoll and H. Preuss, J. Chem. Phys., 1991, 94, 1360-1366.
La(ecp-46): M. Dolg, H. Stoll, A. Savin, H. Preuss, Theor. Chim. Acta, 1989, 75, 173-194.
Lu(ecp-28): X. Cao, M. Dolg, J. Chem. Phys., 2001, 115, 7348-7355.

ECP parameters for Pd [Def2-ECP] have been obtained from:
TURBOMOLE (7.0.2)

----- Orbital basis set information -----
Your calculation utilizes the basis: def2-mSVP

----- AuxJ basis set information -----
Your calculation utilizes the auxiliary basis: def2/J
   F. Weigend, Phys. Chem. Chem. Phys. 8, 1057 (2006).

================================================================================
                                        WARNINGS
                       Please study these warnings very carefully!
================================================================================


INFO   : the flag for use of the SHARK integral package has been found!

================================================================================
                                       INPUT FILE
================================================================================
NAME = 1_12_orca.inp
|  1> ! EnGrad PBEh-3c
|  2> %output 
|  3> xyzfile=True 
|  4> end 
|  5> %scf 
|  6> maxiter 250 
|  7> end
|  8> %output
|  9> Print[P_Hirshfeld] = 1
| 10> end
| 11> % maxcore
| 12> 4000
| 13> *xyz -1 1
| 14> C   -2.54681414  -0.18071843   0.45350041 
| 15> C   -1.95126139   1.01836920   1.26064752 
| 16> C   -3.79666869  -0.51073547   0.79159100 
| 17> C   -4.73078899   0.39392017   1.36708923 
| 18> C   -4.26142802   1.56388693   1.88721744 
| 19> C   -2.89922554   1.77170148   1.92873951 
| 20> H   -2.17670929  -0.75560102  -0.47509794 
| 21> H   -4.13040315  -1.51842525   0.50523445 
| 22> H   -2.49950406   2.70269424   2.37593783 
| 23> H   -5.78900253   0.20000852   1.20903948 
| 24> H   -4.92762052   2.30662524   2.24650864 
| 25> C   -0.50973139   1.45666697   1.35803818 
| 26> C    0.62577991   0.45002147   1.74621644 
| 27> H   -0.47390919   2.22891761   2.09004970 
| 28> H   -0.25882225   1.85912423   0.39596091 
| 29> C    1.74849285   0.55768295   0.74120263 
| 30> H    0.24137792  -0.57688306   1.78583917 
| 31> H    1.01585320   0.67392695   2.75627727 
| 32> C    1.71418070  -0.14532259  -0.49113355 
| 33> C    2.74950012   0.15007178  -1.38955896 
| 34> C    3.74046312   1.10220687  -1.11877881 
| 35> C    2.83670100   1.39628682   1.05302612 
| 36> C    3.77956147   1.75859534   0.10224948 
| 37> H    2.81085756  -0.39955391  -2.32141551 
| 38> H    4.50310483   1.31395112  -1.86274575 
| 39> H    2.93748900   1.82558658   2.05164835 
| 40> H    4.56710102   2.48512515   0.33296337 
| 41> Pd   0.27144040  -1.62097707  -0.98579606 
| 42> Br  -1.42034034  -3.65092560  -0.79471150 
| 43> P    1.41977604  -3.01502760   0.23061763 
| 44> H    0.86190834  -3.57360029   1.36449733 
| 45> C    0.47579144  -1.22543494  -3.92490547 
| 46> O    1.50184779  -1.64080723  -4.20501009 
| 47> O   -0.42371730  -1.70385344  -3.08810542 
| 48> O   -0.04860494  -0.09123927  -4.49507093 
| 49> H    2.71269772  -2.74417917   0.65892532 
| 50> H    1.65085324  -4.12843763  -0.56115352 
| 51> H    0.67687538   0.26136690  -4.97815188 
| 52> *
| 53> 
| 54>                          ****END OF INPUT****
================================================================================

                     *******************************
                     * Energy+Gradient Calculation *
                     *******************************

---------------------------------
CARTESIAN COORDINATES (ANGSTROEM)
---------------------------------
  C     -2.546814   -0.180718    0.453500
  C     -1.951261    1.018369    1.260648
  C     -3.796669   -0.510735    0.791591
  C     -4.730789    0.393920    1.367089
  C     -4.261428    1.563887    1.887217
  C     -2.899226    1.771701    1.928740
  H     -2.176709   -0.755601   -0.475098
  H     -4.130403   -1.518425    0.505234
  H     -2.499504    2.702694    2.375938
  H     -5.789003    0.200009    1.209039
  H     -4.927621    2.306625    2.246509
  C     -0.509731    1.456667    1.358038
  C      0.625780    0.450021    1.746216
  H     -0.473909    2.228918    2.090050
  H     -0.258822    1.859124    0.395961
  C      1.748493    0.557683    0.741203
  H      0.241378   -0.576883    1.785839
  H      1.015853    0.673927    2.756277
  C      1.714181   -0.145323   -0.491134
  C      2.749500    0.150072   -1.389559
  C      3.740463    1.102207   -1.118779
  C      2.836701    1.396287    1.053026
  C      3.779561    1.758595    0.102249
  H      2.810858   -0.399554   -2.321416
  H      4.503105    1.313951   -1.862746
  H      2.937489    1.825587    2.051648
  H      4.567101    2.485125    0.332963
  Pd     0.271440   -1.620977   -0.985796
  Br    -1.420340   -3.650926   -0.794712
  P      1.419776   -3.015028    0.230618
  H      0.861908   -3.573600    1.364497
  C      0.475791   -1.225435   -3.924905
  O      1.501848   -1.640807   -4.205010
  O     -0.423717   -1.703853   -3.088105
  O     -0.048605   -0.091239   -4.495071
  H      2.712698   -2.744179    0.658925
  H      1.650853   -4.128438   -0.561154
  H      0.676875    0.261367   -4.978152

----------------------------
CARTESIAN COORDINATES (A.U.)
----------------------------
  NO LB      ZA    FRAG     MASS         X           Y           Z
   0 C     6.0000    0    12.011   -4.812781   -0.341508    0.856992
   1 C     6.0000    0    12.011   -3.687350    1.924439    2.382279
   2 C     6.0000    0    12.011   -7.174664   -0.965150    1.495890
   3 C     6.0000    0    12.011   -8.939896    0.744401    2.583424
   4 C     6.0000    0    12.011   -8.052932    2.955318    3.566324
   5 C     6.0000    0    12.011   -5.478742    3.348031    3.644789
   6 H     1.0000    0     1.008   -4.113384   -1.427879   -0.897805
   7 H     1.0000    0     1.008   -7.805331   -2.869408    0.954755
   8 H     1.0000    0     1.008   -4.723378    5.107352    4.489872
   9 H     1.0000    0     1.008  -10.939629    0.377961    2.284754
  10 H     1.0000    0     1.008   -9.311853    4.358890    4.245286
  11 C     6.0000    0    12.011   -0.963253    2.752702    2.566320
  12 C     6.0000    0    12.011    1.182553    0.850417    3.299871
  13 H     1.0000    0     1.008   -0.895559    4.212044    3.949622
  14 H     1.0000    0     1.008   -0.489103    3.513236    0.748258
  15 C     6.0000    0    12.011    3.304173    1.053868    1.400670
  16 H     1.0000    0     1.008    0.456138   -1.090151    3.374747
  17 H     1.0000    0     1.008    1.919684    1.273537    5.208609
  18 C     6.0000    0    12.011    3.239332   -0.274620   -0.928108
  19 C     6.0000    0    12.011    5.195802    0.283595   -2.625886
  20 C     6.0000    0    12.011    7.068451    2.082869   -2.114186
  21 C     6.0000    0    12.011    5.360588    2.638600    1.989931
  22 C     6.0000    0    12.011    7.142336    3.323264    0.193224
  23 H     1.0000    0     1.008    5.311751   -0.755047   -4.386840
  24 H     1.0000    0     1.008    8.509635    2.483008   -3.520079
  25 H     1.0000    0     1.008    5.551050    3.449859    3.877054
  26 H     1.0000    0     1.008    8.630570    4.696206    0.629210
  27 Pd   18.0000*   0   106.400    0.512948   -3.063203   -1.862885
  28 Br   35.0000    0    79.900   -2.684054   -6.899250   -1.501787
  29 P    15.0000    0    30.974    2.682988   -5.697576    0.435804
  30 H     1.0000    0     1.008    1.628771   -6.753126    2.578526
  31 C     6.0000    0    12.011    0.899116   -2.315736   -7.416996
  32 O     8.0000    0    15.999    2.838081   -3.100676   -7.946317
  33 O     8.0000    0    15.999   -0.800710   -3.219816   -5.835674
  34 O     8.0000    0    15.999   -0.091850   -0.172417   -8.494453
  35 H     1.0000    0     1.008    5.126256   -5.185747    1.245188
  36 H     1.0000    0     1.008    3.119661   -7.801616   -1.060426
  37 H     1.0000    0     1.008    1.279109    0.493912   -9.407344
* core charge reduced due to ECP

--------------------------------
INTERNAL COORDINATES (ANGSTROEM)
--------------------------------
 C      0   0   0     0.000000000000     0.00000000     0.00000000
 C      1   0   0     1.563323600421     0.00000000     0.00000000
 C      1   2   0     1.336170980785   114.52850455     0.00000000
 C      3   1   2     1.422034027226   124.03716942    25.75081824
 C      4   3   1     1.363691788676   118.29834842   344.37861314
 C      5   4   3     1.378588613767   118.74489530   354.93712759
 H      1   2   3     1.153153280315   132.52206193   170.56227800
 H      3   1   2     1.099462348712   116.38518846   199.42244726
 H      6   5   4     1.107479624263   119.70424052   181.85765520
 H      4   3   1     1.087380957954   117.83971165   153.57178872
 H      5   4   3     1.060454058692   120.92415992   174.40801970
 C      2   1   3     1.509833969926   128.29295158   165.47508721
 C     12   2   1     1.566334394896   121.43775440   307.97308991
 H     12   2   1     1.064657290590   106.68088358   186.96082201
 H     12   2   1     1.072622914221   105.92647579    70.15335995
 C     13  12   2     1.510671406432   109.15339409   129.82791793
 H     13  12   2     1.097209079612   110.88316003     7.80097935
 H     13  12   2     1.105673421877   110.61005074   250.16700655
 C     16  13  12     1.419171086742   121.62923471   276.16872892
 C     19  16  13     1.402252599424   115.73121761   173.63042082
 C     20  19  16     1.400675118153   122.79908186   358.28470106
 C     16  13  12     1.408789309095   117.98494122    95.38696470
 C     21  20  19     1.386825363736   120.78992816     3.33413061
 H     20  19  16     1.083609599593   119.07359036   176.26884943
 H     21  20  19     1.086252646972   119.78992909   181.84446436
 H     22  16  13     1.091651438478   120.52326060     9.50176334
 H     23  21  20     1.096035130218   121.28727737   178.32515284
 Pd    19  16  13     2.122203269338   124.28334560   351.13665603
 Br    28  19  16     2.649401142854   161.81626437   321.86149575
 P     28  19  16     2.177547677436    87.50305808   280.90437034
 H     30  28  19     1.381630556549   120.28723229   116.60134455
 C     24  20  19     2.950558135727   124.36812010    37.88268680
 O     32  24  20     1.141833775477    61.57455246   189.91651693
 O     32  24  20     1.318421236995   107.25244695   316.08005849
 O     32  24  20     1.373491912237   107.25428291    71.43903439
 H     30  28  19     1.388687445022   122.57580684   346.03656589
 H     30  28  19     1.385633472906   106.44907090   231.92529332
 H     35  32  24     0.940223383076   103.20142910    57.16515256

---------------------------
INTERNAL COORDINATES (A.U.)
---------------------------
 C      0   0   0     0.000000000000     0.00000000     0.00000000
 C      1   0   0     2.954253463491     0.00000000     0.00000000
 C      1   2   0     2.524997221777   114.52850455     0.00000000
 C      3   1   2     2.687254864575   124.03716942    25.75081824
 C      4   3   1     2.577004011675   118.29834842   344.37861314
 C      5   4   3     2.605154931361   118.74489530   354.93712759
 H      1   2   3     2.179143890228   132.52206193   170.56227800
 H      3   1   2     2.077682733624   116.38518846   199.42244726
 H      6   5   4     2.092833188754   119.70424052   181.85765520
 H      4   3   1     2.054852213773   117.83971165   153.57178872
 H      5   4   3     2.003967748532   120.92415992   174.40801970
 C      2   1   3     2.853172710851   128.29295158   165.47508721
 C     12   2   1     2.959943040495   121.43775440   307.97308991
 H     12   2   1     2.011910705697   106.68088358   186.96082201
 H     12   2   1     2.026963552847   105.92647579    70.15335995
 C     13  12   2     2.854755236501   109.15339409   129.82791793
 H     13  12   2     2.073424672119   110.88316003     7.80097935
 H     13  12   2     2.089419960904   110.61005074   250.16700655
 C     16  13  12     2.681844691122   121.62923471   276.16872892
 C     19  16  13     2.649873383490   115.73121761   173.63042082
 C     20  19  16     2.646892375907   122.79908186   358.28470106
 C     16  13  12     2.662225974586   117.98494122    95.38696470
 C     21  20  19     2.620720133037   120.78992816     3.33413061
 H     20  19  16     2.047725379318   119.07359036   176.26884943
 H     21  20  19     2.052720015023   119.78992909   181.84446436
 H     22  16  13     2.062922252424   120.52326060     9.50176334
 H     23  21  20     2.071206229269   121.28727737   178.32515284
 Pd    19  16  13     4.010382979561   124.28334560   351.13665603
 Br    28  19  16     5.006642578891   161.81626437   321.86149575
 P     28  19  16     4.114968753910    87.50305808   280.90437034
 H     30  28  19     2.610903370134   120.28723229   116.60134455
 C     24  20  19     5.575746818738   124.36812010    37.88268680
 O     32  24  20     2.157753126113    61.57455246   189.91651693
 O     32  24  20     2.491455067066   107.25244695   316.08005849
 O     32  24  20     2.595523561284   107.25428291    71.43903439
 H     30  28  19     2.624238956706   122.57580684   346.03656589
 H     30  28  19     2.618467785786   106.44907090   231.92529332
 H     35  32  24     1.776764698722   103.20142910    57.16515256

---------------------
BASIS SET INFORMATION
---------------------
There are 6 groups of distinct atoms

 Group   1 Type C   : 8s4p1d contracted to 4s2p1d pattern {5111/31/1}
 Group   2 Type H   : 4s contracted to 2s pattern {31}
 Group   3 Type Pd  : 7s6p5d1f contracted to 5s3p2d1f pattern {31111/411/41/1}
 Group   4 Type Br  : 14s10p6d contracted to 5s4p3d pattern {63311/5311/411}
 Group   5 Type P   : 10s7p1d contracted to 4s3p1d pattern {5311/511/1}
 Group   6 Type O   : 8s4p1d contracted to 4s2p1d pattern {5111/31/1}

Atom   0C    basis set group =>   1
Atom   1C    basis set group =>   1
Atom   2C    basis set group =>   1
Atom   3C    basis set group =>   1
Atom   4C    basis set group =>   1
Atom   5C    basis set group =>   1
Atom   6H    basis set group =>   2
Atom   7H    basis set group =>   2
Atom   8H    basis set group =>   2
Atom   9H    basis set group =>   2
Atom  10H    basis set group =>   2
Atom  11C    basis set group =>   1
Atom  12C    basis set group =>   1
Atom  13H    basis set group =>   2
Atom  14H    basis set group =>   2
Atom  15C    basis set group =>   1
Atom  16H    basis set group =>   2
Atom  17H    basis set group =>   2
Atom  18C    basis set group =>   1
Atom  19C    basis set group =>   1
Atom  20C    basis set group =>   1
Atom  21C    basis set group =>   1
Atom  22C    basis set group =>   1
Atom  23H    basis set group =>   2
Atom  24H    basis set group =>   2
Atom  25H    basis set group =>   2
Atom  26H    basis set group =>   2
Atom  27Pd   basis set group =>   3
Atom  28Br   basis set group =>   4
Atom  29P    basis set group =>   5
Atom  30H    basis set group =>   2
Atom  31C    basis set group =>   1
Atom  32O    basis set group =>   6
Atom  33O    basis set group =>   6
Atom  34O    basis set group =>   6
Atom  35H    basis set group =>   2
Atom  36H    basis set group =>   2
Atom  37H    basis set group =>   2
---------------------------------
AUXILIARY/J BASIS SET INFORMATION
---------------------------------
There are 6 groups of distinct atoms

 Group   1 Type C   : 12s5p4d2f1g contracted to 6s4p3d1f1g pattern {711111/2111/211/2/1}
 Group   2 Type H   : 5s2p1d contracted to 3s1p1d pattern {311/2/1}
 Group   3 Type Pd  : 11s5p5d3f3g contracted to 8s5p5d2f3g pattern {41111111/11111/11111/21/111}
 Group   4 Type Br  : 19s5p5d3f1g contracted to 8s4p3d2f1g pattern {121111111/2111/311/21/1}
 Group   5 Type P   : 14s5p5d2f1g contracted to 8s4p3d1f1g pattern {71111111/2111/311/2/1}
 Group   6 Type O   : 12s5p4d2f1g contracted to 6s4p3d1f1g pattern {711111/2111/211/2/1}

Atom   0C    basis set group =>   1
Atom   1C    basis set group =>   1
Atom   2C    basis set group =>   1
Atom   3C    basis set group =>   1
Atom   4C    basis set group =>   1
Atom   5C    basis set group =>   1
Atom   6H    basis set group =>   2
Atom   7H    basis set group =>   2
Atom   8H    basis set group =>   2
Atom   9H    basis set group =>   2
Atom  10H    basis set group =>   2
Atom  11C    basis set group =>   1
Atom  12C    basis set group =>   1
Atom  13H    basis set group =>   2
Atom  14H    basis set group =>   2
Atom  15C    basis set group =>   1
Atom  16H    basis set group =>   2
Atom  17H    basis set group =>   2
Atom  18C    basis set group =>   1
Atom  19C    basis set group =>   1
Atom  20C    basis set group =>   1
Atom  21C    basis set group =>   1
Atom  22C    basis set group =>   1
Atom  23H    basis set group =>   2
Atom  24H    basis set group =>   2
Atom  25H    basis set group =>   2
Atom  26H    basis set group =>   2
Atom  27Pd   basis set group =>   3
Atom  28Br   basis set group =>   4
Atom  29P    basis set group =>   5
Atom  30H    basis set group =>   2
Atom  31C    basis set group =>   1
Atom  32O    basis set group =>   6
Atom  33O    basis set group =>   6
Atom  34O    basis set group =>   6
Atom  35H    basis set group =>   2
Atom  36H    basis set group =>   2
Atom  37H    basis set group =>   2
-------------------------
ECP PARAMETER INFORMATION
-------------------------

 Group 1, Type Pd ECP Def2-ECP (replacing 28 core electrons, lmax=3)

Atom  27Pd   ECP group =>   1

------------------------------------------------------------------------------
                           ORCA GTO INTEGRAL CALCULATION
                           -- RI-GTO INTEGRALS CHOSEN --
------------------------------------------------------------------------------
------------------------------------------------------------------------------
                   ___                                                        
                  /   \      - P O W E R E D   B Y -                         
                 /     \                                                     
                 |  |  |   _    _      __       _____    __    __             
                 |  |  |  | |  | |    /  \     |  _  \  |  |  /  |          
                  \  \/   | |  | |   /    \    | | | |  |  | /  /          
                 / \  \   | |__| |  /  /\  \   | |_| |  |  |/  /          
                |  |  |   |  __  | /  /__\  \  |    /   |      \           
                |  |  |   | |  | | |   __   |  |    \   |  |\   \          
                \     /   | |  | | |  |  |  |  | |\  \  |  | \   \       
                 \___/    |_|  |_| |__|  |__|  |_| \__\ |__|  \__/        
                                                                              
                      - O R C A' S   B I G   F R I E N D -                    
                                      &                                       
                       - I N T E G R A L  F E E D E R -                       
                                                                              
 v1 FN, 2020, v2 2021                                                         
------------------------------------------------------------------------------


Reading SHARK input file 1_12_orca.SHARKINP.tmp ... ok
----------------------
SHARK INTEGRAL PACKAGE
----------------------

Number of atoms                             ...     38
Number of basis functions                   ...    385
Number of shells                            ...    191
Maximum angular momentum                    ...      3
Integral batch strategy                     ... SHARK/LIBINT Hybrid
RI-J (if used) integral strategy            ... SPLIT-RIJ (Revised 2003 algorithm where possible)
Printlevel                                  ...      1
Contraction scheme used                     ... SEGMENTED contraction
Coulomb Range Separation                    ... NOT USED
Exchange Range Separation                   ... NOT USED
Finite Nucleus Model                        ... NOT USED
Auxiliary Coulomb fitting basis             ... AVAILABLE
   # of basis functions in Aux-J            ...   1267
   # of shells in Aux-J                     ...    413
   Maximum angular momentum in Aux-J        ...      4
Auxiliary J/K fitting basis                 ... NOT available
Auxiliary Correlation fitting basis         ... NOT available
Auxiliary 'external' fitting basis          ... NOT available
Integral threshold                          ...     2.500000e-11
Primitive cut-off                           ...     2.500000e-12
Primitive pair pre-selection threshold      ...     2.500000e-12

Calculating pre-screening integrals         ... done (  0.1 sec) Dimension = 191
Organizing shell pair data                  ... done (  0.1 sec)
Shell pair information
Total number of shell pairs                 ...     18336
Shell pairs after pre-screening             ...     12045
Total number of primitive shell pairs       ...     68628
Primitive shell pairs kept                  ...     27678
          la=0 lb=0:   4274 shell pairs
          la=1 lb=0:   4037 shell pairs
          la=1 lb=1:    918 shell pairs
          la=2 lb=0:   1679 shell pairs
          la=2 lb=1:    825 shell pairs
          la=2 lb=2:    176 shell pairs
          la=3 lb=0:     75 shell pairs
          la=3 lb=1:     42 shell pairs
          la=3 lb=2:     18 shell pairs
          la=3 lb=3:      1 shell pairs

Calculating one electron integrals          ... done (  0.1 sec)
Calculating ECP integrals                   ... done (  0.5 sec)
Calculating RI/J V-Matrix + Cholesky decomp.... done (  0.2 sec)
Calculating Nuclear repulsion               ... done (  0.0 sec) ENN=   2504.260562778298 Eh

SHARK setup successfully completed in   1.3 seconds

Maximum memory used throughout the entire GTOINT-calculation: 92.8 MB
-------------------------------------------------------------------------------
                                 ORCA SCF
-------------------------------------------------------------------------------

------------
SCF SETTINGS
------------
Hamiltonian:
 Density Functional     Method          .... DFT(GTOs)
 Exchange Functional    Exchange        .... PBE
   PBE kappa parameter   XKappa         ....  1.024500
   PBE mue parameter    XMuePBE         ....  0.123457
 Correlation Functional Correlation     .... PBE
   PBE beta parameter  CBetaPBE         ....  0.030000
 LDA part of GGA corr.  LDAOpt          .... PW91-LDA
 Gradients option       PostSCFGGA      .... off
 Hybrid DFT is turned on
   Fraction HF Exchange ScalHFX         ....  0.420000
   Scaling of DF-GGA-X  ScalDFX         ....  0.580000
   Scaling of DF-GGA-C  ScalDFC         ....  1.000000
   Scaling of DF-LDA-C  ScalLDAC        ....  1.000000
   Perturbative correction              ....  0.000000
   Density functional embedding theory  .... OFF
 RI-approximation to the Coulomb term is turned on
   Number of AuxJ basis functions       .... 1267
   RIJ-ON(X) (HFX calculated with O(N)) .... on
   Number of AuxJ basis functions       .... 1267
   RIJ-COSX (HFX calculated with COS-X)).... on


General Settings:
 Integral files         IntName         .... 1_12_orca
 Hartree-Fock type      HFTyp           .... RHF
 Total Charge           Charge          ....   -1
 Multiplicity           Mult            ....    1
 Number of Electrons    NEL             ....  200
 Basis Dimension        Dim             ....  385
 Nuclear Repulsion      ENuc            ....   2504.2605627783 Eh

Convergence Acceleration:
 DIIS                   CNVDIIS         .... on
   Start iteration      DIISMaxIt       ....    12
   Startup error        DIISStart       ....  0.200000
   # of expansion vecs  DIISMaxEq       ....     5
   Bias factor          DIISBfac        ....   1.050
   Max. coefficient     DIISMaxC        ....  10.000
 Trust-Rad. Augm. Hess. CNVTRAH         .... auto
   Auto Start mean grad. ratio tolernc. ....  1.125000
   Auto Start start iteration           ....    20
   Auto Start num. interpolation iter.  ....    10
   Max. Number of Micro iterations      ....    16
   Max. Number of Macro iterations      .... Maxiter - #DIIS iter
   Number of Davidson start vectors     ....     2
   Converg. threshold I  (grad. norm)   ....   1.000e-05
   Converg. threshold II (energy diff.) ....   1.000e-08
   Grad. Scal. Fac. for Micro threshold ....   0.100
   Minimum threshold for Micro iter.    ....   0.010
   NR start threshold (gradient norm)   ....   0.001
   Initial trust radius                 ....   0.400
   Minimum AH scaling param. (alpha)    ....   1.000
   Maximum AH scaling param. (alpha)    .... 1000.000
   Orbital update algorithm             .... Taylor
   White noise on init. David. guess    .... on
   Maximum white noise                  ....   0.010
   Quad. conv. algorithm                .... NR
   COSX micro iterations for RIJONX calc.... off
 SOSCF                  CNVSOSCF        .... off
 Level Shifting         CNVShift        .... on
   Level shift para.    LevelShift      ....    0.2500
   Turn off err/grad.   ShiftErr        ....    0.0010
 Zerner damping         CNVZerner       .... off
 Static damping         CNVDamp         .... on
   Fraction old density DampFac         ....    0.7000
   Max. Damping (<1)    DampMax         ....    0.9800
   Min. Damping (>=0)   DampMin         ....    0.0000
   Turn off err/grad.   DampErr         ....    0.1000
 Fernandez-Rico         CNVRico         .... off

SCF Procedure:
 Maximum # iterations   MaxIter         ....   250
 SCF integral mode      SCFMode         .... Direct
   Integral package                     .... SHARK and LIBINT hybrid scheme
 Reset frequency        DirectResetFreq ....    20
 Integral Threshold     Thresh          ....  2.500e-11 Eh
 Primitive CutOff       TCut            ....  2.500e-12 Eh

Convergence Tolerance:
 Convergence Check Mode ConvCheckMode   .... Total+1el-Energy
 Convergence forced     ConvForced      .... 0
 Energy Change          TolE            ....  1.000e-08 Eh
 1-El. energy change                    ....  1.000e-05 Eh
 DIIS Error             TolErr          ....  5.000e-07


Diagonalization of the overlap matrix:
Smallest eigenvalue                        ... 4.467e-04
Time for diagonalization                   ...    0.057 sec
Threshold for overlap eigenvalues          ... 1.000e-08
Number of eigenvalues below threshold      ... 0
Time for construction of square roots      ...    0.035 sec
Total time needed                          ...    0.093 sec

--------------------------------
INITIAL GUESS: MINIMAL BASIS EHT
--------------------------------
The minimal basis has 147 functions
EHT matrix was diagonalized
Basis set overlap was calculated now projecting the orbitals
Using GuessMode=FMatrix for the initial guess
C*T matrix was formed
Effective Fockian was calculated
Effective Fockian was diagonalized
Initial density was built
                      ------------------
                      INITIAL GUESS DONE
                      ------------------
-------------------
DFT GRID GENERATION
-------------------

General Integration Accuracy     IntAcc      ... 4.159
Radial Grid Type                 RadialGrid  ... OptM3 with GC (2021)
Angular Grid (max. ang.)         AngularGrid ... 3 (Lebedev-194)
Angular grid pruning method      GridPruning ... 4 (adaptive)
Weight generation scheme         WeightScheme... Becke
Basis function cutoff            BFCut       ... 1.0000e-11
Integration weight cutoff        WCut        ... 1.0000e-14
Angular grids for H and He will be reduced by one unit
Partially contracted basis set               ... off
Rotationally invariant grid construction     ... off

Total number of grid points                  ...    96857
Total number of batches                      ...     1531
Average number of points per batch           ...       63
Average number of grid points per atom       ...     2549
Time for grid setup =    1.939 sec

--------------------
COSX GRID GENERATION
--------------------

GRIDX 1
-------
General Integration Accuracy     IntAcc      ... 3.816
Radial Grid Type                 RadialGrid  ... OptM3 with GC (2021)
Angular Grid (max. ang.)         AngularGrid ... 1 (Lebedev-50)
Angular grid pruning method      GridPruning ... 4 (adaptive)
Weight generation scheme         WeightScheme... Becke
Basis function cutoff            BFCut       ... 1.0000e-11
Integration weight cutoff        WCut        ... 1.0000e-14
Angular grids for H and He will be reduced by one unit
Partially contracted basis set               ... on
Rotationally invariant grid construction     ... off

Total number of grid points                  ...    23661
Total number of batches                      ...      388
Average number of points per batch           ...       60
Average number of grid points per atom       ...      623
UseSFitting                                  ... on

GRIDX 2
-------
General Integration Accuracy     IntAcc      ... 4.020
Radial Grid Type                 RadialGrid  ... OptM3 with GC (2021)
Angular Grid (max. ang.)         AngularGrid ... 2 (Lebedev-110)
Angular grid pruning method      GridPruning ... 4 (adaptive)
Weight generation scheme         WeightScheme... Becke
Basis function cutoff            BFCut       ... 1.0000e-11
Integration weight cutoff        WCut        ... 1.0000e-14
Angular grids for H and He will be reduced by one unit
Partially contracted basis set               ... on
Rotationally invariant grid construction     ... off

Total number of grid points                  ...    51329
Total number of batches                      ...      819
Average number of points per batch           ...       62
Average number of grid points per atom       ...     1351
UseSFitting                                  ... on

GRIDX 3
-------
General Integration Accuracy     IntAcc      ... 4.338
Radial Grid Type                 RadialGrid  ... OptM3 with GC (2021)
Angular Grid (max. ang.)         AngularGrid ... 3 (Lebedev-194)
Angular grid pruning method      GridPruning ... 4 (adaptive)
Weight generation scheme         WeightScheme... Becke
Basis function cutoff            BFCut       ... 1.0000e-11
Integration weight cutoff        WCut        ... 1.0000e-14
Angular grids for H and He will be reduced by one unit
Partially contracted basis set               ... on
Rotationally invariant grid construction     ... off

Total number of grid points                  ...   112110
Total number of batches                      ...     1773
Average number of points per batch           ...       63
Average number of grid points per atom       ...     2950
UseSFitting                                  ... on

Time for X-Grid setup             =    4.252 sec

--------------
SCF ITERATIONS
--------------
ITER       Energy         Delta-E        Max-DP      RMS-DP      [F,P]     Damp
               ***  Starting incremental Fock matrix formation  ***
  0  -3824.7572969551   0.000000000000 6.24447651  0.05609458  5.1575789 0.7000
  1  -3808.2609926731  16.496304282025 6.90819960  0.06245384  3.9671985 0.7000
  2  -3799.7515357716   8.509456901479 3.68751296  0.03294743  2.5346068 0.7000
  3  -3809.8963339818 -10.144798210177 4.24763780  0.03653581  1.9054657 0.7000
  4  -3809.6010985444   0.295235437404 2.59449858  0.03397148  1.2557413 0.7000
  5  -3810.8279570101  -1.226858465710 3.65265016  0.04144386  0.9835079 0.7000
  6  -3797.0423481506  13.785608859442 2.41658877  0.03273921  0.5858889 0.7000
  7  -3809.1293383792 -12.086990228540 3.90340835  0.03854326  0.5129521 0.7000
  8  -3809.6323488946  -0.503010515398 2.77866063  0.03582286  0.2697495 0.7000
  9  -3809.3981293610   0.234219533538 4.70085385  0.04777664  0.2797498 0.7000
 10  -3794.3647174835  15.033411877558 2.88752836  0.03463095  0.2776425 0.7000
 11  -3808.6039499008 -14.239232417354 3.58387084  0.03793008  0.2515453 0.7000
                               ***Turning on DIIS***
 12  -3809.1122737260  -0.508323825150 3.01960071  0.03882866  0.2446706 0.7000
 13  -3808.8038718311   0.308401894923 2.04560941  0.02653235  0.2713011 0.7000
 14  -3813.6870051132  -4.883133282151 1.46049646  0.01925005  0.3173742 0.7000
 15  -3818.3752525085  -4.688247395272 1.07550567  0.01373732  0.3902851 0.7000
 16  -3823.2826976027  -4.907445094171 0.78942913  0.00992811  0.4393366 0.7000
 17  -3828.1135228955  -4.830825292845 4.78219674  0.04646743  0.4637211 0.7000
 18  -3813.4566609763  14.656861919216 1.84188101  0.01848036  0.3630978 0.7000
 19  -3826.8571953301 -13.400534353798 1.39426823  0.01443059  0.2920209 0.7000
               *** Restarting incremental Fock matrix formation ***
                                   *** Resetting DIIS ***

 WARNING: the maximum gradient error descreased on average only by a factor   1.0
          during the last 20 iterations

                      *** Initiating the TRAH-SCF procedure ***


TRAH GRIDX
----------

General Integration Accuracy     IntAcc      ... 3.067
Radial Grid Type                 RadialGrid  ... OptM3 with GC (2021)
Angular Grid (max. ang.)         AngularGrid ... 1 (Lebedev-50)
Angular grid pruning method      GridPruning ... 4 (adaptive)
Weight generation scheme         WeightScheme... Becke
Basis function cutoff            BFCut       ... 1.0000e-11
Integration weight cutoff        WCut        ... 1.0000e-14
Angular grids for H and He will be reduced by one unit
Partially contracted basis set               ... on
Rotationally invariant grid construction     ... off

Total number of grid points                  ...    12935
Total number of batches                      ...      223
Average number of points per batch           ...       58
Average number of grid points per atom       ...      340


TRAH GRID
---------

General Integration Accuracy     IntAcc      ... 3.467
Radial Grid Type                 RadialGrid  ... OptM3 with GC (2021)
Angular Grid (max. ang.)         AngularGrid ... 1 (Lebedev-50)
Angular grid pruning method      GridPruning ... 4 (adaptive)
Weight generation scheme         WeightScheme... Becke
Basis function cutoff            BFCut       ... 1.0000e-11
Integration weight cutoff        WCut        ... 1.0000e-14
Angular grids for H and He will be reduced by one unit
Partially contracted basis set               ... off
Rotationally invariant grid construction     ... off

Total number of grid points                  ...    32915
Total number of batches                      ...      533
Average number of points per batch           ...       61
Average number of grid points per atom       ...      866

 --------------------------------------------------------------------------------------------
   Iter.        energy            ||Error||_2        Shift      TRadius  Mac/Mic        Rej.
 --------------------------------------------------------------------------------------------
WARNING: 1783 diagonal Hessian elements are negative!
    0      -3840.498330728334     7.006742e+00                     0.400 (TRAH MAcro)   No
WARNING : negative HOMO - LUMO gap : -2.933490
    0     dE    -2.150858e+00     4.067680e+00    -1.0586e+01      0.387 (TRAH MIcro)
    0     dE    -2.360103e+00     2.402052e+00    -1.3626e+01      0.400 (TRAH MIcro)
    0     dE    -1.912776e+00     1.559456e+00    -1.7862e+01      0.315 (TRAH MIcro)
    0     dE    -1.933730e+00     1.130542e+00    -1.7935e+01      0.318 (TRAH MIcro)
    0     dE    -1.930753e+00     3.198403e-01    -1.8027e+01      0.315 (TRAH MIcro)
    0     dE    -1.925979e+00     9.839923e-02    -1.8042e+01      0.314 (TRAH MIcro)
    0     dE    -1.925408e+00     6.180979e-02    -1.8044e+01      0.314 (TRAH MIcro)
    0     dE    -1.925357e+00     5.074782e-02    -1.8044e+01      0.314 (TRAH MIcro)
    0     dE    -1.925332e+00     2.484114e-02    -1.8044e+01      0.314 (TRAH MIcro)
    0     dE    -1.925333e+00     8.370253e-03    -1.8044e+01      0.314 (TRAH MIcro)
WARNING: 1358 diagonal Hessian elements are negative!
    1      -3842.393378870802     5.385177e+00                     0.480 (TRAH MAcro)   No
WARNING : negative HOMO - LUMO gap : -2.311130
    1     dE    -1.994621e+00     4.192494e+00    -6.1066e+00      0.480 (TRAH MIcro)
    1     dE    -1.780065e+00     7.002264e-01    -1.4690e+01      0.357 (TRAH MIcro)
    1     dE    -1.820390e+00     5.614095e-01    -1.4736e+01      0.364 (TRAH MIcro)
    1     dE    -1.823928e+00     3.591669e-01    -1.4757e+01      0.364 (TRAH MIcro)
    1     dE    -1.818248e+00     1.154802e-01    -1.4775e+01      0.362 (TRAH MIcro)
    1     dE    -1.816616e+00     3.899496e-02    -1.4778e+01      0.362 (TRAH MIcro)
    1     dE    -1.816382e+00     3.004000e-02    -1.4778e+01      0.362 (TRAH MIcro)
    1     dE    -1.816375e+00     2.033617e-02    -1.4778e+01      0.362 (TRAH MIcro)
    1     dE    -1.816403e+00     6.305785e-03    -1.4778e+01      0.362 (TRAH MIcro)
WARNING: 858 diagonal Hessian elements are negative!
    2      -3844.108429692518     4.528850e+00                     0.576 (TRAH MAcro)   No
WARNING : negative HOMO - LUMO gap : -1.516575
    2     dE    -2.036184e+00     3.491252e+00    -4.4138e+00      0.576 (TRAH MIcro)
    2     dE    -2.430390e+00     7.771340e-01    -8.5355e+00      0.560 (TRAH MIcro)
    2     dE    -2.467389e+00     4.934872e-01    -8.5760e+00      0.565 (TRAH MIcro)
    2     dE    -2.500468e+00     2.350230e-01    -8.5985e+00      0.570 (TRAH MIcro)
    2     dE    -2.492976e+00     1.362866e-01    -8.6038e+00      0.569 (TRAH MIcro)
    2     dE    -2.485430e+00     5.993618e-02    -8.6052e+00      0.567 (TRAH MIcro)
    2     dE    -2.483840e+00     2.588888e-02    -8.6056e+00      0.567 (TRAH MIcro)
    2     dE    -2.483578e+00     1.628650e-02    -8.6056e+00      0.567 (TRAH MIcro)
    2     dE    -2.483576e+00     7.964010e-03    -8.6056e+00      0.567 (TRAH MIcro)
WARNING: 211 diagonal Hessian elements are negative!
    3      -3846.149716069283     2.780631e+00                     0.691 (TRAH MAcro)   No
WARNING : negative HOMO - LUMO gap : -0.695782
    3     dE    -7.993215e-01     2.908304e+00    -1.3086e+00      0.471 (TRAH MIcro)
    3     dE    -1.473168e+00     1.001472e+00    -3.3065e+00      0.691 (TRAH MIcro)
    3     dE    -1.506464e+00     2.557372e-01    -3.5982e+00      0.691 (TRAH MIcro)
    3     dE    -1.510529e+00     7.880833e-02    -3.6482e+00      0.691 (TRAH MIcro)
    3     dE    -1.510919e+00     3.417796e-02    -3.6510e+00      0.691 (TRAH MIcro)
    3     dE    -1.510985e+00     1.062752e-02    -3.6504e+00      0.691 (TRAH MIcro)
    3     dE    -1.510994e+00     3.268445e-03    -3.6503e+00      0.691 (TRAH MIcro)
    4      -3847.263381941835     1.266479e+00                     0.691 (TRAH MAcro)   No
    4     dE    -2.362860e-01     1.513904e+00    -4.2478e-01      0.335 (TRAH MIcro)
    4     dE    -3.363638e-01     9.001919e-01    -5.4765e-01      0.478 (TRAH MIcro)
    4     dE    -4.090689e-01     1.819571e-01    -6.0958e-01      0.585 (TRAH MIcro)
    4     dE    -4.139263e-01     5.903000e-02    -6.1277e-01      0.592 (TRAH MIcro)
    4     dE    -4.149511e-01     2.241887e-02    -6.1303e-01      0.595 (TRAH MIcro)
    4     dE    -4.152417e-01     5.561930e-03    -6.1306e-01      0.596 (TRAH MIcro)
    5      -3847.647367351911     4.360628e-01                     0.829 (TRAH MAcro)   No
    5     dE    -1.914694e-02     8.379154e-01    -3.8005e-02      0.087 (TRAH MIcro)
    5     dE    -3.875804e-02     2.957406e-01    -7.4340e-02      0.207 (TRAH MIcro)
    5     dE    -4.105582e-02     6.269564e-02    -7.8250e-02      0.222 (TRAH MIcro)
    5     dE    -4.146563e-02     4.089252e-02    -7.8881e-02      0.227 (TRAH MIcro)
    5     dE    -4.154784e-02     1.861869e-02    -7.8980e-02      0.228 (TRAH MIcro)
    5     dE    -4.156034e-02     4.106402e-03    -7.8992e-02      0.229 (TRAH MIcro)
    6      -3847.691746705801     9.313544e-02                     0.995 (TRAH MAcro)   No
    6     dE    -6.458631e-04     6.653894e-01    -1.2915e-03      0.014 (TRAH MIcro)
    6     dE    -1.852842e-03     2.777366e-02    -3.6956e-03      0.052 (TRAH MIcro)
    6     dE    -1.891244e-03     4.119709e-02    -3.7714e-03      0.054 (TRAH MIcro)
    6     dE    -1.898822e-03     6.309802e-03    -3.7860e-03      0.055 (TRAH MIcro)
    7      -3847.693718828125     9.430651e-03                     1.194 (TRAH MAcro)   No
    7     dE    -7.307152e-08     1.389523e-02    -1.4838e-07      0.000 (TRAH MIcro)
    7     dE    -7.581788e-06     4.498908e-03    -1.5163e-05      0.002 (TRAH MIcro)
    7     dE    -1.004292e-05     2.271359e-03    -2.0086e-05      0.004 (TRAH MIcro)
    7     dE    -1.045283e-05     5.179036e-04    -2.0905e-05      0.004 (TRAH MIcro)
    8      -3847.693729363116     5.140109e-04                           (NR   MAcro)
    8     dE    -2.445658e-08     2.483023e-04                           (NR   MIcro)
    8     dE    -3.705503e-08     1.574197e-04                           (NR   MIcro)
    8     dE    -3.890116e-08     7.143551e-05                           (NR   MIcro)
    8     dE    -3.934465e-08     2.748548e-05                           (NR   MIcro)
    8     dE    -3.942358e-08     1.499014e-05                           (NR   MIcro)
    8     dE    -3.944624e-08     6.906383e-06                           (NR   MIcro)
    8     dE    -3.945059e-08     3.241403e-06                           (NR   MIcro)
    8     dE    -3.945142e-08     1.047104e-06                           (NR   MIcro)
    9      -3847.693729394929     1.361906e-06                           (NR   MAcro)
    9     dE    -1.371684e-13     6.152674e-07                           (NR   MIcro)
   10      -3847.693729394941     6.150881e-07                           (NR   MAcro)

               *****************************************************
               *                     SUCCESS                       *
               *           SCF CONVERGED AFTER  95 CYCLES          *
               *****************************************************

Old exchange energy                            =    -97.771372870 Eh
New exchange energy                            =    -97.771215632 Eh
Exchange energy change after final integration =      0.000157238 Eh
Total energy after final integration           =  -3847.693572157 Eh
Final COS-X integration done in                =    47.874 sec

----------------
TOTAL SCF ENERGY
----------------

Total Energy       :        -3847.69357216 Eh         -104701.06500 eV

Components:
Nuclear Repulsion  :         2504.26056278 Eh           68144.39431 eV
Electronic Energy  :        -6351.95413494 Eh         -172845.45930 eV
One Electron Energy:       -10393.11125390 Eh         -282810.93505 eV
Two Electron Energy:         4041.15711896 Eh          109965.47574 eV
Max COSX asymmetry :            0.00002300 Eh               0.00063 eV

Virial components:
Potential Energy   :        -7606.97026472 Eh         -206996.18439 eV
Kinetic Energy     :         3759.27669256 Eh          102295.11939 eV
Virial Ratio       :            2.02351965


DFT components:
N(Alpha)           :      100.000308553105 electrons
N(Beta)            :      100.000308553105 electrons
N(Total)           :      200.000617106211 electrons
E(X)               :     -130.860689465830 Eh       
E(C)               :       -9.706713746369 Eh       
E(XC)              :     -140.567403212199 Eh       
DFET-embed. en.    :        0.000000000000 Eh       

---------------
SCF CONVERGENCE
---------------

  Last Energy change         ...   -1.2733e-11  Tolerance :   1.0000e-08
  Last Orbital Gradient      ...    6.1509e-07  Tolerance :   1.0000e-05
  Last Orbital Rotation      ...    2.7023e-07

             **** THE GBW FILE WAS UPDATED (1_12_orca.gbw) ****
             **** DENSITY 1_12_orca.scfp WAS UPDATED ****
             **** ENERGY FILE WAS UPDATED (1_12_orca.en.tmp) ****
             **** THE GBW FILE WAS UPDATED (1_12_orca.gbw) ****
             **** DENSITY 1_12_orca.scfp WAS UPDATED ****
----------------
ORBITAL ENERGIES
----------------

  NO   OCC          E(Eh)            E(eV) 
   0   2.0000    -484.321196    -13179.0498 
   1   2.0000     -77.679048     -2113.7544 
   2   2.0000     -62.982949     -1713.8532 
   3   2.0000     -56.686638     -1542.5218 
   4   2.0000     -56.685617     -1542.4941 
   5   2.0000     -56.685504     -1542.4910 
   6   2.0000     -19.363185      -526.8990 
   7   2.0000     -19.313344      -525.5428 
   8   2.0000     -19.289816      -524.9026 
   9   2.0000     -10.427537      -283.7477 
  10   2.0000     -10.376015      -282.3457 
  11   2.0000     -10.359668      -281.9009 
  12   2.0000     -10.351853      -281.6882 
  13   2.0000     -10.351290      -281.6729 
  14   2.0000     -10.348367      -281.5934 
  15   2.0000     -10.347448      -281.5684 
  16   2.0000     -10.346634      -281.5462 
  17   2.0000     -10.346355      -281.5386 
  18   2.0000     -10.345686      -281.5204 
  19   2.0000     -10.345075      -281.5038 
  20   2.0000     -10.345065      -281.5035 
  21   2.0000     -10.343163      -281.4518 
  22   2.0000     -10.341242      -281.3995 
  23   2.0000     -10.331453      -281.1331 
  24   2.0000      -8.810246      -239.7390 
  25   2.0000      -6.754684      -183.8043 
  26   2.0000      -6.579976      -179.0502 
  27   2.0000      -6.575116      -178.9180 
  28   2.0000      -6.574256      -178.8946 
  29   2.0000      -4.845748      -131.8595 
  30   2.0000      -4.845560      -131.8544 
  31   2.0000      -4.844169      -131.8166 
  32   2.0000      -3.525490       -95.9335 
  33   2.0000      -2.593971       -70.5855 
  34   2.0000      -2.592868       -70.5555 
  35   2.0000      -2.592129       -70.5354 
  36   2.0000      -2.587939       -70.4214 
  37   2.0000      -2.587894       -70.4202 
  38   2.0000      -2.171876       -59.0998 
  39   2.0000      -2.167767       -58.9879 
  40   2.0000      -2.140128       -58.2358 
  41   2.0000      -1.081887       -29.4397 
  42   2.0000      -0.979734       -26.6599 
  43   2.0000      -0.897197       -24.4140 
  44   2.0000      -0.857050       -23.3215 
  45   2.0000      -0.845789       -23.0151 
  46   2.0000      -0.789166       -21.4743 
  47   2.0000      -0.747154       -20.3311 
  48   2.0000      -0.738624       -20.0990 
  49   2.0000      -0.720471       -19.6050 
  50   2.0000      -0.688433       -18.7332 
  51   2.0000      -0.660748       -17.9799 
  52   2.0000      -0.628736       -17.1088 
  53   2.0000      -0.625618       -17.0239 
  54   2.0000      -0.570792       -15.5320 
  55   2.0000      -0.564477       -15.3602 
  56   2.0000      -0.552707       -15.0399 
  57   2.0000      -0.539155       -14.6711 
  58   2.0000      -0.511366       -13.9150 
  59   2.0000      -0.479277       -13.0418 
  60   2.0000      -0.463353       -12.6085 
  61   2.0000      -0.438998       -11.9457 
  62   2.0000      -0.422307       -11.4916 
  63   2.0000      -0.411213       -11.1897 
  64   2.0000      -0.402991       -10.9659 
  65   2.0000      -0.398410       -10.8413 
  66   2.0000      -0.386028       -10.5044 
  67   2.0000      -0.383053       -10.4234 
  68   2.0000      -0.381201       -10.3730 
  69   2.0000      -0.380481       -10.3534 
  70   2.0000      -0.376768       -10.2524 
  71   2.0000      -0.370446       -10.0803 
  72   2.0000      -0.370071       -10.0702 
  73   2.0000      -0.356634        -9.7045 
  74   2.0000      -0.347599        -9.4587 
  75   2.0000      -0.332814        -9.0563 
  76   2.0000      -0.328098        -8.9280 
  77   2.0000      -0.322067        -8.7639 
  78   2.0000      -0.315849        -8.5947 
  79   2.0000      -0.311614        -8.4794 
  80   2.0000      -0.297954        -8.1077 
  81   2.0000      -0.295276        -8.0349 
  82   2.0000      -0.279155        -7.5962 
  83   2.0000      -0.271852        -7.3975 
  84   2.0000      -0.255984        -6.9657 
  85   2.0000      -0.251939        -6.8556 
  86   2.0000      -0.236396        -6.4327 
  87   2.0000      -0.226301        -6.1580 
  88   2.0000      -0.221664        -6.0318 
  89   2.0000      -0.201574        -5.4851 
  90   2.0000      -0.190035        -5.1711 
  91   2.0000      -0.185214        -5.0399 
  92   2.0000      -0.178435        -4.8555 
  93   2.0000      -0.173297        -4.7157 
  94   2.0000      -0.168799        -4.5932 
  95   2.0000      -0.156591        -4.2610 
  96   2.0000      -0.154070        -4.1925 
  97   2.0000      -0.149156        -4.0587 
  98   2.0000      -0.143463        -3.9038 
  99   2.0000      -0.128963        -3.5092 
 100   0.0000       0.066817         1.8182 
 101   0.0000       0.099290         2.7018 
 102   0.0000       0.120887         3.2895 
 103   0.0000       0.122171         3.3244 
 104   0.0000       0.128012         3.4834 
 105   0.0000       0.156407         4.2561 
 106   0.0000       0.161037         4.3820 
 107   0.0000       0.192052         5.2260 
 108   0.0000       0.200755         5.4628 
 109   0.0000       0.215171         5.8551 
 110   0.0000       0.226299         6.1579 
 111   0.0000       0.227752         6.1974 
 112   0.0000       0.239069         6.5054 
 113   0.0000       0.255816         6.9611 
 114   0.0000       0.265255         7.2179 
 115   0.0000       0.273637         7.4461 
 116   0.0000       0.283542         7.7156 
 117   0.0000       0.290889         7.9155 
 118   0.0000       0.293067         7.9748 
 119   0.0000       0.299679         8.1547 
 120   0.0000       0.303786         8.2664 
 121   0.0000       0.309135         8.4120 
 122   0.0000       0.314118         8.5476 
 123   0.0000       0.318900         8.6777 
 124   0.0000       0.323634         8.8065 
 125   0.0000       0.335718         9.1354 
 126   0.0000       0.345845         9.4109 
 127   0.0000       0.355041         9.6612 
 128   0.0000       0.362875         9.8743 
 129   0.0000       0.369357        10.0507 
 130   0.0000       0.373190        10.1550 
 131   0.0000       0.388733        10.5780 
 132   0.0000       0.396736        10.7957 
 133   0.0000       0.411695        11.2028 
 134   0.0000       0.422715        11.5027 
 135   0.0000       0.426816        11.6143 
 136   0.0000       0.430334        11.7100 
 137   0.0000       0.446351        12.1458 
 138   0.0000       0.453795        12.3484 
 139   0.0000       0.464169        12.6307 
 140   0.0000       0.471611        12.8332 
 141   0.0000       0.488707        13.2984 
 142   0.0000       0.491819        13.3831 
 143   0.0000       0.494643        13.4599 
 144   0.0000       0.535378        14.5684 
 145   0.0000       0.540767        14.7150 
 146   0.0000       0.562253        15.2997 
 147   0.0000       0.569490        15.4966 
 148   0.0000       0.579835        15.7781 
 149   0.0000       0.583546        15.8791 
 150   0.0000       0.586002        15.9459 
 151   0.0000       0.599645        16.3172 
 152   0.0000       0.603432        16.4202 
 153   0.0000       0.617674        16.8078 
 154   0.0000       0.623544        16.9675 
 155   0.0000       0.627714        17.0810 
 156   0.0000       0.642077        17.4718 
 157   0.0000       0.644909        17.5489 
 158   0.0000       0.646570        17.5941 
 159   0.0000       0.653428        17.7807 
 160   0.0000       0.659665        17.9504 
 161   0.0000       0.676061        18.3965 
 162   0.0000       0.677812        18.4442 
 163   0.0000       0.686762        18.6877 
 164   0.0000       0.695386        18.9224 
 165   0.0000       0.697084        18.9686 
 166   0.0000       0.702337        19.1116 
 167   0.0000       0.706859        19.2346 
 168   0.0000       0.716748        19.5037 
 169   0.0000       0.719268        19.5723 
 170   0.0000       0.722714        19.6661 
 171   0.0000       0.727571        19.7982 
 172   0.0000       0.733535        19.9605 
 173   0.0000       0.740026        20.1371 
 174   0.0000       0.744840        20.2681 
 175   0.0000       0.747406        20.3379 
 176   0.0000       0.753350        20.4997 
 177   0.0000       0.759076        20.6555 
 178   0.0000       0.765267        20.8240 
 179   0.0000       0.766972        20.8704 
 180   0.0000       0.770642        20.9702 
 181   0.0000       0.777236        21.1497 
 182   0.0000       0.786169        21.3928 
 183   0.0000       0.791450        21.5365 
 184   0.0000       0.799734        21.7619 
 185   0.0000       0.806112        21.9354 
 186   0.0000       0.818903        22.2835 
 187   0.0000       0.822566        22.3832 
 188   0.0000       0.824310        22.4306 
 189   0.0000       0.839589        22.8464 
 190   0.0000       0.853168        23.2159 
 191   0.0000       0.855112        23.2688 
 192   0.0000       0.878010        23.8919 
 193   0.0000       0.882472        24.0133 
 194   0.0000       0.896594        24.3976 
 195   0.0000       0.901036        24.5184 
 196   0.0000       0.908581        24.7238 
 197   0.0000       0.921968        25.0880 
 198   0.0000       0.926753        25.2182 
 199   0.0000       0.940857        25.6020 
 200   0.0000       0.945411        25.7259 
 201   0.0000       0.956924        26.0392 
 202   0.0000       0.967978        26.3400 
 203   0.0000       0.985364        26.8131 
 204   0.0000       1.006573        27.3903 
 205   0.0000       1.018903        27.7258 
 206   0.0000       1.021884        27.8069 
 207   0.0000       1.037044        28.2194 
 208   0.0000       1.041216        28.3329 
 209   0.0000       1.052193        28.6316 
 210   0.0000       1.054690        28.6996 
 211   0.0000       1.061501        28.8849 
 212   0.0000       1.066077        29.0094 
 213   0.0000       1.070702        29.1353 
 214   0.0000       1.080771        29.4093 
 215   0.0000       1.089794        29.6548 
 216   0.0000       1.098389        29.8887 
 217   0.0000       1.099418        29.9167 
 218   0.0000       1.115547        30.3556 
 219   0.0000       1.122245        30.5378 
 220   0.0000       1.131328        30.7850 
 221   0.0000       1.134333        30.8668 
 222   0.0000       1.146716        31.2037 
 223   0.0000       1.156245        31.4630 
 224   0.0000       1.162244        31.6263 
 225   0.0000       1.169288        31.8179 
 226   0.0000       1.176299        32.0087 
 227   0.0000       1.189834        32.3770 
 228   0.0000       1.195636        32.5349 
 229   0.0000       1.205249        32.7965 
 230   0.0000       1.212330        32.9892 
 231   0.0000       1.220061        33.1995 
 232   0.0000       1.225874        33.3577 
 233   0.0000       1.233495        33.5651 
 234   0.0000       1.241630        33.7865 
 235   0.0000       1.259257        34.2661 
 236   0.0000       1.265897        34.4468 
 237   0.0000       1.286701        35.0129 
 238   0.0000       1.287481        35.0342 
 239   0.0000       1.295838        35.2615 
 240   0.0000       1.306902        35.5626 
 241   0.0000       1.325668        36.0732 
 242   0.0000       1.330617        36.2079 
 243   0.0000       1.336091        36.3569 
 244   0.0000       1.356154        36.9028 
 245   0.0000       1.362783        37.0832 
 246   0.0000       1.377860        37.4935 
 247   0.0000       1.387509        37.7560 
 248   0.0000       1.402185        38.1554 
 249   0.0000       1.409324        38.3497 
 250   0.0000       1.429999        38.9122 
 251   0.0000       1.442084        39.2411 
 252   0.0000       1.452911        39.5357 
 253   0.0000       1.460124        39.7320 
 254   0.0000       1.475740        40.1569 
 255   0.0000       1.505912        40.9779 
 256   0.0000       1.520189        41.3665 
 257   0.0000       1.554115        42.2896 
 258   0.0000       1.559609        42.4391 
 259   0.0000       1.563223        42.5375 
 260   0.0000       1.576863        42.9086 
 261   0.0000       1.614294        43.9272 
 262   0.0000       1.623017        44.1645 
 263   0.0000       1.644471        44.7483 
 264   0.0000       1.664712        45.2991 
 265   0.0000       1.678763        45.6815 
 266   0.0000       1.682321        45.7783 
 267   0.0000       1.698987        46.2318 
 268   0.0000       1.724966        46.9387 
 269   0.0000       1.735217        47.2177 
 270   0.0000       1.749420        47.6041 
 271   0.0000       1.759259        47.8719 
 272   0.0000       1.782785        48.5120 
 273   0.0000       1.796332        48.8807 
 274   0.0000       1.820734        49.5447 
 275   0.0000       1.832656        49.8691 
 276   0.0000       1.896046        51.5940 
 277   0.0000       1.941428        52.8289 
 278   0.0000       1.951700        53.1085 
 279   0.0000       1.960786        53.3557 
 280   0.0000       1.964854        53.4664 
 281   0.0000       1.994169        54.2641 
 282   0.0000       2.018009        54.9128 
 283   0.0000       2.031169        55.2709 
 284   0.0000       2.034253        55.3548 
 285   0.0000       2.042945        55.5914 
 286   0.0000       2.068005        56.2733 
 287   0.0000       2.071151        56.3589 
 288   0.0000       2.095739        57.0280 
 289   0.0000       2.104940        57.2783 
 290   0.0000       2.110045        57.4172 
 291   0.0000       2.126929        57.8767 
 292   0.0000       2.147531        58.4373 
 293   0.0000       2.156338        58.6769 
 294   0.0000       2.159962        58.7756 
 295   0.0000       2.165670        58.9309 
 296   0.0000       2.180276        59.3283 
 297   0.0000       2.203943        59.9723 
 298   0.0000       2.215353        60.2828 
 299   0.0000       2.235887        60.8416 
 300   0.0000       2.243369        61.0452 
 301   0.0000       2.258481        61.4564 
 302   0.0000       2.270469        61.7826 
 303   0.0000       2.288261        62.2668 
 304   0.0000       2.304274        62.7025 
 305   0.0000       2.306694        62.7683 
 306   0.0000       2.314559        62.9824 
 307   0.0000       2.325673        63.2848 
 308   0.0000       2.345385        63.8212 
 309   0.0000       2.368111        64.4396 
 310   0.0000       2.383971        64.8711 
 311   0.0000       2.389284        65.0157 
 312   0.0000       2.402248        65.3685 
 313   0.0000       2.430531        66.1381 
 314   0.0000       2.442894        66.4745 
 315   0.0000       2.455580        66.8197 
 316   0.0000       2.461892        66.9915 
 317   0.0000       2.473585        67.3097 
 318   0.0000       2.499680        68.0198 
 319   0.0000       2.517338        68.5002 
 320   0.0000       2.540951        69.1428 
 321   0.0000       2.544039        69.2268 
 322   0.0000       2.569178        69.9109 
 323   0.0000       2.587851        70.4190 
 324   0.0000       2.589319        70.4589 
 325   0.0000       2.592540        70.5466 
 326   0.0000       2.613317        71.1120 
 327   0.0000       2.622661        71.3662 
 328   0.0000       2.632133        71.6240 
 329   0.0000       2.645223        71.9802 
 330   0.0000       2.654603        72.2354 
 331   0.0000       2.682594        72.9971 
 332   0.0000       2.713540        73.8392 
 333   0.0000       2.737629        74.4947 
 334   0.0000       2.765506        75.2532 
 335   0.0000       2.770942        75.4012 
 336   0.0000       2.777446        75.5782 
 337   0.0000       2.796439        76.0950 
 338   0.0000       2.804362        76.3106 
 339   0.0000       2.821841        76.7862 
 340   0.0000       2.842132        77.3384 
 341   0.0000       2.861950        77.8776 
 342   0.0000       2.891917        78.6931 
 343   0.0000       2.895856        78.8003 
 344   0.0000       2.909531        79.1724 
 345   0.0000       2.925015        79.5937 
 346   0.0000       2.926864        79.6440 
 347   0.0000       2.935528        79.8798 
 348   0.0000       2.942876        80.0797 
 349   0.0000       2.951730        80.3207 
 350   0.0000       2.998421        81.5912 
 351   0.0000       3.014916        82.0400 
 352   0.0000       3.031745        82.4980 
 353   0.0000       3.111360        84.6644 
 354   0.0000       3.198326        87.0309 
 355   0.0000       3.211619        87.3926 
 356   0.0000       3.234893        88.0259 
 357   0.0000       3.353114        91.2429 
 358   0.0000       3.461795        94.2002 
 359   0.0000       3.491512        95.0089 
 360   0.0000       3.529417        96.0403 
 361   0.0000       3.745626       101.9237 
 362   0.0000       3.753568       102.1398 
 363   0.0000       3.802344       103.4670 
 364   0.0000       3.835269       104.3630 
 365   0.0000       4.028284       109.6152 
 366   0.0000      13.346629       363.1802 
 367   0.0000      13.400930       364.6578 
 368   0.0000      13.706001       372.9593 
 369   0.0000      13.766070       374.5938 
 370   0.0000      13.804347       375.6354 
 371   0.0000      13.822693       376.1346 
 372   0.0000      13.989482       380.6732 
 373   0.0000      14.142940       384.8490 
 374   0.0000      14.168064       385.5326 
 375   0.0000      14.211611       386.7176 
 376   0.0000      14.235586       387.3700 
 377   0.0000      14.261831       388.0841 
 378   0.0000      14.287390       388.7797 
 379   0.0000      14.562967       396.2785 
 380   0.0000      14.610685       397.5770 
 381   0.0000      25.700162       699.3370 
 382   0.0000      25.871775       704.0068 
 383   0.0000      25.985472       707.1006 
 384   0.0000      51.715449      1407.2489 

                    ********************************
                    * MULLIKEN POPULATION ANALYSIS *
                    ********************************

-----------------------
MULLIKEN ATOMIC CHARGES
-----------------------
   0 C :   -0.267140
   1 C :    0.074342
   2 C :   -0.215034
   3 C :   -0.241786
   4 C :   -0.198807
   5 C :   -0.259947
   6 H :    0.296984
   7 H :    0.239944
   8 H :    0.183376
   9 H :    0.199742
  10 H :    0.193678
  11 C :   -0.484381
  12 C :   -0.511904
  13 H :    0.214560
  14 H :    0.279342
  15 C :    0.054924
  16 H :    0.265366
  17 H :    0.204662
  18 C :   -0.139000
  19 C :   -0.274034
  20 C :   -0.234062
  21 C :   -0.271280
  22 C :   -0.219628
  23 H :    0.258900
  24 H :    0.188764
  25 H :    0.177304
  26 H :    0.183918
  27 Pd:    0.156754
  28 Br:   -0.487232
  29 P :   -0.125753
  30 H :    0.125738
  31 C :    0.640414
  32 O :   -0.441805
  33 O :   -0.586532
  34 O :   -0.614458
  35 H :    0.090658
  36 H :    0.149722
  37 H :    0.393691
Sum of atomic charges:   -1.0000000

--------------------------------
MULLIKEN REDUCED ORBITAL CHARGES
--------------------------------
  0 C s       :     3.320728  s :     3.320728
      pz      :     1.013799  p :     2.908850
      px      :     0.954157
      py      :     0.940894
      dz2     :     0.006360  d :     0.037562
      dxz     :     0.008146
      dyz     :     0.006993
      dx2y2   :     0.008608
      dxy     :     0.007455
  1 C s       :     3.210986  s :     3.210986
      pz      :     0.918205  p :     2.672083
      px      :     0.880546
      py      :     0.873332
      dz2     :     0.006006  d :     0.042590
      dxz     :     0.009735
      dyz     :     0.005557
      dx2y2   :     0.009791
      dxy     :     0.011501
  2 C s       :     3.233209  s :     3.233209
      pz      :     0.968372  p :     2.940367
      px      :     0.936469
      py      :     1.035526
      dz2     :     0.004605  d :     0.041457
      dxz     :     0.007812
      dyz     :     0.004509
      dx2y2   :     0.012522
      dxy     :     0.012009
  3 C s       :     3.247261  s :     3.247261
      pz      :     0.993669  p :     2.954358
      px      :     1.027108
      py      :     0.933581
      dz2     :     0.005785  d :     0.040167
      dxz     :     0.004794
      dyz     :     0.006252
      dx2y2   :     0.013311
      dxy     :     0.010026
  4 C s       :     3.220821  s :     3.220821
      pz      :     1.003425  p :     2.936373
      px      :     0.948466
      py      :     0.984481
      dz2     :     0.004169  d :     0.041613
      dxz     :     0.007396
      dyz     :     0.005595
      dx2y2   :     0.010450
      dxy     :     0.014003
  5 C s       :     3.232869  s :     3.232869
      pz      :     1.040667  p :     2.986445
      px      :     0.922193
      py      :     1.023585
      dz2     :     0.004432  d :     0.040633
      dxz     :     0.009177
      dyz     :     0.004721
      dx2y2   :     0.011108
      dxy     :     0.011196
  6 H s       :     0.703016  s :     0.703016
  7 H s       :     0.760056  s :     0.760056
  8 H s       :     0.816624  s :     0.816624
  9 H s       :     0.800258  s :     0.800258
 10 H s       :     0.806322  s :     0.806322
 11 C s       :     3.355192  s :     3.355192
      pz      :     1.154038  p :     3.085910
      px      :     0.892148
      py      :     1.039724
      dz2     :     0.007919  d :     0.043278
      dxz     :     0.005691
      dyz     :     0.011637
      dx2y2   :     0.010036
      dxy     :     0.007995
 12 C s       :     3.387002  s :     3.387002
      pz      :     1.022686  p :     3.082928
      px      :     0.950961
      py      :     1.109280
      dz2     :     0.010713  d :     0.041974
      dxz     :     0.010298
      dyz     :     0.003437
      dx2y2   :     0.008305
      dxy     :     0.009221
 13 H s       :     0.785440  s :     0.785440
 14 H s       :     0.720658  s :     0.720658
 15 C s       :     3.190675  s :     3.190675
      pz      :     0.882525  p :     2.708928
      px      :     0.910221
      py      :     0.916183
      dz2     :     0.010249  d :     0.045472
      dxz     :     0.012440
      dyz     :     0.007144
      dx2y2   :     0.007709
      dxy     :     0.007930
 16 H s       :     0.734634  s :     0.734634
 17 H s       :     0.795338  s :     0.795338
 18 C s       :     3.306032  s :     3.306032
      pz      :     0.863958  p :     2.794232
      px      :     0.986615
      py      :     0.943660
      dz2     :     0.008282  d :     0.038736
      dxz     :     0.009429
      dyz     :     0.009098
      dx2y2   :     0.007545
      dxy     :     0.004382
 19 C s       :     3.275639  s :     3.275639
      pz      :     1.068642  p :     2.958296
      px      :     0.920998
      py      :     0.968655
      dz2     :     0.009308  d :     0.040099
      dxz     :     0.007377
      dyz     :     0.008746
      dx2y2   :     0.007191
      dxy     :     0.007478
 20 C s       :     3.244371  s :     3.244371
      pz      :     0.970379  p :     2.949690
      px      :     1.008079
      py      :     0.971231
      dz2     :     0.008030  d :     0.040002
      dxz     :     0.011831
      dyz     :     0.007672
      dx2y2   :     0.006837
      dxy     :     0.005633
 21 C s       :     3.262730  s :     3.262730
      pz      :     1.017307  p :     2.968796
      px      :     0.949473
      py      :     1.002016
      dz2     :     0.010243  d :     0.039754
      dxz     :     0.008373
      dyz     :     0.007726
      dx2y2   :     0.007096
      dxy     :     0.006315
 22 C s       :     3.234371  s :     3.234371
      pz      :     0.930816  p :     2.945033
      px      :     0.998946
      py      :     1.015272
      dz2     :     0.010728  d :     0.040224
      dxz     :     0.009079
      dyz     :     0.008679
      dx2y2   :     0.003563
      dxy     :     0.008174
 23 H s       :     0.741100  s :     0.741100
 24 H s       :     0.811236  s :     0.811236
 25 H s       :     0.822696  s :     0.822696
 26 H s       :     0.816082  s :     0.816082
 27 Pds       :     2.489044  s :     2.489044
      pz      :     2.165055  p :     6.393361
      px      :     2.114354
      py      :     2.113953
      dz2     :     1.776489  d :     8.958083
      dxz     :     1.943429
      dyz     :     1.841982
      dx2y2   :     1.949890
      dxy     :     1.446293
      f0      :     0.000416  f :     0.002758
      f+1     :     0.000416
      f-1     :     0.000353
      f+2     :     0.000131
      f-2     :     0.000629
      f+3     :     0.000492
      f-3     :     0.000321
 28 Brs       :     7.951849  s :     7.951849
      pz      :     5.943343  p :    17.524083
      px      :     5.786205
      py      :     5.794535
      dz2     :     2.001862  d :    10.011301
      dxz     :     2.001350
      dyz     :     2.001661
      dx2y2   :     2.002658
      dxy     :     2.003770
 29 P s       :     5.557394  s :     5.557394
      pz      :     3.061063  p :     9.342452
      px      :     3.079329
      py      :     3.202060
      dz2     :     0.036187  d :     0.225907
      dxz     :     0.042655
      dyz     :     0.060912
      dx2y2   :     0.062515
      dxy     :     0.023637
 30 H s       :     0.874262  s :     0.874262
 31 C s       :     2.803345  s :     2.803345
      pz      :     0.764898  p :     2.365823
      px      :     0.855994
      py      :     0.744930
      dz2     :     0.027130  d :     0.190419
      dxz     :     0.044442
      dyz     :     0.024172
      dx2y2   :     0.047799
      dxy     :     0.046876
 32 O s       :     3.707923  s :     3.707923
      pz      :     1.624557  p :     4.702059
      px      :     1.433397
      py      :     1.644106
      dz2     :     0.003596  d :     0.031823
      dxz     :     0.008035
      dyz     :     0.002636
      dx2y2   :     0.009269
      dxy     :     0.008288
 33 O s       :     3.821024  s :     3.821024
      pz      :     1.447867  p :     4.743323
      px      :     1.577210
      py      :     1.718246
      dz2     :     0.003673  d :     0.022185
      dxz     :     0.007283
      dyz     :     0.002855
      dx2y2   :     0.003328
      dxy     :     0.005046
 34 O s       :     3.809728  s :     3.809728
      pz      :     1.658836  p :     4.772909
      px      :     1.616409
      py      :     1.497665
      dz2     :     0.002487  d :     0.031820
      dxz     :     0.009948
      dyz     :     0.003117
      dx2y2   :     0.006989
      dxy     :     0.009278
 35 H s       :     0.909342  s :     0.909342
 36 H s       :     0.850278  s :     0.850278
 37 H s       :     0.606309  s :     0.606309


                     *******************************
                     * LOEWDIN POPULATION ANALYSIS *
[...]
      dx2y2   :     0.016110
      dxy     :     0.019625
 13 H s       :     0.871324  s :     0.871324
 14 H s       :     0.840355  s :     0.840355
 15 C s       :     2.849862  s :     2.849862
      pz      :     1.052070  p :     3.091341
      px      :     1.027345
      py      :     1.011926
      dz2     :     0.023971  d :     0.108262
      dxz     :     0.030823
      dyz     :     0.018039
      dx2y2   :     0.016920
      dxy     :     0.018509
 16 H s       :     0.848465  s :     0.848465
 17 H s       :     0.881139  s :     0.881139
 18 C s       :     2.902606  s :     2.902606
      pz      :     1.034759  p :     3.049075
      px      :     1.038845
      py      :     0.975471
      dz2     :     0.020551  d :     0.087765
      dxz     :     0.023155
      dyz     :     0.020449
      dx2y2   :     0.014165
      dxy     :     0.009445
 19 C s       :     2.888164  s :     2.888164
      pz      :     1.071928  p :     3.149216
      px      :     1.049419
      py      :     1.027869
      dz2     :     0.020146  d :     0.090670
      dxz     :     0.018328
      dyz     :     0.017107
      dx2y2   :     0.016022
      dxy     :     0.019067
 20 C s       :     2.893118  s :     2.893118
      pz      :     1.067857  p :     3.169080
      px      :     1.052559
      py      :     1.048663
      dz2     :     0.019725  d :     0.091113
      dxz     :     0.024962
      dyz     :     0.019089
      dx2y2   :     0.014227
      dxy     :     0.013110
 21 C s       :     2.891482  s :     2.891482
      pz      :     1.066536  p :     3.170378
      px      :     1.063238
      py      :     1.040604
      dz2     :     0.022442  d :     0.090598
      dxz     :     0.020923
      dyz     :     0.015914
      dx2y2   :     0.016015
      dxy     :     0.015304
 22 C s       :     2.890543  s :     2.890543
      pz      :     1.087599  p :     3.180455
      px      :     1.050939
      py      :     1.041917
      dz2     :     0.026296  d :     0.091902
      dxz     :     0.022955
      dyz     :     0.020599
      dx2y2   :     0.007111
      dxy     :     0.014943
 23 H s       :     0.841743  s :     0.841743
 24 H s       :     0.877502  s :     0.877502
 25 H s       :     0.880918  s :     0.880918
 26 H s       :     0.879508  s :     0.879508
 27 Pds       :     2.533596  s :     2.533596
      pz      :     2.319956  p :     6.928419
      px      :     2.298326
      py      :     2.310137
      dz2     :     1.845000  d :     9.299791
      dxz     :     1.999859
      dyz     :     1.901235
      dx2y2   :     1.991435
      dxy     :     1.562261
      f0      :     0.000518  f :     0.003622
      f+1     :     0.000565
      f-1     :     0.000451
      f+2     :     0.000146
      f-2     :     0.000871
      f+3     :     0.000656
      f-3     :     0.000415
 28 Brs       :     7.830198  s :     7.830198
      pz      :     5.924620  p :    17.440015
      px      :     5.753201
      py      :     5.762193
      dz2     :     2.002444  d :    10.014513
      dxz     :     2.001632
      dyz     :     2.001812
      dx2y2   :     2.003191
      dxy     :     2.005434
 29 P s       :     5.191586  s :     5.191586
      pz      :     2.993764  p :     9.101451
      px      :     3.007472
      py      :     3.100215
      dz2     :     0.043367  d :     0.272470
      dxz     :     0.052116
      dyz     :     0.074406
      dx2y2   :     0.073933
      dxy     :     0.028647
 30 H s       :     0.941711  s :     0.941711
 31 C s       :     2.765722  s :     2.765722
      pz      :     0.843960  p :     2.723929
      px      :     1.020259
      py      :     0.859710
      dz2     :     0.057855  d :     0.430330
      dxz     :     0.103948
      dyz     :     0.052911
      dx2y2   :     0.107077
      dxy     :     0.108540
 32 O s       :     3.458449  s :     3.458449
      pz      :     1.591024  p :     4.713637
      px      :     1.503659
      py      :     1.618954
      dz2     :     0.007540  d :     0.061457
      dxz     :     0.014941
      dyz     :     0.003863
      dx2y2   :     0.017441
      dxy     :     0.017671
 33 O s       :     3.508853  s :     3.508853
      pz      :     1.449055  p :     4.744857
      px      :     1.595780
      py      :     1.700022
      dz2     :     0.007103  d :     0.044227
      dxz     :     0.015843
      dyz     :     0.007024
      dx2y2   :     0.005854
      dxy     :     0.008403
 34 O s       :     3.514927  s :     3.514927
      pz      :     1.649694  p :     4.776818
      px      :     1.613641
      py      :     1.513483
      dz2     :     0.004432  d :     0.054678
      dxz     :     0.014039
      dyz     :     0.009115
      dx2y2   :     0.010991
      dxy     :     0.016101
 35 H s       :     0.964663  s :     0.964663
 36 H s       :     0.923461  s :     0.923461
 37 H s       :     0.702227  s :     0.702227


                      *****************************
                      * MAYER POPULATION ANALYSIS *
                      *****************************

  NA   - Mulliken gross atomic population
  ZA   - Total nuclear charge
  QA   - Mulliken gross atomic charge
  VA   - Mayer's total valence
  BVA  - Mayer's bonded valence
  FA   - Mayer's free valence

  ATOM       NA         ZA         QA         VA         BVA        FA
  0 C      6.2671     6.0000    -0.2671     3.7572     3.7572     0.0000
  1 C      5.9257     6.0000     0.0743     3.7562     3.7562    -0.0000
  2 C      6.2150     6.0000    -0.2150     3.7959     3.7959     0.0000
  3 C      6.2418     6.0000    -0.2418     3.8162     3.8162     0.0000
  4 C      6.1988     6.0000    -0.1988     3.8230     3.8230    -0.0000
  5 C      6.2599     6.0000    -0.2599     3.8403     3.8403     0.0000
  6 H      0.7030     1.0000     0.2970     0.8940     0.8940    -0.0000
  7 H      0.7601     1.0000     0.2399     0.9074     0.9074     0.0000
  8 H      0.8166     1.0000     0.1834     0.9286     0.9286    -0.0000
  9 H      0.8003     1.0000     0.1997     0.9199     0.9199     0.0000
 10 H      0.8063     1.0000     0.1937     0.9165     0.9165     0.0000
 11 C      6.4844     6.0000    -0.4844     3.6705     3.6705    -0.0000
 12 C      6.5119     6.0000    -0.5119     3.6669     3.6669    -0.0000
 13 H      0.7854     1.0000     0.2146     0.9111     0.9111     0.0000
 14 H      0.7207     1.0000     0.2793     0.8753     0.8753     0.0000
 15 C      5.9451     6.0000     0.0549     3.7237     3.7237     0.0000
 16 H      0.7346     1.0000     0.2654     0.8981     0.8981    -0.0000
 17 H      0.7953     1.0000     0.2047     0.9142     0.9142    -0.0000
 18 C      6.1390     6.0000    -0.1390     3.7565     3.7565     0.0000
 19 C      6.2740     6.0000    -0.2740     3.7923     3.7923    -0.0000
 20 C      6.2341     6.0000    -0.2341     3.8104     3.8104    -0.0000
 21 C      6.2713     6.0000    -0.2713     3.8326     3.8326    -0.0000
 22 C      6.2196     6.0000    -0.2196     3.8289     3.8289     0.0000
 23 H      0.7411     1.0000     0.2589     0.9107     0.9107     0.0000
 24 H      0.8112     1.0000     0.1888     0.9214     0.9214    -0.0000
 25 H      0.8227     1.0000     0.1773     0.9281     0.9281    -0.0000
 26 H      0.8161     1.0000     0.1839     0.9231     0.9231    -0.0000
 27 Pd    17.8432    18.0000     0.1568     2.8668     2.8668    -0.0000
 28 Br    35.4872    35.0000    -0.4872     0.8467     0.8467     0.0000
 29 P     15.1258    15.0000    -0.1258     3.8400     3.8400    -0.0000
 30 H      0.8743     1.0000     0.1257     0.9541     0.9541     0.0000
 31 C      5.3596     6.0000     0.6404     4.3439     4.3439     0.0000
 32 O      8.4418     8.0000    -0.4418     2.1774     2.1774     0.0000
 33 O      8.5865     8.0000    -0.5865     1.9866     1.9866    -0.0000
 34 O      8.6145     8.0000    -0.6145     1.9346     1.9346     0.0000
 35 H      0.9093     1.0000     0.0907     0.9560     0.9560    -0.0000
 36 H      0.8503     1.0000     0.1497     0.9503     0.9503    -0.0000
 37 H      0.6063     1.0000     0.3937     0.8299     0.8299     0.0000

  Mayer bond orders larger than 0.100000
B(  0-C ,  1-C ) :   1.2424 B(  0-C ,  2-C ) :   1.5550 B(  0-C ,  6-H ) :   0.8627 
B(  1-C ,  5-C ) :   1.5213 B(  1-C , 11-C ) :   0.9724 B(  2-C ,  3-C ) :   1.3071 
B(  2-C ,  7-H ) :   0.9058 B(  3-C ,  4-C ) :   1.5217 B(  3-C ,  9-H ) :   0.9259 
B(  4-C ,  5-C ) :   1.3370 B(  4-C , 10-H ) :   0.9265 B(  5-C ,  8-H ) :   0.9223 
B( 11-C , 12-C ) :   0.9090 B( 11-C , 13-H ) :   0.9246 B( 11-C , 14-H ) :   0.8913 
B( 12-C , 15-C ) :   0.9619 B( 12-C , 16-H ) :   0.8932 B( 12-C , 17-H ) :   0.9338 
B( 15-C , 18-C ) :   1.3530 B( 15-C , 21-C ) :   1.4026 B( 18-C , 19-C ) :   1.4138 
B( 18-C , 27-Pd) :   0.7387 B( 18-C , 28-Br) :   0.1078 B( 19-C , 20-C ) :   1.4047 
B( 19-C , 23-H ) :   0.8838 B( 20-C , 22-C ) :   1.4294 B( 20-C , 24-H ) :   0.9267 
B( 21-C , 22-C ) :   1.4248 B( 21-C , 25-H ) :   0.9275 B( 22-C , 26-H ) :   0.9279 
B( 27-Pd, 28-Br) :   0.5324 B( 27-Pd, 29-P ) :   0.8084 B( 27-Pd, 33-O ) :   0.4920 
B( 28-Br, 29-P ) :   0.1341 B( 29-P , 30-H ) :   0.9202 B( 29-P , 35-H ) :   0.9024 
B( 29-P , 36-H ) :   0.9276 B( 31-C , 32-O ) :   1.9458 B( 31-C , 33-O ) :   1.3364 
B( 31-C , 34-O ) :   1.0307 B( 34-O , 37-H ) :   0.7969 


------------------
HIRSHFELD ANALYSIS
------------------

Total integrated alpha density =    100.000308553
Total integrated beta density  =    100.000308553

  ATOM     CHARGE      SPIN    
   0 C   -0.035039    0.000000
   1 C    0.010125    0.000000
   2 C   -0.048489    0.000000
   3 C   -0.059176    0.000000
   4 C   -0.067448    0.000000
   5 C   -0.071947    0.000000
   6 H    0.043399    0.000000
   7 H    0.041146    0.000000
   8 H    0.025635    0.000000
   9 H    0.036062    0.000000
  10 H    0.032240    0.000000
  11 C   -0.046624    0.000000
  12 C   -0.050967    0.000000
  13 H    0.023593    0.000000
  14 H    0.029545    0.000000
  15 C   -0.021538    0.000000
  16 H    0.012611    0.000000
  17 H    0.020013    0.000000
  18 C   -0.128101    0.000000
  19 C   -0.069458    0.000000
  20 C   -0.065984    0.000000
  21 C   -0.069272    0.000000
  22 C   -0.072944    0.000000
  23 H    0.028891    0.000000
  24 H    0.028922    0.000000
  25 H    0.024144    0.000000
  26 H    0.030007    0.000000
  27 Pd   0.459935    0.000000
  28 Br  -0.510915    0.000000
  29 P    0.133675    0.000000
  30 H    0.009659    0.000000
  31 C    0.231716    0.000000
  32 O   -0.370897    0.000000
  33 O   -0.436653    0.000000
  34 O   -0.264259    0.000000
  35 H   -0.003259    0.000000
  36 H    0.017332    0.000000
  37 H    0.153704    0.000000

  TOTAL  -1.000617    0.000000

-------
TIMINGS
-------

Total SCF time: 0 days 0 hours 21 min 8 sec 

Total time                  ....    1268.735 sec
Sum of individual times     ....    1267.051 sec  ( 99.9%)

Fock matrix formation       ....    1255.106 sec  ( 98.9%)
  Split-RI-J                ....     208.699 sec  ( 16.6% of F)
  Chain of spheres X        ....     964.651 sec  ( 76.9% of F)
  XC integration            ....      81.645 sec  (  6.5% of F)
    Basis function eval.    ....      22.079 sec  ( 27.0% of XC)
    Density eval.           ....      28.014 sec  ( 34.3% of XC)
    XC-Functional eval.     ....       2.426 sec  (  3.0% of XC)
    XC-Potential eval.      ....      23.602 sec  ( 28.9% of XC)
Diagonalization             ....       1.249 sec  (  0.1%)
Density matrix formation    ....       0.389 sec  (  0.0%)
Population analysis         ....       0.987 sec  (  0.1%)
Initial guess               ....       0.162 sec  (  0.0%)
Orbital Transformation      ....       2.482 sec  (  0.2%)
Orbital Orthonormalization  ....       0.000 sec  (  0.0%)
DIIS solution               ....       0.483 sec  (  0.0%)
Grid generation             ....       6.191 sec  (  0.5%)

Maximum memory used throughout the entire SCF-calculation: 177.3 MB


-------------------------------------------------------------------------------
                          DFT DISPERSION CORRECTION                            
                                                                               
                              DFTD3 V3.1  Rev 1                                
                          USING Becke-Johnson damping                          
-------------------------------------------------------------------------------
The PBEh-3c composite method is recognized
Using three-body term ABC
Active option DFTDOPT                   ...         4   

molecular C6(AA) [au] = 24153.939521 


            DFT-D V3
 parameters
 s6 scaling factor         :     1.0000 
 a1 scaling factor         :     0.4860 
 s8 scaling factor         :     0.0000 
 a2 scaling factor         :     4.5000 
 Damping factor alpha9(ATM):    16.0000 
 ad hoc parameters k1-k3   :    16.0000     1.3333    -4.0000 

 Edisp/kcal,au: -19.223389874991  -0.030634418473 
 E6   /kcal   : -19.428329968 
 E8   /kcal   :  -0.000000000 
 E6(ABC)      :   0.204940094 
 % E8         :   0.000000000 
 % E6(ABC)    :  -1.066097576 

-------------------------   ----------------
Dispersion correction           -0.030634418
-------------------------   ----------------

 ** NOTE ** -> element pd will be treated as ni
------------------   -----------------
gCP correction             0.065524297
------------------   -----------------

-------------------------   --------------------
FINAL SINGLE POINT ENERGY     -3847.658682278855
-------------------------   --------------------

------------------------------------------------------------------------------
                         ORCA SCF GRADIENT CALCULATION
------------------------------------------------------------------------------

 ... reading COSX grid (gridx3)
Gradient of the Kohn-Sham DFT energy:
Kohn-Sham wavefunction type      ... RKS
Hartree-Fock exchange scaling    ...    0.420
Number of operators              ...    1
Number of atoms                  ...   38
Basis set dimensions             ...  385
Integral neglect threshold       ... 2.5e-11
Integral primitive cutoff        ... 2.5e-12
SHARK Integral package           ... ON

Nuc. rep. gradient       (SHARK) ... done (  0.0 sec)
HCore & Overlap gradient (SHARK) ... done (  1.5 sec)
ECP gradient             (SHARK) ... done (  1.4 sec)
RI-J gradient            (SHARK) ... done (  7.4 sec)
COSX-gradient                    ... done ( 62.1 sec)
Exchange-correlation gradient    ... done
Dispersion correction            ... done
gCP correction                   ... done

------------------
CARTESIAN GRADIENT
------------------

   1   C   :   -0.064777976   -0.049683213   -0.012793402
   2   C   :    0.032389758    0.055956552    0.035499055
   3   C   :    0.052297272    0.016578687    0.001526308
   4   C   :   -0.008702453    0.014358075    0.006891898
   5   C   :    0.008702218    0.012230015    0.004826535
   6   C   :   -0.036135586   -0.022510281    0.000176661
   7   H   :   -0.007826778   -0.019155278   -0.043736614
   8   H   :    0.003353851   -0.013366296    0.008225023
   9   H   :    0.009104147    0.012760817   -0.001441875
  10   H   :   -0.002563009    0.002112430   -0.010304078
  11   H   :    0.010012826   -0.011827881   -0.007012347
  12   C   :    0.003040339    0.026939960    0.006979407
  13   C   :    0.003793761    0.005352548    0.002757229
  14   H   :   -0.000051993   -0.019013626   -0.006894125
  15   H   :   -0.006478549   -0.009344753    0.010528739
  16   C   :   -0.006881562    0.010588916   -0.003316762
  17   H   :    0.000635124   -0.003338407    0.001164229
  18   H   :    0.005828842   -0.000072169    0.007073359
  19   C   :    0.003859561   -0.002015958    0.006738414
  20   C   :   -0.002224114    0.002105760   -0.002657584
  21   C   :    0.002828599    0.000400371    0.003878296
  22   C   :    0.009943916   -0.006382922    0.001883771
  23   C   :   -0.004750604    0.008980259   -0.000417569
  24   H   :    0.001261582   -0.001407138    0.001535074
  25   H   :    0.002496707    0.001031681    0.000495651
  26   H   :    0.007077038    0.000689577    0.003379421
  27   H   :    0.005976978    0.007125406    0.001226772
  28   Pd  :   -0.010776788    0.003381736    0.004723810
  29   Br  :   -0.003273046   -0.003848035   -0.002334382
  30   P   :    0.011424768   -0.011817760    0.005591173
  31   H   :   -0.000297574    0.006107357   -0.009392101
  32   C   :    0.180098531   -0.031570027   -0.072756869
  33   O   :   -0.137760441    0.047095688    0.040677685
  34   O   :   -0.034891720   -0.021141983    0.007622552
  35   O   :    0.001104087    0.002984536   -0.003435504
  36   H   :   -0.008256617   -0.002027453   -0.004712099
  37   H   :   -0.003987750    0.008102135    0.000343962
  38   H   :   -0.015328605   -0.015046949    0.018873346

Difference to translation invariance:
           :    0.0002647391    0.0013123768    0.0014130592

Difference to rotation invariance:
           :    0.0000920828   -0.0023595410    0.0026139435

Norm of the cartesian gradient     ...    0.2968362398
RMS gradient                       ...    0.0278012611
MAX gradient                       ...    0.1800985312

-------
TIMINGS
-------

Total SCF gradient time            ...       86.200 sec

One electron gradient       ....       2.884 sec  (  3.3%)
RI-J Coulomb gradient       ....       7.378 sec  (  8.6%)
COSX gradient               ....      62.092 sec  ( 72.0%)
XC gradient                 ....      10.603 sec  ( 12.3%)

Maximum memory used throughout the entire SCFGRAD-calculation: 142.9 MB

                            ***************************************
                            *     ORCA property calculations      *
                            ***************************************

                                    ---------------------
                                    Active property flags
                                    ---------------------
   (+) Dipole Moment


------------------------------------------------------------------------------
                       ORCA ELECTRIC PROPERTIES CALCULATION
------------------------------------------------------------------------------

Dipole Moment Calculation                       ... on
Quadrupole Moment Calculation                   ... off
Polarizability Calculation                      ... off
GBWName                                         ... 1_12_orca.gbw
Electron density                                ... 1_12_orca.scfp
The origin for moment calculation is the CENTER OF MASS  = (-0.240046, -2.024531 -1.115121)

-------------
DIPOLE MOMENT
-------------
                                X             Y             Z
Electronic contribution:     13.37398     -80.19059     -40.99446
Nuclear contribution   :    -12.17986      81.30933      43.82073
                        -----------------------------------------
Total Dipole Moment    :      1.19412       1.11874       2.82627
                        -----------------------------------------
Magnitude (a.u.)       :      3.26578
Magnitude (Debye)      :      8.30095



--------------------
Rotational spectrum 
--------------------
 
Rotational constants in cm-1:     0.006799     0.005894     0.004256 
Rotational constants in MHz :   203.823356   176.693414   127.596601 

 Dipole components along the rotational axes: 
x,y,z [a.u.] :    -0.703708    -2.529519     1.942070 
x,y,z [Debye]:    -1.788684    -6.429525     4.936348 

 

Timings for individual modules:

Sum of individual times         ...     1356.384 sec (=  22.606 min)
GTO integral calculation        ...        1.380 sec (=   0.023 min)   0.1 %
SCF iterations                  ...     1268.770 sec (=  21.146 min)  93.5 %
SCF Gradient evaluation         ...       86.234 sec (=   1.437 min)   6.4 %
                             ****ORCA TERMINATED NORMALLY****
TOTAL RUN TIME: 0 days 0 hours 22 minutes 36 seconds 825 msec
