
                                 *****************
                                 * O   R   C   A *
                                 *****************

                                            #,                                       
                                            ###                                      
                                            ####                                     
                                            #####                                    
                                            ######                                   
                                           ########,                                 
                                     ,,################,,,,,                         
                               ,,#################################,,                 
                          ,,##########################################,,             
                       ,#########################################, ''#####,          
                    ,#############################################,,   '####,        
                  ,##################################################,,,,####,       
                ,###########''''           ''''###############################       
              ,#####''   ,,,,##########,,,,          '''####'''          '####       
            ,##' ,,,,###########################,,,                        '##       
           ' ,,###''''                  '''############,,,                           
         ,,##''                                '''############,,,,        ,,,,,,###''
      ,#''                                            '''#######################'''  
     '                                                          ''''####''''         
             ,#######,   #######,   ,#######,      ##                                
            ,#'     '#,  ##    ##  ,#'     '#,    #''#        ######   ,####,        
            ##       ##  ##   ,#'  ##            #'  '#       #        #'  '#        
            ##       ##  #######   ##           ,######,      #####,   #    #        
            '#,     ,#'  ##    ##  '#,     ,#' ,#      #,         ##   #,  ,#        
             '#######'   ##     ##  '#######'  #'      '#     #####' # '####'        



                  #######################################################
                  #                        -***-                        #
                  #          Department of theory and spectroscopy      #
                  #    Directorship and core code : Frank Neese         #
                  #        Max Planck Institute fuer Kohlenforschung    #
                  #                Kaiser Wilhelm Platz 1               #
                  #                 D-45470 Muelheim/Ruhr               #
                  #                      Germany                        #
                  #                                                     #
                  #                  All rights reserved                #
                  #                        -***-                        #
                  #######################################################


                         Program Version 5.0.3 -  RELEASE  -


 With contributions from (in alphabetic order):
   Daniel Aravena         : Magnetic Suceptibility
   Michael Atanasov       : Ab Initio Ligand Field Theory (pilot matlab implementation)
   Alexander A. Auer      : GIAO ZORA, VPT2 properties, NMR spectrum
   Ute Becker             : Parallelization
   Giovanni Bistoni       : ED, misc. LED, open-shell LED, HFLD
   Martin Brehm           : Molecular dynamics
   Dmytro Bykov           : SCF Hessian
   Vijay G. Chilkuri      : MRCI spin determinant printing, contributions to CSF-ICE
   Dipayan Datta          : RHF DLPNO-CCSD density
   Achintya Kumar Dutta   : EOM-CC, STEOM-CC
   Dmitry Ganyushin       : Spin-Orbit,Spin-Spin,Magnetic field MRCI
   Miquel Garcia          : C-PCM and meta-GGA Hessian, CC/C-PCM, Gaussian charge scheme
   Yang Guo               : DLPNO-NEVPT2, F12-NEVPT2, CIM, IAO-localization
   Andreas Hansen         : Spin unrestricted coupled pair/coupled cluster methods
   Benjamin Helmich-Paris : MC-RPA, TRAH-SCF, COSX integrals
   Lee Huntington         : MR-EOM, pCC
   Robert Izsak           : Overlap fitted RIJCOSX, COSX-SCS-MP3, EOM
   Marcus Kettner         : VPT2
   Christian Kollmar      : KDIIS, OOCD, Brueckner-CCSD(T), CCSD density, CASPT2, CASPT2-K
   Simone Kossmann        : Meta GGA functionals, TD-DFT gradient, OOMP2, MP2 Hessian
   Martin Krupicka        : Initial AUTO-CI
   Lucas Lang             : DCDCAS
   Marvin Lechner         : AUTO-CI (C++ implementation), FIC-MRCC
   Dagmar Lenk            : GEPOL surface, SMD
   Dimitrios Liakos       : Extrapolation schemes; Compound Job, initial MDCI parallelization
   Dimitrios Manganas     : Further ROCIS development; embedding schemes
   Dimitrios Pantazis     : SARC Basis sets
   Anastasios Papadopoulos: AUTO-CI, single reference methods and gradients
   Taras Petrenko         : DFT Hessian,TD-DFT gradient, ASA, ECA, R-Raman, ABS, FL, XAS/XES, NRVS
   Peter Pinski           : DLPNO-MP2, DLPNO-MP2 Gradient
   Christoph Reimann      : Effective Core Potentials
   Marius Retegan         : Local ZFS, SOC
   Christoph Riplinger    : Optimizer, TS searches, QM/MM, DLPNO-CCSD(T), (RO)-DLPNO pert. Triples
   Tobias Risthaus        : Range-separated hybrids, TD-DFT gradient, RPA, STAB
   Michael Roemelt        : Original ROCIS implementation
   Masaaki Saitow         : Open-shell DLPNO-CCSD energy and density
   Barbara Sandhoefer     : DKH picture change effects
   Avijit Sen             : IP-ROCIS
   Kantharuban Sivalingam : CASSCF convergence, NEVPT2, FIC-MRCI
   Bernardo de Souza      : ESD, SOC TD-DFT
   Georgi Stoychev        : AutoAux, RI-MP2 NMR, DLPNO-MP2 response
   Willem Van den Heuvel  : Paramagnetic NMR
   Boris Wezisla          : Elementary symmetry handling
   Frank Wennmohs         : Technical directorship


 We gratefully acknowledge several colleagues who have allowed us to
 interface, adapt or use parts of their codes:
   Stefan Grimme, W. Hujo, H. Kruse, P. Pracht,  : VdW corrections, initial TS optimization,
                  C. Bannwarth, S. Ehlert          DFT functionals, gCP, sTDA/sTD-DF
   Ed Valeev, F. Pavosevic, A. Kumar             : LibInt (2-el integral package), F12 methods
   Garnet Chan, S. Sharma, J. Yang, R. Olivares  : DMRG
   Ulf Ekstrom                                   : XCFun DFT Library
   Mihaly Kallay                                 : mrcc  (arbitrary order and MRCC methods)
   Jiri Pittner, Ondrej Demel                    : Mk-CCSD
   Frank Weinhold                                : gennbo (NPA and NBO analysis)
   Christopher J. Cramer and Donald G. Truhlar   : smd solvation model
   Lars Goerigk                                  : TD-DFT with DH, B97 family of functionals
   V. Asgeirsson, H. Jonsson                     : NEB implementation
   FAccTs GmbH                                   : IRC, NEB, NEB-TS, DLPNO-Multilevel, CI-OPT
                                                   MM, QMMM, 2- and 3-layer-ONIOM, Crystal-QMMM,
                                                   LR-CPCM, SF, NACMEs, symmetry and pop. for TD-DFT,
                                                   nearIR, NL-DFT gradient (VV10), updates on ESD,
                                                   ML-optimized integration grids
   S Lehtola, MJT Oliveira, MAL Marques          : LibXC Library
   Liviu Ungur et al                             : ANISO software


 Your calculation uses the libint2 library for the computation of 2-el integrals
 For citations please refer to: http://libint.valeyev.net

 Your ORCA version has been built with support for libXC version: 5.1.0
 For citations please refer to: https://tddft.org/programs/libxc/

 This ORCA versions uses:
   CBLAS   interface :  Fast vector & matrix operations
   LAPACKE interface :  Fast linear algebra routines
   SCALAPACK package :  Parallel linear algebra routines
   Shared memory     :  Shared parallel matrices
   BLAS/LAPACK       :  OpenBLAS 0.3.15  USE64BITINT DYNAMIC_ARCH NO_AFFINITY SkylakeX SINGLE_THREADED
        Core in use  :  SkylakeX
   Copyright (c) 2011-2014, The OpenBLAS Project


Your calculation utilizes the geometrical counterpoise correction gCP
Please cite in your paper:
H.Kruse, S. Grimme J.Chem.Phys., 136, (2012), 154101 
   

Your calculation utilizes the atom-pairwise dispersion correction
with the Becke-Johnson damping scheme (D3BJ)
Cite in your paper:
S.Grimme, S.Ehrlich, L.Goerigk, J Comput Chem, (2011), 32, 1456–1465 
S.Grimme, J.Antony, S.Ehrlich and H.Krieg, J.Chem.Phys., 132, (2010), 154104 
   

Your calculation employs the composite approach PBEh-3c.
Please cite in your paper:
S. Grimme, J. G. Brandenburg, C. Bannwarth, A. Hansen J.Chem.Phys., 143, (2015), 054107 
   

================================================================================

cite the ECPs for Pd [Def2-ECP] as follows:
Ce-Yb(ecp-28): M. Dolg, H. Stoll, H.Preuss, J. Chem. Phys., 1989, 90, 1730-1734.
Y-Cd(ecp-28), Hf-Hg(ecp-46): D. Andrae,U. Haeussermann, M. Dolg, H. Stoll, H. Preuss, Theor. Chim. Acta, 1990, 77, 123-141.
In-Sb(ecp-28), Tl-Bi(ecp-46): B. Metz, H. Stoll, M. Dolg, J. Chem. Phys., 2000, 113, 2563-2569.
Te-Xe(ecp-28), Po-Rn(ecp-46): K. A. Peterson, D. Figgen, E. Goll, H. Stoll, M. Dolg, J. Chem. Phys., 2003, 119, 11113-11123.
Rb(ecp-28), Cs(ecp-46): T. Leininger, A. Nicklass, W. Kuechle, H. Stoll, M. Dolg, A. Bergner, Chem. Phys. Lett., 1996, 255, 274-280.
Sr(ecp-28), Ba(ecp-46): M. Kaupp, P. V. Schleyer, H. Stoll and H. Preuss, J. Chem. Phys., 1991, 94, 1360-1366.
La(ecp-46): M. Dolg, H. Stoll, A. Savin, H. Preuss, Theor. Chim. Acta, 1989, 75, 173-194.
Lu(ecp-28): X. Cao, M. Dolg, J. Chem. Phys., 2001, 115, 7348-7355.

ECP parameters for Pd [Def2-ECP] have been obtained from:
TURBOMOLE (7.0.2)

----- Orbital basis set information -----
Your calculation utilizes the basis: def2-mSVP

----- AuxJ basis set information -----
Your calculation utilizes the auxiliary basis: def2/J
   F. Weigend, Phys. Chem. Chem. Phys. 8, 1057 (2006).

================================================================================
                                        WARNINGS
                       Please study these warnings very carefully!
================================================================================


INFO   : the flag for use of the SHARK integral package has been found!

================================================================================
                                       INPUT FILE
================================================================================
NAME = 6_7_orca.inp
|  1> ! EnGrad PBEh-3c
|  2> %output 
|  3> xyzfile=True 
|  4> end 
|  5> %scf 
|  6> maxiter 250 
|  7> end
|  8> %output
|  9> Print[P_Hirshfeld] = 1
| 10> end
| 11> % maxcore
| 12> 4000
| 13> *xyz 0 1
| 14> Pd   0.41971614   0.30503264  -0.21335966 
| 15> O    1.94380201   1.29429962   0.63213325 
| 16> C    1.63057691   2.61652534   0.33181730 
| 17> O    0.62176372   2.87789184  -0.19657146 
| 18> C    2.73499980   3.65413382   0.60571643 
| 19> H    2.25147105   4.53955419   1.02867355 
| 20> H    3.18080869   3.95854687  -0.33786805 
| 21> H    3.51726863   3.31749583   1.27455910 
| 22> N   -1.40745012  -0.75569616  -1.08055213 
| 23> C   -1.20848468  -1.85637830  -2.01471001 
| 24> H   -0.69534670  -1.50592582  -2.88575774 
| 25> H   -2.18929654  -2.20600708  -2.32792749 
| 26> H   -0.65226675  -2.64145145  -1.53676854 
| 27> C   -2.11784125   0.34070891  -1.75776075 
| 28> H   -2.24510417   1.20273816  -1.12863393 
| 29> H   -3.08723970  -0.04245708  -2.07389040 
| 30> H   -1.54765145   0.61011599  -2.64116848 
| 31> C   -1.57894152  -1.04080823   1.43571304 
| 32> C   -1.27116405  -2.16454155   2.27574110 
| 33> C   -1.01224944  -1.99192621   3.61077740 
| 34> C   -1.07500937  -0.73953624   4.16635754 
| 35> C   -1.40875726   0.37724876   3.37583973 
| 36> C   -1.58738859   0.16247619   2.06547489 
| 37> H   -0.88156818  -0.59116291   5.22611206 
| 38> H   -1.57283212   1.29250952   3.87420563 
| 39> H   -1.37895021  -3.15871497   1.90453329 
| 40> H   -0.95892172  -2.84956292   4.26591436 
| 41> H   -1.97586921   3.42338588   1.36547412 
| 42> C   -2.21726259  -1.26125637   0.12213164 
| 43> H   -3.17552100  -0.74541064   0.13757686 
| 44> H   -2.47862235  -2.30207722  -0.03061447 
| 45> O    1.98347422  -0.38355108  -1.24894993 
| 46> C    2.21867958  -0.50584158  -2.52141212 
| 47> O    1.41615975  -0.52342152  -3.37415287 
| 48> C    3.70559923  -0.62086937  -2.94230119 
| 49> H    3.82579845  -1.66491639  -3.25626969 
| 50> H    4.44082076  -0.37175954  -2.24488739 
| 51> H    3.83778306  -0.04988443  -3.87910984 
| 52> *
| 53> 
| 54>                          ****END OF INPUT****
================================================================================

                     *******************************
                     * Energy+Gradient Calculation *
                     *******************************

---------------------------------
CARTESIAN COORDINATES (ANGSTROEM)
---------------------------------
  Pd     0.419716    0.305033   -0.213360
  O      1.943802    1.294300    0.632133
  C      1.630577    2.616525    0.331817
  O      0.621764    2.877892   -0.196571
  C      2.735000    3.654134    0.605716
  H      2.251471    4.539554    1.028674
  H      3.180809    3.958547   -0.337868
  H      3.517269    3.317496    1.274559
  N     -1.407450   -0.755696   -1.080552
  C     -1.208485   -1.856378   -2.014710
  H     -0.695347   -1.505926   -2.885758
  H     -2.189297   -2.206007   -2.327927
  H     -0.652267   -2.641451   -1.536769
  C     -2.117841    0.340709   -1.757761
  H     -2.245104    1.202738   -1.128634
  H     -3.087240   -0.042457   -2.073890
  H     -1.547651    0.610116   -2.641168
  C     -1.578942   -1.040808    1.435713
  C     -1.271164   -2.164542    2.275741
  C     -1.012249   -1.991926    3.610777
  C     -1.075009   -0.739536    4.166358
  C     -1.408757    0.377249    3.375840
  C     -1.587389    0.162476    2.065475
  H     -0.881568   -0.591163    5.226112
  H     -1.572832    1.292510    3.874206
  H     -1.378950   -3.158715    1.904533
  H     -0.958922   -2.849563    4.265914
  H     -1.975869    3.423386    1.365474
  C     -2.217263   -1.261256    0.122132
  H     -3.175521   -0.745411    0.137577
  H     -2.478622   -2.302077   -0.030614
  O      1.983474   -0.383551   -1.248950
  C      2.218680   -0.505842   -2.521412
  O      1.416160   -0.523422   -3.374153
  C      3.705599   -0.620869   -2.942301
  H      3.825798   -1.664916   -3.256270
  H      4.440821   -0.371760   -2.244887
  H      3.837783   -0.049884   -3.879110

----------------------------
CARTESIAN COORDINATES (A.U.)
----------------------------
  NO LB      ZA    FRAG     MASS         X           Y           Z
   0 Pd   18.0000*   0   106.400    0.793149    0.576428   -0.403191
   1 O     8.0000    0    15.999    3.673253    2.445872    1.194559
   2 C     6.0000    0    12.011    3.081344    4.944516    0.627044
   3 O     8.0000    0    15.999    1.174963    5.438427   -0.371466
   4 C     6.0000    0    12.011    5.168401    6.905312    1.144638
   5 H     1.0000    0     1.008    4.254664    8.578514    1.943911
   6 H     1.0000    0     1.008    6.010857    7.480569   -0.638478
   7 H     1.0000    0     1.008    6.646674    6.269159    2.408568
   8 N     7.0000    0    14.007   -2.659695   -1.428059   -2.041948
   9 C     6.0000    0    12.011   -2.283705   -3.508047   -3.807250
  10 H     1.0000    0     1.008   -1.314015   -2.845787   -5.453292
  11 H     1.0000    0     1.008   -4.137171   -4.168749   -4.399145
  12 H     1.0000    0     1.008   -1.232606   -4.991620   -2.904072
  13 C     6.0000    0    12.011   -4.002140    0.643847   -3.321686
  14 H     1.0000    0     1.008   -4.242632    2.272846   -2.132809
  15 H     1.0000    0     1.008   -5.834038   -0.080232   -3.919085
  16 H     1.0000    0     1.008   -2.924637    1.152952   -4.991085
  17 C     6.0000    0    12.011   -2.983767   -1.966843    2.713104
  18 C     6.0000    0    12.011   -2.402152   -4.090391    4.300527
  19 C     6.0000    0    12.011   -1.912874   -3.764195    6.823380
  20 C     6.0000    0    12.011   -2.031473   -1.397521    7.873275
  21 C     6.0000    0    12.011   -2.662165    0.712897    6.379413
  22 C     6.0000    0    12.011   -2.999730    0.307036    3.903182
  23 H     1.0000    0     1.008   -1.665922   -1.117136    9.875921
  24 H     1.0000    0     1.008   -2.972222    2.442489    7.321188
  25 H     1.0000    0     1.008   -2.605838   -5.969106    3.599046
  26 H     1.0000    0     1.008   -1.812099   -5.384894    8.061410
  27 H     1.0000    0     1.008   -3.733852    6.469262    2.580372
  28 C     6.0000    0    12.011   -4.190019   -2.383429    0.230795
  29 H     1.0000    0     1.008   -6.000865   -1.408622    0.259983
  30 H     1.0000    0     1.008   -4.683917   -4.350295   -0.057853
  31 O     8.0000    0    15.999    3.748223   -0.724806   -2.360173
  32 C     6.0000    0    12.011    4.192697   -0.955902   -4.764778
  33 O     8.0000    0    15.999    2.676154   -0.989123   -6.376225
  34 C     6.0000    0    12.011    7.002568   -1.173273   -5.560143
  35 H     1.0000    0     1.008    7.229711   -3.146236   -6.153458
  36 H     1.0000    0     1.008    8.391935   -0.702524   -4.242222
  37 H     1.0000    0     1.008    7.252359   -0.094268   -7.330455
* core charge reduced due to ECP

--------------------------------
INTERNAL COORDINATES (ANGSTROEM)
--------------------------------
 Pd     0   0   0     0.000000000000     0.00000000     0.00000000
 O      1   0   0     2.004082123495     0.00000000     0.00000000
 C      2   1   0     1.391610752949   101.93472814     0.00000000
 O      3   2   1     1.168422518327   120.29584352     5.19763935
 C      3   2   1     1.539935716560   116.12911039   191.09289584
 H      5   3   2     1.093920476564   107.28571860   220.25494932
 H      5   3   2     1.087089942144   109.17236353   104.78778995
 H      5   3   2     1.082875882044   114.73912979   342.01542986
 N      1   2   3     2.283791783166   176.28858668   295.31873515
 C      9   1   2     1.457305515119   119.01067200   191.46596868
 H     10   9   1     1.069977418077   109.87294660   298.43001671
 H     10   9   1     1.087353382438   107.71914640   181.41829754
 H     10   9   1     1.074312005541   109.72156520    60.33867631
 C      9   1   2     1.471520013492   102.41108870    70.62223834
 H     14   9   1     1.074751522123   112.66749149   310.30120670
 H     14   9   1     1.089260063697   107.52402478   188.57738681
 H     14   9   1     1.085405822816   107.81195901    71.67975673
 C      9   1   2     2.538166385107    74.32318240   312.08279068
 C     18   9   1     1.436367183942   130.78217254   258.41832029
 C     19  18   9     1.370822655631   120.76503297   158.28525403
 C     20  19  18     1.371527884417   120.05600717     1.48946919
 C     21  20  19     1.408373103347   120.50094893     0.20011660
 C     22  21  20     1.339810592132   116.96493737   356.60482830
 H     21  20  19     1.087434495363   120.74522055   179.37973105
 H     22  21  20     1.054984070383   117.36404269   171.79665370
 H     19  18   9     1.066674216210   120.26456857   329.35826606
 H     20  19  18     1.080550326648   119.99000730   168.94778054
 H      4   3   2     3.079812815853   122.58023379    88.19097075
 C     18   9   1     1.477006183217    33.30967501   175.31342760
 H     29  18   9     1.088390808633   107.28591992   239.18148153
 H     29  18   9     1.083950340220   111.89108909   125.51872706
 O      1   2   3     1.997982502309    78.08745696   116.98925559
 C     32   1   2     1.299783271451   132.95926642   229.76688897
 O     33  32   1     1.171116526458   126.17456826   340.24529823
 C     33  32   1     1.549615774079   116.52059407   159.42777194
 H     35  33  32     1.096840121190   104.68813092   108.62308375
 H     35  33  32     1.043547993151   118.47638733   345.69422305
 H     35  33  32     1.105037018989   107.85949607   218.55181102

---------------------------
INTERNAL COORDINATES (A.U.)
---------------------------
 Pd     0   0   0     0.000000000000     0.00000000     0.00000000
 O      1   0   0     3.787166363293     0.00000000     0.00000000
 C      2   1   0     2.629763208094   101.93472814     0.00000000
 O      3   2   1     2.207998568345   120.29584352     5.19763935
 C      3   2   1     2.910056768143   116.12911039   191.09289584
 H      5   3   2     2.067210112995   107.28571860   220.25494932
 H      5   3   2     2.054302273592   109.17236353   104.78778995
 H      5   3   2     2.046338854092   114.73912979   342.01542986
 N      1   2   3     4.315741017083   176.28858668   295.31873515
 C      9   1   2     2.753908317027   119.01067200   191.46596868
 H     10   9   1     2.021964289646   109.87294660   298.43001671
 H     10   9   1     2.054800103600   107.71914640   181.41829754
 H     10   9   1     2.030155472857   109.72156520    60.33867631
 C      9   1   2     2.780769826083   102.41108870    70.62223834
 H     14   9   1     2.030986038828   112.66749149   310.30120670
 H     14   9   1     2.058403209004   107.52402478   188.57738681
 H     14   9   1     2.051119749285   107.81195901    71.67975673
 C      9   1   2     4.796439350178    74.32318240   312.08279068
 C     18   9   1     2.714340605402   130.78217254   258.41832029
 C     19  18   9     2.590479397318   120.76503297   158.28525403
 C     20  19  18     2.591812086584   120.05600717     1.48946919
 C     21  20  19     2.661439459707   120.50094893     0.20011660
 C     22  21  20     2.531875090457   116.96493737   356.60482830
 H     21  20  19     2.054953384814   120.74522055   179.37973105
 H     22  21  20     1.993630968674   117.36404269   171.79665370
 H     19  18   9     2.015722142752   120.26456857   329.35826606
 H     20  19  18     2.041944191283   119.99000730   168.94778054
 H      4   3   2     5.820002765703   122.58023379    88.19097075
 C     18   9   1     2.791137184389    33.30967501   175.31342760
 H     29  18   9     2.056760554993   107.28591992   239.18148153
 H     29  18   9     2.048369285786   111.89108909   125.51872706
 O      1   2   3     3.775639749731    78.08745696   116.98925559
 C     32   1   2     2.456234416494   132.95926642   229.76688897
 O     33  32   1     2.213089505916   126.17456826   340.24529823
 C     33  32   1     2.928349425813   116.52059407   159.42777194
 H     35  33  32     2.072727441746   104.68813092   108.62308375
 H     35  33  32     1.972019914658   118.47638733   345.69422305
 H     35  33  32     2.088217333733   107.85949607   218.55181102

---------------------
BASIS SET INFORMATION
---------------------
There are 5 groups of distinct atoms

 Group   1 Type Pd  : 7s6p5d1f contracted to 5s3p2d1f pattern {31111/411/41/1}
 Group   2 Type O   : 8s4p1d contracted to 4s2p1d pattern {5111/31/1}
 Group   3 Type C   : 8s4p1d contracted to 4s2p1d pattern {5111/31/1}
 Group   4 Type H   : 4s contracted to 2s pattern {31}
 Group   5 Type N   : 8s4p1d contracted to 4s2p1d pattern {5111/31/1}

Atom   0Pd   basis set group =>   1
Atom   1O    basis set group =>   2
Atom   2C    basis set group =>   3
Atom   3O    basis set group =>   2
Atom   4C    basis set group =>   3
Atom   5H    basis set group =>   4
Atom   6H    basis set group =>   4
Atom   7H    basis set group =>   4
Atom   8N    basis set group =>   5
Atom   9C    basis set group =>   3
Atom  10H    basis set group =>   4
Atom  11H    basis set group =>   4
Atom  12H    basis set group =>   4
Atom  13C    basis set group =>   3
Atom  14H    basis set group =>   4
Atom  15H    basis set group =>   4
Atom  16H    basis set group =>   4
Atom  17C    basis set group =>   3
Atom  18C    basis set group =>   3
Atom  19C    basis set group =>   3
Atom  20C    basis set group =>   3
Atom  21C    basis set group =>   3
Atom  22C    basis set group =>   3
Atom  23H    basis set group =>   4
Atom  24H    basis set group =>   4
Atom  25H    basis set group =>   4
Atom  26H    basis set group =>   4
Atom  27H    basis set group =>   4
Atom  28C    basis set group =>   3
Atom  29H    basis set group =>   4
Atom  30H    basis set group =>   4
Atom  31O    basis set group =>   2
Atom  32C    basis set group =>   3
Atom  33O    basis set group =>   2
Atom  34C    basis set group =>   3
Atom  35H    basis set group =>   4
Atom  36H    basis set group =>   4
Atom  37H    basis set group =>   4
---------------------------------
AUXILIARY/J BASIS SET INFORMATION
---------------------------------
There are 5 groups of distinct atoms

 Group   1 Type Pd  : 11s5p5d3f3g contracted to 8s5p5d2f3g pattern {41111111/11111/11111/21/111}
 Group   2 Type O   : 12s5p4d2f1g contracted to 6s4p3d1f1g pattern {711111/2111/211/2/1}
 Group   3 Type C   : 12s5p4d2f1g contracted to 6s4p3d1f1g pattern {711111/2111/211/2/1}
 Group   4 Type H   : 5s2p1d contracted to 3s1p1d pattern {311/2/1}
 Group   5 Type N   : 12s5p4d2f1g contracted to 6s4p3d1f1g pattern {711111/2111/211/2/1}

Atom   0Pd   basis set group =>   1
Atom   1O    basis set group =>   2
Atom   2C    basis set group =>   3
Atom   3O    basis set group =>   2
Atom   4C    basis set group =>   3
Atom   5H    basis set group =>   4
Atom   6H    basis set group =>   4
Atom   7H    basis set group =>   4
Atom   8N    basis set group =>   5
Atom   9C    basis set group =>   3
Atom  10H    basis set group =>   4
Atom  11H    basis set group =>   4
Atom  12H    basis set group =>   4
Atom  13C    basis set group =>   3
Atom  14H    basis set group =>   4
Atom  15H    basis set group =>   4
Atom  16H    basis set group =>   4
Atom  17C    basis set group =>   3
Atom  18C    basis set group =>   3
Atom  19C    basis set group =>   3
Atom  20C    basis set group =>   3
Atom  21C    basis set group =>   3
Atom  22C    basis set group =>   3
Atom  23H    basis set group =>   4
Atom  24H    basis set group =>   4
Atom  25H    basis set group =>   4
Atom  26H    basis set group =>   4
Atom  27H    basis set group =>   4
Atom  28C    basis set group =>   3
Atom  29H    basis set group =>   4
Atom  30H    basis set group =>   4
Atom  31O    basis set group =>   2
Atom  32C    basis set group =>   3
Atom  33O    basis set group =>   2
Atom  34C    basis set group =>   3
Atom  35H    basis set group =>   4
Atom  36H    basis set group =>   4
Atom  37H    basis set group =>   4
-------------------------
ECP PARAMETER INFORMATION
-------------------------

 Group 1, Type Pd ECP Def2-ECP (replacing 28 core electrons, lmax=3)

Atom   0Pd   ECP group =>   1

------------------------------------------------------------------------------
                           ORCA GTO INTEGRAL CALCULATION
                           -- RI-GTO INTEGRALS CHOSEN --
------------------------------------------------------------------------------
------------------------------------------------------------------------------
                   ___                                                        
                  /   \      - P O W E R E D   B Y -                         
                 /     \                                                     
                 |  |  |   _    _      __       _____    __    __             
                 |  |  |  | |  | |    /  \     |  _  \  |  |  /  |          
                  \  \/   | |  | |   /    \    | | | |  |  | /  /          
                 / \  \   | |__| |  /  /\  \   | |_| |  |  |/  /          
                |  |  |   |  __  | /  /__\  \  |    /   |      \           
                |  |  |   | |  | | |   __   |  |    \   |  |\   \          
                \     /   | |  | | |  |  |  |  | |\  \  |  | \   \       
                 \___/    |_|  |_| |__|  |__|  |_| \__\ |__|  \__/        
                                                                              
                      - O R C A' S   B I G   F R I E N D -                    
                                      &                                       
                       - I N T E G R A L  F E E D E R -                       
                                                                              
 v1 FN, 2020, v2 2021                                                         
------------------------------------------------------------------------------


Reading SHARK input file 6_7_orca.SHARKINP.tmp ... ok
----------------------
SHARK INTEGRAL PACKAGE
----------------------

Number of atoms                             ...     38
Number of basis functions                   ...    339
Number of shells                            ...    175
Maximum angular momentum                    ...      3
Integral batch strategy                     ... SHARK/LIBINT Hybrid
RI-J (if used) integral strategy            ... SPLIT-RIJ (Revised 2003 algorithm where possible)
Printlevel                                  ...      1
Contraction scheme used                     ... SEGMENTED contraction
Coulomb Range Separation                    ... NOT USED
Exchange Range Separation                   ... NOT USED
Finite Nucleus Model                        ... NOT USED
Auxiliary Coulomb fitting basis             ... AVAILABLE
   # of basis functions in Aux-J            ...   1180
   # of shells in Aux-J                     ...    388
   Maximum angular momentum in Aux-J        ...      4
Auxiliary J/K fitting basis                 ... NOT available
Auxiliary Correlation fitting basis         ... NOT available
Auxiliary 'external' fitting basis          ... NOT available
Integral threshold                          ...     2.500000e-11
Primitive cut-off                           ...     2.500000e-12
Primitive pair pre-selection threshold      ...     2.500000e-12

Calculating pre-screening integrals         ... done (  0.1 sec) Dimension = 175
Organizing shell pair data                  ... done (  0.1 sec)
Shell pair information
Total number of shell pairs                 ...     15400
Shell pairs after pre-screening             ...     10659
Total number of primitive shell pairs       ...     54591
Primitive shell pairs kept                  ...     23653
          la=0 lb=0:   4060 shell pairs
          la=1 lb=0:   3541 shell pairs
          la=1 lb=1:    710 shell pairs
          la=2 lb=0:   1431 shell pairs
          la=2 lb=1:    637 shell pairs
          la=2 lb=2:    139 shell pairs
          la=3 lb=0:     83 shell pairs
          la=3 lb=1:     39 shell pairs
          la=3 lb=2:     18 shell pairs
          la=3 lb=3:      1 shell pairs

Calculating one electron integrals          ... done (  0.1 sec)
Calculating ECP integrals                   ... done (  0.4 sec)
Calculating RI/J V-Matrix + Cholesky decomp.... done (  0.1 sec)
Calculating Nuclear repulsion               ... done (  0.0 sec) ENN=   1701.371024963190 Eh

SHARK setup successfully completed in   1.0 seconds

Maximum memory used throughout the entire GTOINT-calculation: 74.2 MB
-------------------------------------------------------------------------------
                                 ORCA SCF
-------------------------------------------------------------------------------

------------
SCF SETTINGS
------------
Hamiltonian:
 Density Functional     Method          .... DFT(GTOs)
 Exchange Functional    Exchange        .... PBE
   PBE kappa parameter   XKappa         ....  1.024500
   PBE mue parameter    XMuePBE         ....  0.123457
 Correlation Functional Correlation     .... PBE
   PBE beta parameter  CBetaPBE         ....  0.030000
 LDA part of GGA corr.  LDAOpt          .... PW91-LDA
 Gradients option       PostSCFGGA      .... off
 Hybrid DFT is turned on
   Fraction HF Exchange ScalHFX         ....  0.420000
   Scaling of DF-GGA-X  ScalDFX         ....  0.580000
   Scaling of DF-GGA-C  ScalDFC         ....  1.000000
   Scaling of DF-LDA-C  ScalLDAC        ....  1.000000
   Perturbative correction              ....  0.000000
   Density functional embedding theory  .... OFF
 RI-approximation to the Coulomb term is turned on
   Number of AuxJ basis functions       .... 1180
   RIJ-ON(X) (HFX calculated with O(N)) .... on
   Number of AuxJ basis functions       .... 1180
   RIJ-COSX (HFX calculated with COS-X)).... on


General Settings:
 Integral files         IntName         .... 6_7_orca
 Hartree-Fock type      HFTyp           .... RHF
 Total Charge           Charge          ....    0
 Multiplicity           Mult            ....    1
 Number of Electrons    NEL             ....  154
 Basis Dimension        Dim             ....  339
 Nuclear Repulsion      ENuc            ....   1701.3710249632 Eh

Convergence Acceleration:
 DIIS                   CNVDIIS         .... on
   Start iteration      DIISMaxIt       ....    12
   Startup error        DIISStart       ....  0.200000
   # of expansion vecs  DIISMaxEq       ....     5
   Bias factor          DIISBfac        ....   1.050
   Max. coefficient     DIISMaxC        ....  10.000
 Trust-Rad. Augm. Hess. CNVTRAH         .... auto
   Auto Start mean grad. ratio tolernc. ....  1.125000
   Auto Start start iteration           ....    20
   Auto Start num. interpolation iter.  ....    10
   Max. Number of Micro iterations      ....    16
   Max. Number of Macro iterations      .... Maxiter - #DIIS iter
   Number of Davidson start vectors     ....     2
   Converg. threshold I  (grad. norm)   ....   1.000e-05
   Converg. threshold II (energy diff.) ....   1.000e-08
   Grad. Scal. Fac. for Micro threshold ....   0.100
   Minimum threshold for Micro iter.    ....   0.010
   NR start threshold (gradient norm)   ....   0.001
   Initial trust radius                 ....   0.400
   Minimum AH scaling param. (alpha)    ....   1.000
   Maximum AH scaling param. (alpha)    .... 1000.000
   Orbital update algorithm             .... Taylor
   White noise on init. David. guess    .... on
   Maximum white noise                  ....   0.010
   Quad. conv. algorithm                .... NR
   COSX micro iterations for RIJONX calc.... off
 SOSCF                  CNVSOSCF        .... off
 Level Shifting         CNVShift        .... on
   Level shift para.    LevelShift      ....    0.2500
   Turn off err/grad.   ShiftErr        ....    0.0010
 Zerner damping         CNVZerner       .... off
 Static damping         CNVDamp         .... on
   Fraction old density DampFac         ....    0.7000
   Max. Damping (<1)    DampMax         ....    0.9800
   Min. Damping (>=0)   DampMin         ....    0.0000
   Turn off err/grad.   DampErr         ....    0.1000
 Fernandez-Rico         CNVRico         .... off

SCF Procedure:
 Maximum # iterations   MaxIter         ....   250
 SCF integral mode      SCFMode         .... Direct
   Integral package                     .... SHARK and LIBINT hybrid scheme
 Reset frequency        DirectResetFreq ....    20
 Integral Threshold     Thresh          ....  2.500e-11 Eh
 Primitive CutOff       TCut            ....  2.500e-12 Eh

Convergence Tolerance:
 Convergence Check Mode ConvCheckMode   .... Total+1el-Energy
 Convergence forced     ConvForced      .... 0
 Energy Change          TolE            ....  1.000e-08 Eh
 1-El. energy change                    ....  1.000e-05 Eh
 DIIS Error             TolErr          ....  5.000e-07


Diagonalization of the overlap matrix:
Smallest eigenvalue                        ... 7.035e-04
Time for diagonalization                   ...    0.017 sec
Threshold for overlap eigenvalues          ... 1.000e-08
Number of eigenvalues below threshold      ... 0
Time for construction of square roots      ...    0.006 sec
Total time needed                          ...    0.024 sec

--------------------------------
INITIAL GUESS: MINIMAL BASIS EHT
--------------------------------
The minimal basis has 122 functions
EHT matrix was diagonalized
Basis set overlap was calculated now projecting the orbitals
Using GuessMode=FMatrix for the initial guess
C*T matrix was formed
Effective Fockian was calculated
Effective Fockian was diagonalized
Initial density was built
                      ------------------
                      INITIAL GUESS DONE
                      ------------------
-------------------
DFT GRID GENERATION
-------------------

General Integration Accuracy     IntAcc      ... 4.159
Radial Grid Type                 RadialGrid  ... OptM3 with GC (2021)
Angular Grid (max. ang.)         AngularGrid ... 3 (Lebedev-194)
Angular grid pruning method      GridPruning ... 4 (adaptive)
Weight generation scheme         WeightScheme... Becke
Basis function cutoff            BFCut       ... 1.0000e-11
Integration weight cutoff        WCut        ... 1.0000e-14
Angular grids for H and He will be reduced by one unit
Partially contracted basis set               ... off
Rotationally invariant grid construction     ... off

Total number of grid points                  ...    90209
Total number of batches                      ...     1429
Average number of points per batch           ...       63
Average number of grid points per atom       ...     2374
Time for grid setup =    1.687 sec

--------------------
COSX GRID GENERATION
--------------------

GRIDX 1
-------
General Integration Accuracy     IntAcc      ... 3.816
Radial Grid Type                 RadialGrid  ... OptM3 with GC (2021)
Angular Grid (max. ang.)         AngularGrid ... 1 (Lebedev-50)
Angular grid pruning method      GridPruning ... 4 (adaptive)
Weight generation scheme         WeightScheme... Becke
Basis function cutoff            BFCut       ... 1.0000e-11
Integration weight cutoff        WCut        ... 1.0000e-14
Angular grids for H and He will be reduced by one unit
Partially contracted basis set               ... on
Rotationally invariant grid construction     ... off

Total number of grid points                  ...    22527
Total number of batches                      ...      371
Average number of points per batch           ...       60
Average number of grid points per atom       ...      593
UseSFitting                                  ... on

GRIDX 2
-------
General Integration Accuracy     IntAcc      ... 4.020
Radial Grid Type                 RadialGrid  ... OptM3 with GC (2021)
Angular Grid (max. ang.)         AngularGrid ... 2 (Lebedev-110)
Angular grid pruning method      GridPruning ... 4 (adaptive)
Weight generation scheme         WeightScheme... Becke
Basis function cutoff            BFCut       ... 1.0000e-11
Integration weight cutoff        WCut        ... 1.0000e-14
Angular grids for H and He will be reduced by one unit
Partially contracted basis set               ... on
Rotationally invariant grid construction     ... off

Total number of grid points                  ...    48387
Total number of batches                      ...      775
Average number of points per batch           ...       62
Average number of grid points per atom       ...     1273
UseSFitting                                  ... on

GRIDX 3
-------
General Integration Accuracy     IntAcc      ... 4.338
Radial Grid Type                 RadialGrid  ... OptM3 with GC (2021)
Angular Grid (max. ang.)         AngularGrid ... 3 (Lebedev-194)
Angular grid pruning method      GridPruning ... 4 (adaptive)
Weight generation scheme         WeightScheme... Becke
Basis function cutoff            BFCut       ... 1.0000e-11
Integration weight cutoff        WCut        ... 1.0000e-14
Angular grids for H and He will be reduced by one unit
Partially contracted basis set               ... on
Rotationally invariant grid construction     ... off

Total number of grid points                  ...   104791
Total number of batches                      ...     1656
Average number of points per batch           ...       63
Average number of grid points per atom       ...     2758
UseSFitting                                  ... on

Time for X-Grid setup             =    4.245 sec

--------------
SCF ITERATIONS
--------------
ITER       Energy         Delta-E        Max-DP      RMS-DP      [F,P]     Damp
               ***  Starting incremental Fock matrix formation  ***
  0   -976.6906998316   0.000000000000 2.72978099  0.02191473  5.2435453 0.7000
  1   -977.8002692235  -1.109569391942 3.92913511  0.02742558  3.8651850 0.7000
  2   -978.7663764729  -0.966107249323 1.29793574  0.01016175  2.7532652 0.7000
  3   -981.3146934891  -2.548317016194 0.85237426  0.00694240  1.9663297 0.7000
  4   -983.3144372777  -1.999743788653 0.58264472  0.00487512  1.3605671 0.7000
  5   -984.7397908335  -1.425353555760 0.41265003  0.00347819  0.9451972 0.7000
  6   -985.7668685320  -1.027077698493 0.29453632  0.00248819  0.6620927 0.7000
  7   -986.4993993644  -0.732530832467 0.20922417  0.00176935  0.4659638 0.7000
  8   -987.0180737715  -0.518674407098 0.14750703  0.00125054  0.3279821 0.7000
  9   -987.3847261666  -0.366652395049 0.10334189  0.00088269  0.2303674 0.7000
                               ***Turning on DIIS***
 10   -987.6434793494  -0.258753182843 0.07215716  0.00062537  0.1614477 0.7000
 11   -987.8257045184  -0.182225168950 0.05046963  0.00045553  0.1129986 0.7000
 12   -987.9538805531  -0.128176034701 0.11826220  0.00110828  0.0790481 0.0000
 13   -988.2554346710  -0.301554117924 0.00554389  0.00007978  0.0027102 0.0000
 14   -988.2556709177  -0.000236246674 0.00453342  0.00005895  0.0022270 0.0000
 15   -988.2558024224  -0.000131504725 0.00457685  0.00005430  0.0017912 0.0000
 16   -988.2559043351  -0.000101912674 0.00394120  0.00004504  0.0013443 0.0000
 17   -988.2559634199  -0.000059084833 0.00602994  0.00007018  0.0009416 0.0000
               *** Restarting incremental Fock matrix formation ***
                                   *** Resetting DIIS ***
 18   -988.2561604006  -0.000196980746 0.00173544  0.00003162  0.0004597 0.0000
 19   -988.2561667085  -0.000006307849 0.00239916  0.00001561  0.0005891 0.0000
 20   -988.2561665630   0.000000145492 0.00046178  0.00000429  0.0011420 0.0000
 21   -988.2561692357  -0.000002672738 0.00158263  0.00001317  0.0006234 0.0000
 22   -988.2561715467  -0.000002310944 0.00080516  0.00000746  0.0004111 0.0000
 23   -988.2561725401  -0.000000993416 0.00061593  0.00000473  0.0001337 0.0000
 24   -988.2561728413  -0.000000301215 0.00020058  0.00000183  0.0001184 0.0000
 25   -988.2561729340  -0.000000092692 0.00033890  0.00000278  0.0000437 0.0000
 26   -988.2561729853  -0.000000051314 0.00007898  0.00000073  0.0000161 0.0000
 27   -988.2561730043  -0.000000018934 0.00004774  0.00000043  0.0000136 0.0000
 28   -988.2561730092  -0.000000004905 0.00005344  0.00000034  0.0000184 0.0000
 29   -988.2561730046   0.000000004582 0.00004274  0.00000038  0.0000238 0.0000
 30   -988.2561730096  -0.000000004983 0.00001724  0.00000016  0.0000049 0.0000
 31   -988.2561730152  -0.000000005635 0.00000622  0.00000007  0.0000036 0.0000
 32   -988.2561730139   0.000000001257 0.00001222  0.00000011  0.0000022 0.0000
 33   -988.2561730134   0.000000000568 0.00000636  0.00000004  0.0000016 0.0000
 34   -988.2561730169  -0.000000003527 0.00001012  0.00000010  0.0000028 0.0000
 35   -988.2561730155   0.000000001390 0.00000376  0.00000004  0.0000020 0.0000
 36   -988.2561730180  -0.000000002446 0.00000428  0.00000004  0.0000011 0.0000
                            ***DIIS convergence achieved***

               *****************************************************
               *                     SUCCESS                       *
               *           SCF CONVERGED AFTER  37 CYCLES          *
               *****************************************************

Old exchange energy                            =    -52.605105267 Eh
New exchange energy                            =    -52.605166954 Eh
Exchange energy change after final integration =     -0.000061687 Eh
Total energy after final integration           =   -988.256234704 Eh
Final COS-X integration done in                =    46.761 sec

----------------
TOTAL SCF ENERGY
----------------

Total Energy       :         -988.25623470 Eh          -26891.81930 eV

Components:
Nuclear Repulsion  :         1701.37102496 Eh           46296.65927 eV
Electronic Energy  :        -2689.62725967 Eh          -73188.47857 eV
One Electron Energy:        -4783.67318487 Eh         -130170.36509 eV
Two Electron Energy:         2094.04592520 Eh           56981.88653 eV
Max COSX asymmetry :            0.00002696 Eh               0.00073 eV

Virial components:
Potential Energy   :        -1890.43143471 Eh          -51441.25456 eV
Kinetic Energy     :          902.17520001 Eh           24549.43526 eV
Virial Ratio       :            2.09541499


DFT components:
N(Alpha)           :       76.999503928347 electrons
N(Beta)            :       76.999503928347 electrons
N(Total)           :      153.999007856693 electrons
E(X)               :      -70.202103542881 Eh       
E(C)               :       -6.891759649026 Eh       
E(XC)              :      -77.093863191908 Eh       
DFET-embed. en.    :        0.000000000000 Eh       

---------------
SCF CONVERGENCE
---------------

  Last Energy change         ...    1.0458e-09  Tolerance :   1.0000e-08
  Last MAX-Density change    ...    0.0000e+00  Tolerance :   1.0000e-07
  Last RMS-Density change    ...    0.0000e+00  Tolerance :   5.0000e-09
  Last DIIS Error            ...    4.7213e-07  Tolerance :   5.0000e-07

             **** THE GBW FILE WAS UPDATED (6_7_orca.gbw) ****
             **** DENSITY 6_7_orca.scfp WAS UPDATED ****
             **** ENERGY FILE WAS UPDATED (6_7_orca.en.tmp) ****
             **** THE GBW FILE WAS UPDATED (6_7_orca.gbw) ****
             **** DENSITY 6_7_orca.scfp WAS UPDATED ****
----------------
ORBITAL ENERGIES
----------------

  NO   OCC          E(Eh)            E(eV) 
   0   2.0000     -19.477511      -530.0100 
   1   2.0000     -19.465118      -529.6728 
   2   2.0000     -19.460459      -529.5460 
   3   2.0000     -19.423002      -528.5268 
   4   2.0000     -14.713775      -400.3822 
   5   2.0000     -10.547380      -287.0088 
   6   2.0000     -10.525521      -286.4140 
   7   2.0000     -10.520584      -286.2797 
   8   2.0000     -10.512931      -286.0714 
   9   2.0000     -10.509071      -285.9664 
  10   2.0000     -10.492413      -285.5131 
  11   2.0000     -10.488236      -285.3994 
  12   2.0000     -10.485981      -285.3381 
  13   2.0000     -10.479029      -285.1489 
  14   2.0000     -10.477617      -285.1105 
  15   2.0000     -10.468066      -284.8506 
  16   2.0000     -10.426766      -283.7267 
  17   2.0000     -10.403833      -283.1027 
  18   2.0000      -3.657036       -99.5130 
  19   2.0000      -2.307732       -62.7966 
  20   2.0000      -2.297081       -62.5067 
  21   2.0000      -2.268895       -61.7398 
  22   2.0000      -1.179690       -32.1010 
  23   2.0000      -1.152972       -31.3740 
  24   2.0000      -1.068614       -29.0785 
  25   2.0000      -1.050832       -28.5946 
  26   2.0000      -1.040500       -28.3134 
  27   2.0000      -1.006827       -27.3972 
  28   2.0000      -0.908544       -24.7227 
  29   2.0000      -0.878775       -23.9127 
  30   2.0000      -0.820067       -22.3152 
  31   2.0000      -0.814564       -22.1654 
  32   2.0000      -0.804526       -21.8923 
  33   2.0000      -0.781628       -21.2692 
  34   2.0000      -0.726776       -19.7766 
  35   2.0000      -0.717873       -19.5343 
  36   2.0000      -0.684977       -18.6392 
  37   2.0000      -0.616486       -16.7755 
  38   2.0000      -0.591514       -16.0959 
  39   2.0000      -0.581025       -15.8105 
  40   2.0000      -0.576758       -15.6944 
  41   2.0000      -0.573235       -15.5985 
  42   2.0000      -0.566107       -15.4046 
  43   2.0000      -0.546033       -14.8583 
  44   2.0000      -0.535922       -14.5832 
  45   2.0000      -0.523619       -14.2484 
  46   2.0000      -0.511235       -13.9114 
  47   2.0000      -0.508891       -13.8476 
  48   2.0000      -0.505156       -13.7460 
  49   2.0000      -0.499445       -13.5906 
  50   2.0000      -0.491273       -13.3682 
  51   2.0000      -0.483463       -13.1557 
  52   2.0000      -0.482775       -13.1370 
  53   2.0000      -0.479607       -13.0508 
  54   2.0000      -0.468115       -12.7381 
  55   2.0000      -0.454045       -12.3552 
  56   2.0000      -0.450062       -12.2468 
  57   2.0000      -0.442321       -12.0362 
  58   2.0000      -0.440119       -11.9762 
  59   2.0000      -0.438598       -11.9349 
  60   2.0000      -0.432708       -11.7746 
  61   2.0000      -0.426178       -11.5969 
  62   2.0000      -0.403391       -10.9768 
  63   2.0000      -0.393828       -10.7166 
  64   2.0000      -0.376817       -10.2537 
  65   2.0000      -0.360947        -9.8219 
  66   2.0000      -0.342088        -9.3087 
  67   2.0000      -0.340224        -9.2580 
  68   2.0000      -0.335679        -9.1343 
  69   2.0000      -0.332604        -9.0506 
  70   2.0000      -0.323606        -8.8058 
  71   2.0000      -0.314188        -8.5495 
  72   2.0000      -0.304994        -8.2993 
  73   2.0000      -0.288225        -7.8430 
  74   2.0000      -0.276642        -7.5278 
  75   2.0000      -0.274507        -7.4697 
  76   2.0000      -0.258395        -7.0313 
  77   0.0000      -0.164250        -4.4695 
  78   0.0000      -0.076956        -2.0941 
  79   0.0000      -0.032230        -0.8770 
  80   0.0000      -0.009156        -0.2491 
  81   0.0000       0.062113         1.6902 
  82   0.0000       0.069847         1.9006 
  83   0.0000       0.086625         2.3572 
  84   0.0000       0.099117         2.6971 
  85   0.0000       0.112570         3.0632 
  86   0.0000       0.120883         3.2894 
  87   0.0000       0.125280         3.4091 
  88   0.0000       0.131391         3.5753 
  89   0.0000       0.139851         3.8055 
  90   0.0000       0.149267         4.0618 
  91   0.0000       0.163695         4.4544 
  92   0.0000       0.172217         4.6863 
  93   0.0000       0.176118         4.7924 
  94   0.0000       0.183046         4.9809 
  95   0.0000       0.203414         5.5352 
  96   0.0000       0.208127         5.6634 
  97   0.0000       0.208725         5.6797 
  98   0.0000       0.210716         5.7339 
  99   0.0000       0.220591         6.0026 
 100   0.0000       0.223530         6.0826 
 101   0.0000       0.233139         6.3440 
 102   0.0000       0.240643         6.5482 
 103   0.0000       0.242416         6.5965 
 104   0.0000       0.246069         6.6959 
 105   0.0000       0.250026         6.8036 
 106   0.0000       0.252935         6.8827 
 107   0.0000       0.258820         7.0428 
 108   0.0000       0.265161         7.2154 
 109   0.0000       0.270034         7.3480 
 110   0.0000       0.272350         7.4110 
 111   0.0000       0.281988         7.6733 
 112   0.0000       0.288321         7.8456 
 113   0.0000       0.300133         8.1670 
 114   0.0000       0.316404         8.6098 
 115   0.0000       0.336089         9.1455 
 116   0.0000       0.352679         9.5969 
 117   0.0000       0.369550        10.0560 
 118   0.0000       0.378791        10.3074 
 119   0.0000       0.396115        10.7788 
 120   0.0000       0.417171        11.3518 
 121   0.0000       0.430969        11.7273 
 122   0.0000       0.445127        12.1125 
 123   0.0000       0.454786        12.3754 
 124   0.0000       0.463494        12.6123 
 125   0.0000       0.478789        13.0285 
 126   0.0000       0.488856        13.3024 
 127   0.0000       0.499419        13.5899 
 128   0.0000       0.510005        13.8779 
 129   0.0000       0.525652        14.3037 
 130   0.0000       0.537278        14.6201 
 131   0.0000       0.541777        14.7425 
 132   0.0000       0.550049        14.9676 
 133   0.0000       0.556854        15.1528 
 134   0.0000       0.562598        15.3091 
 135   0.0000       0.566202        15.4071 
 136   0.0000       0.574287        15.6271 
 137   0.0000       0.585018        15.9191 
 138   0.0000       0.588341        16.0096 
 139   0.0000       0.594433        16.1753 
 140   0.0000       0.601189        16.3592 
 141   0.0000       0.602154        16.3854 
 142   0.0000       0.607508        16.5311 
 143   0.0000       0.616030        16.7630 
 144   0.0000       0.622371        16.9356 
 145   0.0000       0.624574        16.9955 
 146   0.0000       0.631236        17.1768 
 147   0.0000       0.638789        17.3823 
 148   0.0000       0.645742        17.5715 
 149   0.0000       0.660269        17.9668 
 150   0.0000       0.667244        18.1566 
 151   0.0000       0.680689        18.5225 
 152   0.0000       0.687250        18.7010 
 153   0.0000       0.715397        19.4669 
 154   0.0000       0.715682        19.4747 
 155   0.0000       0.723090        19.6763 
 156   0.0000       0.735577        20.0161 
 157   0.0000       0.757102        20.6018 
 158   0.0000       0.768967        20.9247 
 159   0.0000       0.785046        21.3622 
 160   0.0000       0.816048        22.2058 
 161   0.0000       0.825947        22.4751 
 162   0.0000       0.829375        22.5684 
 163   0.0000       0.855271        23.2731 
 164   0.0000       0.868100        23.6222 
 165   0.0000       0.890003        24.2182 
 166   0.0000       0.892010        24.2728 
 167   0.0000       0.901890        24.5417 
 168   0.0000       0.909503        24.7488 
 169   0.0000       0.916605        24.9421 
 170   0.0000       0.927967        25.2513 
 171   0.0000       0.949484        25.8368 
 172   0.0000       0.952703        25.9244 
 173   0.0000       0.960109        26.1259 
 174   0.0000       0.970431        26.4068 
 175   0.0000       0.978747        26.6331 
 176   0.0000       0.989621        26.9289 
 177   0.0000       1.002822        27.2882 
 178   0.0000       1.005660        27.3654 
 179   0.0000       1.009966        27.4826 
 180   0.0000       1.016026        27.6475 
 181   0.0000       1.019231        27.7347 
 182   0.0000       1.022538        27.8247 
 183   0.0000       1.037451        28.2305 
 184   0.0000       1.049795        28.5664 
 185   0.0000       1.059717        28.8364 
 186   0.0000       1.067211        29.0403 
 187   0.0000       1.073953        29.2238 
 188   0.0000       1.078072        29.3358 
 189   0.0000       1.081871        29.4392 
 190   0.0000       1.085335        29.5335 
 191   0.0000       1.093155        29.7463 
 192   0.0000       1.106698        30.1148 
 193   0.0000       1.115210        30.3464 
 194   0.0000       1.122342        30.5405 
 195   0.0000       1.131773        30.7971 
 196   0.0000       1.136887        30.9363 
 197   0.0000       1.150811        31.3152 
 198   0.0000       1.171385        31.8750 
 199   0.0000       1.190313        32.3901 
 200   0.0000       1.199218        32.6324 
 201   0.0000       1.203660        32.7533 
 202   0.0000       1.216924        33.1142 
 203   0.0000       1.219142        33.1745 
 204   0.0000       1.242846        33.8196 
 205   0.0000       1.258783        34.2532 
 206   0.0000       1.272309        34.6213 
 207   0.0000       1.274293        34.6753 
 208   0.0000       1.295015        35.2391 
 209   0.0000       1.328364        36.1466 
 210   0.0000       1.357419        36.9373 
 211   0.0000       1.381679        37.5974 
 212   0.0000       1.409364        38.3508 
 213   0.0000       1.429155        38.8893 
 214   0.0000       1.451101        39.4865 
 215   0.0000       1.464834        39.8602 
 216   0.0000       1.467053        39.9205 
 217   0.0000       1.474331        40.1186 
 218   0.0000       1.499050        40.7912 
 219   0.0000       1.506067        40.9822 
 220   0.0000       1.518742        41.3271 
 221   0.0000       1.534739        41.7624 
 222   0.0000       1.555130        42.3172 
 223   0.0000       1.562594        42.5203 
 224   0.0000       1.567374        42.6504 
 225   0.0000       1.573999        42.8307 
 226   0.0000       1.601838        43.5882 
 227   0.0000       1.639353        44.6091 
 228   0.0000       1.659232        45.1500 
 229   0.0000       1.748444        47.5776 
 230   0.0000       1.749658        47.6106 
 231   0.0000       1.768147        48.1137 
 232   0.0000       1.785485        48.5855 
 233   0.0000       1.802642        49.0524 
 234   0.0000       1.812774        49.3281 
 235   0.0000       1.831724        49.8437 
 236   0.0000       1.836418        49.9715 
 237   0.0000       1.846993        50.2592 
 238   0.0000       1.880129        51.1609 
 239   0.0000       1.894942        51.5640 
 240   0.0000       1.901943        51.7545 
 241   0.0000       1.910585        51.9896 
 242   0.0000       1.920118        52.2491 
 243   0.0000       1.936349        52.6907 
 244   0.0000       1.943834        52.8944 
 245   0.0000       1.951458        53.1019 
 246   0.0000       1.962076        53.3908 
 247   0.0000       1.985137        54.0183 
 248   0.0000       1.995530        54.3011 
 249   0.0000       2.015316        54.8395 
 250   0.0000       2.028024        55.1853 
 251   0.0000       2.044682        55.6386 
 252   0.0000       2.050030        55.7842 
 253   0.0000       2.060257        56.0624 
 254   0.0000       2.075583        56.4795 
 255   0.0000       2.083295        56.6893 
 256   0.0000       2.098224        57.0956 
 257   0.0000       2.106390        57.3178 
 258   0.0000       2.115421        57.5635 
 259   0.0000       2.120846        57.7112 
 260   0.0000       2.133182        58.0468 
 261   0.0000       2.148866        58.4736 
 262   0.0000       2.158405        58.7332 
 263   0.0000       2.164104        58.8883 
 264   0.0000       2.179734        59.3136 
 265   0.0000       2.187552        59.5263 
 266   0.0000       2.191774        59.6412 
 267   0.0000       2.197004        59.7835 
 268   0.0000       2.222745        60.4840 
 269   0.0000       2.237003        60.8719 
 270   0.0000       2.238268        60.9064 
 271   0.0000       2.247794        61.1656 
 272   0.0000       2.289281        62.2945 
 273   0.0000       2.311222        62.8915 
 274   0.0000       2.318379        63.0863 
 275   0.0000       2.319501        63.1168 
 276   0.0000       2.323897        63.2364 
 277   0.0000       2.328479        63.3611 
 278   0.0000       2.340579        63.6904 
 279   0.0000       2.352025        64.0019 
 280   0.0000       2.396780        65.2197 
 281   0.0000       2.402379        65.3720 
 282   0.0000       2.428522        66.0835 
 283   0.0000       2.451883        66.7191 
 284   0.0000       2.467451        67.1427 
 285   0.0000       2.476143        67.3793 
 286   0.0000       2.480821        67.5066 
 287   0.0000       2.488952        67.7278 
 288   0.0000       2.494323        67.8740 
 289   0.0000       2.505099        68.1672 
 290   0.0000       2.538854        69.0857 
 291   0.0000       2.555310        69.5335 
 292   0.0000       2.561338        69.6975 
 293   0.0000       2.575081        70.0715 
 294   0.0000       2.590917        70.5024 
 295   0.0000       2.606933        70.9383 
 296   0.0000       2.655481        72.2593 
 297   0.0000       2.675642        72.8079 
 298   0.0000       2.714930        73.8770 
 299   0.0000       2.717710        73.9526 
 300   0.0000       2.755386        74.9779 
 301   0.0000       2.759951        75.1021 
 302   0.0000       2.769315        75.3569 
 303   0.0000       2.807179        76.3872 
 304   0.0000       2.813731        76.5655 
 305   0.0000       2.830936        77.0337 
 306   0.0000       2.835298        77.1524 
 307   0.0000       2.851751        77.6001 
 308   0.0000       2.857249        77.7497 
 309   0.0000       2.868734        78.0622 
 310   0.0000       2.881034        78.3969 
 311   0.0000       2.974657        80.9445 
 312   0.0000       2.997851        81.5757 
 313   0.0000       3.060932        83.2922 
 314   0.0000       3.098939        84.3264 
 315   0.0000       3.104879        84.4881 
 316   0.0000       3.114938        84.7618 
 317   0.0000       3.220299        87.6288 
 318   0.0000       3.286230        89.4229 
 319   0.0000       3.443072        93.6908 
 320   0.0000      13.259550       360.8107 
 321   0.0000      13.598877       370.0443 
 322   0.0000      13.644387       371.2826 
 323   0.0000      13.686522       372.4292 
 324   0.0000      13.722470       373.4074 
 325   0.0000      13.739504       373.8709 
 326   0.0000      13.888430       377.9234 
 327   0.0000      13.934608       379.1800 
 328   0.0000      14.033646       381.8749 
 329   0.0000      14.109265       383.9326 
 330   0.0000      14.121585       384.2679 
 331   0.0000      14.179195       385.8355 
 332   0.0000      14.493716       394.3941 
 333   0.0000      19.350752       526.5607 
 334   0.0000      25.724873       700.0094 
 335   0.0000      25.750436       700.7050 
 336   0.0000      25.768701       701.2020 
 337   0.0000      25.833743       702.9719 
 338   0.0000      51.588028      1403.7816 

                    ********************************
                    * MULLIKEN POPULATION ANALYSIS *
                    ********************************

-----------------------
MULLIKEN ATOMIC CHARGES
-----------------------
   0 Pd:    0.445699
   1 O :   -0.525900
   2 C :    0.585180
   3 O :   -0.384699
   4 C :   -0.750952
   5 H :    0.235972
   6 H :    0.254103
   7 H :    0.249647
   8 N :   -0.463101
   9 C :   -0.535460
  10 H :    0.313353
  11 H :    0.205751
  12 H :    0.253884
  13 C :   -0.549251
  14 H :    0.285459
  15 H :    0.222320
  16 H :    0.291694
  17 C :   -0.017604
  18 C :   -0.239936
  19 C :   -0.194741
  20 C :   -0.230021
  21 C :   -0.257848
  22 C :    0.057401
  23 H :    0.248482
  24 H :    0.271904
  25 H :    0.238544
  26 H :    0.239892
  27 H :    0.016069
  28 C :   -0.324178
  29 H :    0.264717
  30 H :    0.256910
  31 O :   -0.529583
  32 C :    0.532458
  33 O :   -0.431512
  34 C :   -0.742448
  35 H :    0.226135
  36 H :    0.248641
  37 H :    0.233019
Sum of atomic charges:    0.0000000

--------------------------------
MULLIKEN REDUCED ORBITAL CHARGES
--------------------------------
  0 Pds       :     2.448838  s :     2.448838
      pz      :     2.099249  p :     6.396989
      px      :     2.177138
      py      :     2.120602
      dz2     :     1.962232  d :     8.704766
      dxz     :     1.382423
      dyz     :     1.954715
      dx2y2   :     1.964454
      dxy     :     1.440942
      f0      :     0.000440  f :     0.003708
      f+1     :     0.000392
      f-1     :     0.000181
      f+2     :     0.000537
      f-2     :     0.000990
      f+3     :     0.000359
      f-3     :     0.000810
  1 O s       :     3.865728  s :     3.865728
      pz      :     1.680987  p :     4.635371
      px      :     1.638947
      py      :     1.315437
      dz2     :     0.003315  d :     0.024800
      dxz     :     0.002932
      dyz     :     0.005285
      dx2y2   :     0.007526
      dxy     :     0.005741
  2 C s       :     2.987121  s :     2.987121
      pz      :     0.735184  p :     2.290456
      px      :     0.824912
      py      :     0.730360
      dz2     :     0.015672  d :     0.137244
      dxz     :     0.019653
      dyz     :     0.021026
      dx2y2   :     0.037572
      dxy     :     0.043320
  3 O s       :     3.758137  s :     3.758137
      pz      :     1.437326  p :     4.595380
      px      :     1.409246
      py      :     1.748808
      dz2     :     0.006547  d :     0.031182
      dxz     :     0.008641
      dyz     :     0.002359
      dx2y2   :     0.007060
      dxy     :     0.006575
  4 C s       :     3.417421  s :     3.417421
      pz      :     1.161462  p :     3.300232
      px      :     1.069528
      py      :     1.069242
      dz2     :     0.005491  d :     0.033299
      dxz     :     0.009026
      dyz     :     0.005099
      dx2y2   :     0.003867
      dxy     :     0.009816
  5 H s       :     0.764028  s :     0.764028
  6 H s       :     0.745897  s :     0.745897
  7 H s       :     0.750353  s :     0.750353
  8 N s       :     3.597415  s :     3.597415
      pz      :     1.177894  p :     3.821346
      px      :     1.452822
      py      :     1.190630
      dz2     :     0.006719  d :     0.044340
      dxz     :     0.009673
      dyz     :     0.012771
      dx2y2   :     0.006719
      dxy     :     0.008458
  9 C s       :     3.357293  s :     3.357293
      pz      :     1.056697  p :     3.127662
      px      :     1.120561
      py      :     0.950405
      dz2     :     0.006919  d :     0.050505
      dxz     :     0.009841
      dyz     :     0.014996
      dx2y2   :     0.008054
      dxy     :     0.010694
 10 H s       :     0.686647  s :     0.686647
 11 H s       :     0.794249  s :     0.794249
 12 H s       :     0.746116  s :     0.746116
 13 C s       :     3.367348  s :     3.367348
      pz      :     1.110723  p :     3.132249
      px      :     1.060381
      py      :     0.961145
      dz2     :     0.005563  d :     0.049654
      dxz     :     0.010304
      dyz     :     0.013035
      dx2y2   :     0.011598
      dxy     :     0.009154
 14 H s       :     0.714541  s :     0.714541
 15 H s       :     0.777680  s :     0.777680
 16 H s       :     0.708306  s :     0.708306
 17 C s       :     3.193291  s :     3.193291
      pz      :     0.901444  p :     2.776333
      px      :     0.994170
      py      :     0.880719
      dz2     :     0.010268  d :     0.047979
      dxz     :     0.007377
      dyz     :     0.014453
      dx2y2   :     0.007841
      dxy     :     0.008040
 18 C s       :     3.260983  s :     3.260983
      pz      :     0.948530  p :     2.938969
      px      :     0.973577
      py      :     1.016861
      dz2     :     0.010484  d :     0.039985
      dxz     :     0.006294
      dyz     :     0.012616
      dx2y2   :     0.007212
      dxy     :     0.003379
 19 C s       :     3.238275  s :     3.238275
      pz      :     0.948694  p :     2.915655
      px      :     0.977311
      py      :     0.989651
      dz2     :     0.009396  d :     0.040810
      dxz     :     0.005712
      dyz     :     0.015065
      dx2y2   :     0.006358
      dxy     :     0.004279
 20 C s       :     3.255154  s :     3.255154
      pz      :     1.069804  p :     2.934106
      px      :     0.969157
      py      :     0.895145
      dz2     :     0.012209  d :     0.040760
      dxz     :     0.003320
      dyz     :     0.011653
      dx2y2   :     0.006447
      dxy     :     0.007131
 21 C s       :     3.260525  s :     3.260525
      pz      :     0.944338  p :     2.955824
      px      :     0.981398
      py      :     1.030088
      dz2     :     0.010209  d :     0.041499
      dxz     :     0.006870
      dyz     :     0.014468
      dx2y2   :     0.006087
      dxy     :     0.003865
 22 C s       :     3.219207  s :     3.219207
      pz      :     0.845666  p :     2.686207
      px      :     0.945132
      py      :     0.895409
      dz2     :     0.010727  d :     0.037185
      dxz     :     0.007293
      dyz     :     0.009026
      dx2y2   :     0.005232
      dxy     :     0.004907
 23 H s       :     0.751518  s :     0.751518
 24 H s       :     0.728096  s :     0.728096
 25 H s       :     0.761456  s :     0.761456
 26 H s       :     0.760108  s :     0.760108
 27 H s       :     0.983931  s :     0.983931
 28 C s       :     3.326570  s :     3.326570
      pz      :     0.810818  p :     2.944833
      px      :     1.005485
      py      :     1.128530
      dz2     :     0.016516  d :     0.052775
      dxz     :     0.012021
      dyz     :     0.006412
      dx2y2   :     0.009396
      dxy     :     0.008429
 29 H s       :     0.735283  s :     0.735283
 30 H s       :     0.743090  s :     0.743090
 31 O s       :     3.810374  s :     3.810374
      pz      :     1.386962  p :     4.695227
      px      :     1.622302
      py      :     1.685963
      dz2     :     0.009836  d :     0.023982
      dxz     :     0.004404
      dyz     :     0.006693
      dx2y2   :     0.001713
      dxy     :     0.001336
 32 C s       :     2.953321  s :     2.953321
      pz      :     0.762251  p :     2.361504
      px      :     0.860203
      py      :     0.739049
      dz2     :     0.052945  d :     0.152717
      dxz     :     0.042377
      dyz     :     0.030696
      dx2y2   :     0.014822
      dxy     :     0.011877
 33 O s       :     3.734645  s :     3.734645
      pz      :     1.601487  p :     4.667108
      px      :     1.586304
      py      :     1.479317
      dz2     :     0.006463  d :     0.029759
      dxz     :     0.008064
      dyz     :     0.006342
      dx2y2   :     0.003421
      dxy     :     0.005469
 34 C s       :     3.407550  s :     3.407550
      pz      :     1.153364  p :     3.301097
      px      :     1.005791
      py      :     1.141942
      dz2     :     0.005436  d :     0.033801
      dxz     :     0.008809
      dyz     :     0.006495
      dx2y2   :     0.010709
      dxy     :     0.002352
 35 H s       :     0.773865  s :     0.773865
 36 H s       :     0.751359  s :     0.751359
 37 H s       :     0.766981  s :     0.766981


                     *******************************
                     * LOEWDIN POPULATION ANALYSIS *
                     *******************************

----------------------
LOEWDIN ATOMIC CHARGES
----------------------
   0 Pd:   -0.274476
   1 O :   -0.207942
   2 C :    0.168472
   3 O :   -0.149960
   4 C :   -0.384287
   5 H :    0.146425
   6 H :    0.157105
   7 H :    0.146076
   8 N :   -0.084594
   9 C :   -0.244306
  10 H :    0.166744
  11 H :    0.112323
  12 H :    0.143690
  13 C :   -0.239235
  14 H :    0.157278
  15 H :    0.118823
  16 H :    0.162940
  17 C :   -0.057252
  18 C :   -0.093732
  19 C :   -0.126244
  20 C :   -0.103114
  21 C :   -0.124130
  22 C :    0.052951
  23 H :    0.149289
  24 H :    0.163373
  25 H :    0.148973
  26 H :    0.149914
  27 H :    0.018059
  28 C :   -0.097151
  29 H :    0.154299
  30 H :    0.145817
  31 O :   -0.170165
  32 C :    0.100398
  33 O :   -0.241732
  34 C :   -0.389667
  35 H :    0.144506
  36 H :    0.136141
  37 H :    0.144393

-------------------------------
LOEWDIN REDUCED ORBITAL CHARGES
-------------------------------
  0 Pds       :     2.470056  s :     2.470056
      pz      :     2.195346  p :     6.737546
      px      :     2.319085
      py      :     2.223115
      dz2     :     1.996608  d :     9.061843
      dxz     :     1.495228
      dyz     :     1.992692
      dx2y2   :     2.035976
      dxy     :     1.541340
      f0      :     0.000635  f :     0.005030
      f+1     :     0.000489
      f-1     :     0.000214
      f+2     :     0.000727
      f-2     :     0.001369
      f+3     :     0.000433
      f-3     :     0.001163
  1 O s       :     3.526513  s :     3.526513
      pz      :     1.654211  p :     4.634481
      px      :     1.618044
      py      :     1.362225
      dz2     :     0.006381  d :     0.046949
      dxz     :     0.004013
      dyz     :     0.009051
      dx2y2   :     0.016484
      dxy     :     0.011019
  2 C s       :     2.823589  s :     2.823589
      pz      :     0.787412  p :     2.698856
      px      :     0.995177
      py      :     0.916267
      dz2     :     0.033030  d :     0.309083
      dxz     :     0.043061
      dyz     :     0.046266
      dx2y2   :     0.084470
      dxy     :     0.102257
  3 O s       :     3.461157  s :     3.461157
      pz      :     1.443624  p :     4.627444
      px      :     1.486229
      py      :     1.697591
      dz2     :     0.009199  d :     0.061359
      dxz     :     0.017798
      dyz     :     0.004668
      dx2y2   :     0.015607
      dxy     :     0.014087
  4 C s       :     2.965526  s :     2.965526
      pz      :     1.144630  p :     3.357622
      px      :     1.105702
      py      :     1.107290
      dz2     :     0.009424  d :     0.061138
      dxz     :     0.016010
      dyz     :     0.008975
      dx2y2   :     0.007382
      dxy     :     0.019348
  5 H s       :     0.853575  s :     0.853575
  6 H s       :     0.842895  s :     0.842895
  7 H s       :     0.853924  s :     0.853924
  8 N s       :     3.122319  s :     3.122319
      pz      :     1.209996  p :     3.863130
      px      :     1.423789
      py      :     1.229346
      dz2     :     0.015777  d :     0.099145
      dxz     :     0.020627
      dyz     :     0.029869
      dx2y2   :     0.014776
      dxy     :     0.018096
  9 C s       :     2.937659  s :     2.937659
      pz      :     1.068726  p :     3.208647
      px      :     1.129917
      py      :     1.010004
      dz2     :     0.013303  d :     0.098001
      dxz     :     0.018043
      dyz     :     0.030539
      dx2y2   :     0.015361
      dxy     :     0.020755
 10 H s       :     0.833256  s :     0.833256
 11 H s       :     0.887677  s :     0.887677
 12 H s       :     0.856310  s :     0.856310
 13 C s       :     2.942107  s :     2.942107
      pz      :     1.102715  p :     3.201453
      px      :     1.081449
      py      :     1.017289
      dz2     :     0.010337  d :     0.095676
      dxz     :     0.019218
      dyz     :     0.024817
      dx2y2   :     0.022962
      dxy     :     0.018342
 14 H s       :     0.842722  s :     0.842722
 15 H s       :     0.881177  s :     0.881177
 16 H s       :     0.837060  s :     0.837060
 17 C s       :     2.839851  s :     2.839851
      pz      :     1.046425  p :     3.103234
      px      :     0.982739
      py      :     1.074070
      dz2     :     0.024789  d :     0.114167
      dxz     :     0.015289
      dyz     :     0.037578
      dx2y2   :     0.019748
      dxy     :     0.016763
 18 C s       :     2.891156  s :     2.891156
      pz      :     1.077511  p :     3.112833
      px      :     0.981537
      py      :     1.053786
      dz2     :     0.026167  d :     0.089743
      dxz     :     0.012920
      dyz     :     0.031529
      dx2y2   :     0.012498
      dxy     :     0.006629
 19 C s       :     2.883576  s :     2.883576
      pz      :     1.086576  p :     3.148603
      px      :     0.973143
      py      :     1.088885
      dz2     :     0.024654  d :     0.094066
      dxz     :     0.011990
      dyz     :     0.036550
      dx2y2   :     0.012734
      dxy     :     0.008138
 20 C s       :     2.897892  s :     2.897892
      pz      :     1.068934  p :     3.113706
      px      :     0.967678
      py      :     1.077094
      dz2     :     0.025474  d :     0.091517
      dxz     :     0.005226
      dyz     :     0.029523
      dx2y2   :     0.016132
      dxy     :     0.015162
 21 C s       :     2.883798  s :     2.883798
      pz      :     1.086947  p :     3.144515
      px      :     0.977607
      py      :     1.079961
      dz2     :     0.027359  d :     0.095818
      dxz     :     0.014841
      dyz     :     0.036329
      dx2y2   :     0.010764
      dxy     :     0.006525
 22 C s       :     2.924075  s :     2.924075
      pz      :     1.023906  p :     2.938857
      px      :     0.946020
      py      :     0.968930
      dz2     :     0.026592  d :     0.084117
      dxz     :     0.014378
      dyz     :     0.022675
      dx2y2   :     0.011228
      dxy     :     0.009245
 23 H s       :     0.850711  s :     0.850711
 24 H s       :     0.836627  s :     0.836627
 25 H s       :     0.851027  s :     0.851027
 26 H s       :     0.850086  s :     0.850086
 27 H s       :     0.981941  s :     0.981941
 28 C s       :     2.895682  s :     2.895682
      pz      :     0.948015  p :     3.093714
      px      :     1.044110
      py      :     1.101588
      dz2     :     0.035063  d :     0.107755
      dxz     :     0.026931
      dyz     :     0.013561
      dx2y2   :     0.016922
      dxy     :     0.015279
 29 H s       :     0.845701  s :     0.845701
 30 H s       :     0.854183  s :     0.854183
 31 O s       :     3.455964  s :     3.455964
      pz      :     1.433828  p :     4.659816
      px      :     1.583710
      py      :     1.642278
      dz2     :     0.022808  d :     0.054385
      dxz     :     0.013680
      dyz     :     0.011381
      dx2y2   :     0.003359
      dxy     :     0.003156
 32 C s       :     2.808805  s :     2.808805
      pz      :     0.972913  p :     2.743214
      px      :     1.019636
      py      :     0.750666
      dz2     :     0.132643  d :     0.347583
      dxz     :     0.093117
      dyz     :     0.064422
      dx2y2   :     0.034527
      dxy     :     0.022874
 33 O s       :     3.476781  s :     3.476781
      pz      :     1.623836  p :     4.705635
      px      :     1.622994
      py      :     1.458805
      dz2     :     0.014190  d :     0.059315
      dxz     :     0.020510
      dyz     :     0.008752
      dx2y2   :     0.008736
      dxy     :     0.007127
 34 C s       :     2.969947  s :     2.969947
      pz      :     1.135307  p :     3.358170
      px      :     1.080933
      py      :     1.141930
      dz2     :     0.009424  d :     0.061550
      dxz     :     0.015953
      dyz     :     0.010671
      dx2y2   :     0.020886
      dxy     :     0.004616
 35 H s       :     0.855494  s :     0.855494
 36 H s       :     0.863859  s :     0.863859
 37 H s       :     0.855607  s :     0.855607


                      *****************************
                      * MAYER POPULATION ANALYSIS *
                      *****************************

  NA   - Mulliken gross atomic population
  ZA   - Total nuclear charge
  QA   - Mulliken gross atomic charge
  VA   - Mayer's total valence
  BVA  - Mayer's bonded valence
  FA   - Mayer's free valence

  ATOM       NA         ZA         QA         VA         BVA        FA
  0 Pd    17.5543    18.0000     0.4457     2.4925     2.4925    -0.0000
  1 O      8.5259     8.0000    -0.5259     2.1092     2.1092     0.0000
  2 C      5.4148     6.0000     0.5852     3.9592     3.9592     0.0000
  3 O      8.3847     8.0000    -0.3847     2.2042     2.2042     0.0000
  4 C      6.7510     6.0000    -0.7510     3.6975     3.6975     0.0000
  5 H      0.7640     1.0000     0.2360     0.9051     0.9051     0.0000
  6 H      0.7459     1.0000     0.2541     0.8994     0.8994    -0.0000
  7 H      0.7504     1.0000     0.2496     0.9010     0.9010    -0.0000
  8 N      7.4631     7.0000    -0.4631     3.1226     3.1226     0.0000
  9 C      6.5355     6.0000    -0.5355     3.6070     3.6070     0.0000
 10 H      0.6866     1.0000     0.3134     0.8963     0.8963    -0.0000
 11 H      0.7942     1.0000     0.2058     0.9077     0.9077    -0.0000
 12 H      0.7461     1.0000     0.2539     0.9026     0.9026    -0.0000
 13 C      6.5493     6.0000    -0.5493     3.6044     3.6044     0.0000
 14 H      0.7145     1.0000     0.2855     0.8864     0.8864    -0.0000
 15 H      0.7777     1.0000     0.2223     0.9068     0.9068     0.0000
 16 H      0.7083     1.0000     0.2917     0.8857     0.8857     0.0000
 17 C      6.0176     6.0000    -0.0176     3.7818     3.7818     0.0000
 18 C      6.2399     6.0000    -0.2399     3.8644     3.8644     0.0000
 19 C      6.1947     6.0000    -0.1947     3.8100     3.8100     0.0000
 20 C      6.2300     6.0000    -0.2300     3.8113     3.8113     0.0000
 21 C      6.2578     6.0000    -0.2578     3.8420     3.8420    -0.0000
 22 C      5.9426     6.0000     0.0574     3.7238     3.7238     0.0000
 23 H      0.7515     1.0000     0.2485     0.9007     0.9007    -0.0000
 24 H      0.7281     1.0000     0.2719     0.8936     0.8936     0.0000
 25 H      0.7615     1.0000     0.2385     0.9044     0.9044     0.0000
 26 H      0.7601     1.0000     0.2399     0.9039     0.9039     0.0000
 27 H      0.9839     1.0000     0.0161     1.0000     1.0000     0.0000
 28 C      6.3242     6.0000    -0.3242     3.6127     3.6127     0.0000
 29 H      0.7353     1.0000     0.2647     0.8878     0.8878     0.0000
 30 H      0.7431     1.0000     0.2569     0.8970     0.8970     0.0000
 31 O      8.5296     8.0000    -0.5296     2.0977     2.0977     0.0000
 32 C      5.4675     6.0000     0.5325     4.1211     4.1211     0.0000
 33 O      8.4315     8.0000    -0.4315     2.1570     2.1570     0.0000
 34 C      6.7424     6.0000    -0.7424     3.7142     3.7142     0.0000
 35 H      0.7739     1.0000     0.2261     0.9078     0.9078    -0.0000
 36 H      0.7514     1.0000     0.2486     0.8960     0.8960     0.0000
 37 H      0.7670     1.0000     0.2330     0.9096     0.9096     0.0000

  Mayer bond orders larger than 0.100000
B(  0-Pd,  1-O ) :   0.7574 B(  0-Pd,  3-O ) :   0.1657 B(  0-Pd,  8-N ) :   0.3711 
B(  0-Pd, 22-C ) :   0.1392 B(  0-Pd, 27-H ) :   0.1283 B(  0-Pd, 31-O ) :   0.6654 
B(  1-O ,  2-C ) :   1.1431 B(  2-C ,  3-O ) :   1.8899 B(  2-C ,  4-C ) :   0.9338 
B(  4-C ,  5-H ) :   0.9155 B(  4-C ,  6-H ) :   0.9094 B(  4-C ,  7-H ) :   0.9112 
B(  8-N ,  9-C ) :   0.9278 B(  8-N , 13-C ) :   0.9204 B(  8-N , 28-C ) :   0.8849 
B(  9-C , 10-H ) :   0.8652 B(  9-C , 11-H ) :   0.9065 B(  9-C , 12-H ) :   0.9134 
B( 13-C , 14-H ) :   0.8891 B( 13-C , 15-H ) :   0.9057 B( 13-C , 16-H ) :   0.8904 
B( 17-C , 18-C ) :   1.3663 B( 17-C , 22-C ) :   1.4183 B( 17-C , 28-C ) :   0.9417 
B( 18-C , 19-C ) :   1.4606 B( 18-C , 21-C ) :   0.1016 B( 18-C , 25-H ) :   0.9033 
B( 19-C , 20-C ) :   1.4206 B( 19-C , 26-H ) :   0.9100 B( 20-C , 21-C ) :   1.3879 
B( 20-C , 23-H ) :   0.9019 B( 21-C , 22-C ) :   1.4692 B( 21-C , 24-H ) :   0.8973 
B( 22-C , 27-H ) :   0.6639 B( 28-C , 29-H ) :   0.8985 B( 28-C , 30-H ) :   0.9123 
B( 31-O , 32-C ) :   1.2719 B( 32-C , 33-O ) :   1.9255 B( 32-C , 34-C ) :   0.9148 
B( 34-C , 35-H ) :   0.9207 B( 34-C , 36-H ) :   0.9071 B( 34-C , 37-H ) :   0.9227 



------------------
HIRSHFELD ANALYSIS
------------------

Total integrated alpha density =     76.999503928
Total integrated beta density  =     76.999503928

  ATOM     CHARGE      SPIN    
   0 Pd   0.621368    0.000000
   1 O   -0.341214    0.000000
   2 C    0.204635    0.000000
   3 O   -0.330716    0.000000
   4 C   -0.073368    0.000000
   5 H    0.039993    0.000000
   6 H    0.049561    0.000000
   7 H    0.041094    0.000000
   8 N   -0.091954    0.000000
   9 C   -0.025218    0.000000
  10 H    0.046106    0.000000
  11 H    0.026510    0.000000
  12 H    0.043736    0.000000
  13 C   -0.028790    0.000000
  14 H    0.033974    0.000000
  15 H    0.030234    0.000000
  16 H    0.052460    0.000000
  17 C   -0.015339    0.000000
  18 C   -0.022554    0.000000
  19 C   -0.033518    0.000000
  20 C   -0.014436    0.000000
  21 C   -0.034345    0.000000
  22 C   -0.026615    0.000000
  23 H    0.057646    0.000000
  24 H    0.062252    0.000000
  25 H    0.052497    0.000000
  26 H    0.056890    0.000000
  27 H   -0.017679    0.000000
  28 C    0.010601    0.000000
  29 H    0.043134    0.000000
  30 H    0.046481    0.000000
  31 O   -0.336354    0.000000
  32 C    0.199113    0.000000
  33 O   -0.349788    0.000000
  34 C   -0.082666    0.000000
  35 H    0.035940    0.000000
  36 H    0.032835    0.000000
  37 H    0.038485    0.000000

  TOTAL   0.000992    0.000000

-------
TIMINGS
-------

Total SCF time: 0 days 0 hours 10 min 35 sec 

Total time                  ....     635.139 sec
Sum of individual times     ....     634.434 sec  ( 99.9%)

Fock matrix formation       ....     625.835 sec  ( 98.5%)
  Split-RI-J                ....      59.622 sec  (  9.5% of F)
  Chain of spheres X        ....     512.988 sec  ( 82.0% of F)
  XC integration            ....      53.032 sec  (  8.5% of F)
    Basis function eval.    ....      23.298 sec  ( 43.9% of XC)
    Density eval.           ....      12.918 sec  ( 24.4% of XC)
    XC-Functional eval.     ....       4.354 sec  (  8.2% of XC)
    XC-Potential eval.      ....      10.683 sec  ( 20.1% of XC)
Diagonalization             ....       0.824 sec  (  0.1%)
Density matrix formation    ....       0.118 sec  (  0.0%)
Population analysis         ....       1.314 sec  (  0.2%)
Initial guess               ....       0.060 sec  (  0.0%)
Orbital Transformation      ....       0.000 sec  (  0.0%)
Orbital Orthonormalization  ....       0.000 sec  (  0.0%)
DIIS solution               ....       0.351 sec  (  0.1%)
Grid generation             ....       5.932 sec  (  0.9%)

Maximum memory used throughout the entire SCF-calculation: 153.0 MB


-------------------------------------------------------------------------------
                          DFT DISPERSION CORRECTION                            
                                                                               
                              DFTD3 V3.1  Rev 1                                
                          USING Becke-Johnson damping                          
-------------------------------------------------------------------------------
The PBEh-3c composite method is recognized
Using three-body term ABC
Active option DFTDOPT                   ...         4   

molecular C6(AA) [au] = 16872.117426 


            DFT-D V3
 parameters
 s6 scaling factor         :     1.0000 
 a1 scaling factor         :     0.4860 
 s8 scaling factor         :     0.0000 
 a2 scaling factor         :     4.5000 
 Damping factor alpha9(ATM):    16.0000 
 ad hoc parameters k1-k3   :    16.0000     1.3333    -4.0000 

 Edisp/kcal,au: -16.001824523087  -0.025500527845 
 E6   /kcal   : -16.192575040 
 E8   /kcal   :  -0.000000000 
 E6(ABC)      :   0.190750516 
 % E8         :   0.000000000 
 % E6(ABC)    :  -1.192054795 

-------------------------   ----------------
Dispersion correction           -0.025500528
-------------------------   ----------------

 ** NOTE ** -> element pd will be treated as ni
------------------   -----------------
gCP correction             0.071096752
------------------   -----------------

-------------------------   --------------------
FINAL SINGLE POINT ENERGY      -988.210638479572
-------------------------   --------------------

------------------------------------------------------------------------------
                         ORCA SCF GRADIENT CALCULATION
------------------------------------------------------------------------------

 ... reading COSX grid (gridx3)
Gradient of the Kohn-Sham DFT energy:
Kohn-Sham wavefunction type      ... RKS
Hartree-Fock exchange scaling    ...    0.420
Number of operators              ...    1
Number of atoms                  ...   38
Basis set dimensions             ...  339
Integral neglect threshold       ... 2.5e-11
Integral primitive cutoff        ... 2.5e-12
SHARK Integral package           ... ON

Nuc. rep. gradient       (SHARK) ... done (  0.0 sec)
HCore & Overlap gradient (SHARK) ... done (  1.5 sec)
ECP gradient             (SHARK) ... done (  2.3 sec)
RI-J gradient            (SHARK) ... done (  6.7 sec)
COSX-gradient                    ... done ( 58.5 sec)
Exchange-correlation gradient    ... done
Dispersion correction            ... done
gCP correction                   ... done

------------------
CARTESIAN GRADIENT
------------------

   1   Pd  :   -0.010746085    0.006046573    0.001669024
   2   O   :    0.032010211   -0.057432349    0.012480030
   3   C   :   -0.096897168    0.072310771   -0.040093240
   4   O   :    0.073103098   -0.025687355    0.032757698
   5   C   :    0.019408606    0.006230781   -0.004197391
   6   H   :   -0.003097235    0.001255465    0.000596736
   7   H   :   -0.000504706    0.001861957    0.002484119
   8   H   :   -0.000492621    0.003789179   -0.001061232
   9   N   :   -0.007957779   -0.011992828   -0.034790895
  10   C   :    0.009022937   -0.007555267   -0.003336980
  11   H   :   -0.010860362   -0.002216602    0.006896433
  12   H   :    0.003752946    0.008224525    0.001916268
  13   H   :   -0.005156133    0.007477276   -0.001343804
  14   C   :   -0.002932854    0.017598309    0.007046870
  15   H   :    0.001175357   -0.006377527   -0.007050502
  16   H   :    0.006520882   -0.004794570    0.003177006
  17   H   :   -0.000585653   -0.003830080    0.001060677
  18   C   :   -0.001238267    0.030532249   -0.013414862
  19   C   :    0.007503984   -0.026067434    0.014646986
  20   C   :    0.006684115    0.006231841   -0.005729743
  21   C   :    0.000662585   -0.018976384   -0.004024037
  22   C   :   -0.009843988    0.014611512   -0.026348998
  23   C   :   -0.001256424   -0.018208037    0.013991199
  24   H   :    0.003377658    0.000161838    0.002902245
  25   H   :   -0.002754839   -0.021020974   -0.003685467
  26   H   :   -0.001115489    0.009760432    0.010648873
  27   H   :   -0.008821274    0.002126734    0.001555132
  28   H   :   -0.002323415    0.023135957   -0.001124214
  29   C   :   -0.004138217   -0.014014876    0.032064861
  30   H   :    0.001484514   -0.003705691    0.002786708
  31   H   :   -0.005404321    0.005895105   -0.000167600
  32   O   :   -0.013990670    0.010514407    0.000684863
  33   C   :   -0.047734249   -0.013493665   -0.054369335
  34   O   :    0.062286543    0.001945634    0.060955767
  35   C   :    0.033300715    0.015269511    0.030504557
  36   H   :   -0.004818321   -0.001696757   -0.003928828
  37   H   :   -0.019890887   -0.008493692   -0.025308023
  38   H   :    0.001055732    0.001102703   -0.011589032

Difference to translation invariance:
           :   -0.0012110715    0.0005186684   -0.0007381291

Difference to rotation invariance:
           :    0.0006131789   -0.0013929796    0.0044544074

Norm of the cartesian gradient     ...    0.2334227665
RMS gradient                       ...    0.0218620451
MAX gradient                       ...    0.0968971684

-------
TIMINGS
-------

Total SCF gradient time            ...       81.340 sec

One electron gradient       ....       3.756 sec  (  4.6%)
RI-J Coulomb gradient       ....       6.717 sec  (  8.3%)
COSX gradient               ....      58.540 sec  ( 72.0%)
XC gradient                 ....      10.792 sec  ( 13.3%)

Maximum memory used throughout the entire SCFGRAD-calculation: 121.1 MB

                            ***************************************
                            *     ORCA property calculations      *
                            ***************************************

                                    ---------------------
                                    Active property flags
                                    ---------------------
   (+) Dipole Moment


------------------------------------------------------------------------------
                       ORCA ELECTRIC PROPERTIES CALCULATION
------------------------------------------------------------------------------

Dipole Moment Calculation                       ... on
Quadrupole Moment Calculation                   ... off
Polarizability Calculation                      ... off
GBWName                                         ... 6_7_orca.gbw
Electron density                                ... 6_7_orca.scfp
The origin for moment calculation is the CENTER OF MASS  = ( 0.421865,  0.199288 -0.015699)

-------------
DIPOLE MOMENT
-------------
                                X             Y             Z
Electronic contribution:     16.41075      13.65904      -8.84142
Nuclear contribution   :    -18.63929     -14.89776      10.63764
                        -----------------------------------------
Total Dipole Moment    :     -2.22855      -1.23872       1.79622
                        -----------------------------------------
Magnitude (a.u.)       :      3.11886
Magnitude (Debye)      :      7.92750



--------------------
Rotational spectrum 
--------------------
 
Rotational constants in cm-1:     0.013368     0.008400     0.006545 
Rotational constants in MHz :   400.761213   251.830831   196.207623 

 Dipole components along the rotational axes: 
x,y,z [a.u.] :     3.012804    -0.798159     0.114958 
x,y,z [Debye]:     7.657940    -2.028758     0.292199 

 

Timings for individual modules:

Sum of individual times         ...      717.602 sec (=  11.960 min)
GTO integral calculation        ...        1.054 sec (=   0.018 min)   0.1 %
SCF iterations                  ...      635.177 sec (=  10.586 min)  88.5 %
SCF Gradient evaluation         ...       81.371 sec (=   1.356 min)  11.3 %
                             ****ORCA TERMINATED NORMALLY****
TOTAL RUN TIME: 0 days 0 hours 11 minutes 58 seconds 41 msec
