
                                 *****************
                                 * O   R   C   A *
                                 *****************

                                            #,                                       
                                            ###                                      
                                            ####                                     
                                            #####                                    
                                            ######                                   
                                           ########,                                 
                                     ,,################,,,,,                         
                               ,,#################################,,                 
                          ,,##########################################,,             
                       ,#########################################, ''#####,          
                    ,#############################################,,   '####,        
                  ,##################################################,,,,####,       
                ,###########''''           ''''###############################       
              ,#####''   ,,,,##########,,,,          '''####'''          '####       
            ,##' ,,,,###########################,,,                        '##       
           ' ,,###''''                  '''############,,,                           
         ,,##''                                '''############,,,,        ,,,,,,###''
      ,#''                                            '''#######################'''  
     '                                                          ''''####''''         
             ,#######,   #######,   ,#######,      ##                                
            ,#'     '#,  ##    ##  ,#'     '#,    #''#        ######   ,####,        
            ##       ##  ##   ,#'  ##            #'  '#       #        #'  '#        
            ##       ##  #######   ##           ,######,      #####,   #    #        
            '#,     ,#'  ##    ##  '#,     ,#' ,#      #,         ##   #,  ,#        
             '#######'   ##     ##  '#######'  #'      '#     #####' # '####'        



                  #######################################################
                  #                        -***-                        #
                  #          Department of theory and spectroscopy      #
                  #    Directorship and core code : Frank Neese         #
                  #        Max Planck Institute fuer Kohlenforschung    #
                  #                Kaiser Wilhelm Platz 1               #
                  #                 D-45470 Muelheim/Ruhr               #
                  #                      Germany                        #
                  #                                                     #
                  #                  All rights reserved                #
                  #                        -***-                        #
                  #######################################################


                         Program Version 5.0.3 -  RELEASE  -


 With contributions from (in alphabetic order):
   Daniel Aravena         : Magnetic Suceptibility
   Michael Atanasov       : Ab Initio Ligand Field Theory (pilot matlab implementation)
   Alexander A. Auer      : GIAO ZORA, VPT2 properties, NMR spectrum
   Ute Becker             : Parallelization
   Giovanni Bistoni       : ED, misc. LED, open-shell LED, HFLD
   Martin Brehm           : Molecular dynamics
   Dmytro Bykov           : SCF Hessian
   Vijay G. Chilkuri      : MRCI spin determinant printing, contributions to CSF-ICE
   Dipayan Datta          : RHF DLPNO-CCSD density
   Achintya Kumar Dutta   : EOM-CC, STEOM-CC
   Dmitry Ganyushin       : Spin-Orbit,Spin-Spin,Magnetic field MRCI
   Miquel Garcia          : C-PCM and meta-GGA Hessian, CC/C-PCM, Gaussian charge scheme
   Yang Guo               : DLPNO-NEVPT2, F12-NEVPT2, CIM, IAO-localization
   Andreas Hansen         : Spin unrestricted coupled pair/coupled cluster methods
   Benjamin Helmich-Paris : MC-RPA, TRAH-SCF, COSX integrals
   Lee Huntington         : MR-EOM, pCC
   Robert Izsak           : Overlap fitted RIJCOSX, COSX-SCS-MP3, EOM
   Marcus Kettner         : VPT2
   Christian Kollmar      : KDIIS, OOCD, Brueckner-CCSD(T), CCSD density, CASPT2, CASPT2-K
   Simone Kossmann        : Meta GGA functionals, TD-DFT gradient, OOMP2, MP2 Hessian
   Martin Krupicka        : Initial AUTO-CI
   Lucas Lang             : DCDCAS
   Marvin Lechner         : AUTO-CI (C++ implementation), FIC-MRCC
   Dagmar Lenk            : GEPOL surface, SMD
   Dimitrios Liakos       : Extrapolation schemes; Compound Job, initial MDCI parallelization
   Dimitrios Manganas     : Further ROCIS development; embedding schemes
   Dimitrios Pantazis     : SARC Basis sets
   Anastasios Papadopoulos: AUTO-CI, single reference methods and gradients
   Taras Petrenko         : DFT Hessian,TD-DFT gradient, ASA, ECA, R-Raman, ABS, FL, XAS/XES, NRVS
   Peter Pinski           : DLPNO-MP2, DLPNO-MP2 Gradient
   Christoph Reimann      : Effective Core Potentials
   Marius Retegan         : Local ZFS, SOC
   Christoph Riplinger    : Optimizer, TS searches, QM/MM, DLPNO-CCSD(T), (RO)-DLPNO pert. Triples
   Tobias Risthaus        : Range-separated hybrids, TD-DFT gradient, RPA, STAB
   Michael Roemelt        : Original ROCIS implementation
   Masaaki Saitow         : Open-shell DLPNO-CCSD energy and density
   Barbara Sandhoefer     : DKH picture change effects
   Avijit Sen             : IP-ROCIS
   Kantharuban Sivalingam : CASSCF convergence, NEVPT2, FIC-MRCI
   Bernardo de Souza      : ESD, SOC TD-DFT
   Georgi Stoychev        : AutoAux, RI-MP2 NMR, DLPNO-MP2 response
   Willem Van den Heuvel  : Paramagnetic NMR
   Boris Wezisla          : Elementary symmetry handling
   Frank Wennmohs         : Technical directorship


 We gratefully acknowledge several colleagues who have allowed us to
 interface, adapt or use parts of their codes:
   Stefan Grimme, W. Hujo, H. Kruse, P. Pracht,  : VdW corrections, initial TS optimization,
                  C. Bannwarth, S. Ehlert          DFT functionals, gCP, sTDA/sTD-DF
   Ed Valeev, F. Pavosevic, A. Kumar             : LibInt (2-el integral package), F12 methods
   Garnet Chan, S. Sharma, J. Yang, R. Olivares  : DMRG
   Ulf Ekstrom                                   : XCFun DFT Library
   Mihaly Kallay                                 : mrcc  (arbitrary order and MRCC methods)
   Jiri Pittner, Ondrej Demel                    : Mk-CCSD
   Frank Weinhold                                : gennbo (NPA and NBO analysis)
   Christopher J. Cramer and Donald G. Truhlar   : smd solvation model
   Lars Goerigk                                  : TD-DFT with DH, B97 family of functionals
   V. Asgeirsson, H. Jonsson                     : NEB implementation
   FAccTs GmbH                                   : IRC, NEB, NEB-TS, DLPNO-Multilevel, CI-OPT
                                                   MM, QMMM, 2- and 3-layer-ONIOM, Crystal-QMMM,
                                                   LR-CPCM, SF, NACMEs, symmetry and pop. for TD-DFT,
                                                   nearIR, NL-DFT gradient (VV10), updates on ESD,
                                                   ML-optimized integration grids
   S Lehtola, MJT Oliveira, MAL Marques          : LibXC Library
   Liviu Ungur et al                             : ANISO software


 Your calculation uses the libint2 library for the computation of 2-el integrals
 For citations please refer to: http://libint.valeyev.net

 Your ORCA version has been built with support for libXC version: 5.1.0
 For citations please refer to: https://tddft.org/programs/libxc/

 This ORCA versions uses:
   CBLAS   interface :  Fast vector & matrix operations
   LAPACKE interface :  Fast linear algebra routines
   SCALAPACK package :  Parallel linear algebra routines
   Shared memory     :  Shared parallel matrices
   BLAS/LAPACK       :  OpenBLAS 0.3.15  USE64BITINT DYNAMIC_ARCH NO_AFFINITY SkylakeX SINGLE_THREADED
        Core in use  :  SkylakeX
   Copyright (c) 2011-2014, The OpenBLAS Project


Your calculation utilizes the geometrical counterpoise correction gCP
Please cite in your paper:
H.Kruse, S. Grimme J.Chem.Phys., 136, (2012), 154101 
   

Your calculation utilizes the atom-pairwise dispersion correction
with the Becke-Johnson damping scheme (D3BJ)
Cite in your paper:
S.Grimme, S.Ehrlich, L.Goerigk, J Comput Chem, (2011), 32, 1456–1465 
S.Grimme, J.Antony, S.Ehrlich and H.Krieg, J.Chem.Phys., 132, (2010), 154104 
   

Your calculation employs the composite approach PBEh-3c.
Please cite in your paper:
S. Grimme, J. G. Brandenburg, C. Bannwarth, A. Hansen J.Chem.Phys., 143, (2015), 054107 
   

================================================================================

cite the ECPs for Pt [Def2-ECP] as follows:
Ce-Yb(ecp-28): M. Dolg, H. Stoll, H.Preuss, J. Chem. Phys., 1989, 90, 1730-1734.
Y-Cd(ecp-28), Hf-Hg(ecp-46): D. Andrae,U. Haeussermann, M. Dolg, H. Stoll, H. Preuss, Theor. Chim. Acta, 1990, 77, 123-141.
In-Sb(ecp-28), Tl-Bi(ecp-46): B. Metz, H. Stoll, M. Dolg, J. Chem. Phys., 2000, 113, 2563-2569.
Te-Xe(ecp-28), Po-Rn(ecp-46): K. A. Peterson, D. Figgen, E. Goll, H. Stoll, M. Dolg, J. Chem. Phys., 2003, 119, 11113-11123.
Rb(ecp-28), Cs(ecp-46): T. Leininger, A. Nicklass, W. Kuechle, H. Stoll, M. Dolg, A. Bergner, Chem. Phys. Lett., 1996, 255, 274-280.
Sr(ecp-28), Ba(ecp-46): M. Kaupp, P. V. Schleyer, H. Stoll and H. Preuss, J. Chem. Phys., 1991, 94, 1360-1366.
La(ecp-46): M. Dolg, H. Stoll, A. Savin, H. Preuss, Theor. Chim. Acta, 1989, 75, 173-194.
Lu(ecp-28): X. Cao, M. Dolg, J. Chem. Phys., 2001, 115, 7348-7355.

ECP parameters for Pt [Def2-ECP] have been obtained from:
TURBOMOLE (7.0.2)

----- Orbital basis set information -----
Your calculation utilizes the basis: def2-mSVP

----- AuxJ basis set information -----
Your calculation utilizes the auxiliary basis: def2/J
   F. Weigend, Phys. Chem. Chem. Phys. 8, 1057 (2006).

================================================================================
                                        WARNINGS
                       Please study these warnings very carefully!
================================================================================


WARNING: No Hueckel Guess possible with ECP basis!
  ===> : Switching to HCORE guess!

INFO   : the flag for use of the SHARK integral package has been found!

================================================================================
                                       INPUT FILE
================================================================================
NAME = 8_8_orca.inp
|  1> ! EnGrad PBEh-3c
|  2> %output 
|  3> xyzfile=True 
|  4> end 
|  5> %scf 
|  6> maxiter 250 
|  7> end
|  8> %output
|  9> Print[P_Hirshfeld] = 1
| 10> end
| 11> % maxcore
| 12> 4000
| 13> *xyz -1 1
| 14> Pt  -0.66267842  -0.75821696   0.41464149 
| 15> Cl  -0.12279938  -0.28934570   2.63117799 
| 16> Cl  -2.46639626  -1.94456460   1.09354302 
| 17> Cl  -1.27358103  -1.17989855  -1.78465770 
| 18> C    0.83919624   0.85127279  -0.46339204 
| 19> H    1.39277230   1.50724401   0.19883818 
| 20> H    0.93440050  -0.27022875   0.05986872 
| 21> H    1.40717294   0.67582793  -1.36797304 
| 22> H   -0.05164140   1.40481295  -0.77962928 
| 23> *
| 24> 
| 25>                          ****END OF INPUT****
================================================================================

                     *******************************
                     * Energy+Gradient Calculation *
                     *******************************

---------------------------------
CARTESIAN COORDINATES (ANGSTROEM)
---------------------------------
  Pt    -0.662678   -0.758217    0.414641
  Cl    -0.122799   -0.289346    2.631178
  Cl    -2.466396   -1.944565    1.093543
  Cl    -1.273581   -1.179899   -1.784658
  C      0.839196    0.851273   -0.463392
  H      1.392772    1.507244    0.198838
  H      0.934400   -0.270229    0.059869
  H      1.407173    0.675828   -1.367973
  H     -0.051641    1.404813   -0.779629

----------------------------
CARTESIAN COORDINATES (A.U.)
----------------------------
  NO LB      ZA    FRAG     MASS         X           Y           Z
   0 Pt   18.0000*   0   195.090   -1.252281   -1.432822    0.783559
   1 Cl   17.0000    0    35.453   -0.232057   -0.546784    4.972206
   2 Cl   17.0000    0    35.453   -4.660813   -3.674695    2.066497
   3 Cl   17.0000    0    35.453   -2.406719   -2.229685   -3.372514
   4 C     6.0000    0    12.011    1.585851    1.608672   -0.875684
   5 H     1.0000    0     1.008    2.631958    2.848278    0.375750
   6 H     1.0000    0     1.008    1.765761   -0.510658    0.113135
   7 H     1.0000    0     1.008    2.659171    1.277130   -2.585094
   8 H     1.0000    0     1.008   -0.097588    2.654712   -1.473286
* core charge reduced due to ECP

--------------------------------
INTERNAL COORDINATES (ANGSTROEM)
--------------------------------
 Pt     0   0   0     0.000000000000     0.00000000     0.00000000
 Cl     1   0   0     2.329022046293     0.00000000     0.00000000
 Cl     1   2   0     2.263123075907    90.27419033     0.00000000
 Cl     1   2   3     2.321192428340   177.86479492    64.60729629
 C      1   2   3     2.370026925904    93.95499110   167.12216226
 H      5   1   2     1.084109570087   120.54315794   355.52710975
 H      5   1   2     1.241221728097    43.84843781    74.27115093
 H      5   1   2     1.082425616938   122.14397157   142.44343244
 H      5   1   2     1.095447124026    86.26016899   248.42758329

---------------------------
INTERNAL COORDINATES (A.U.)
---------------------------
 Pt     0   0   0     0.000000000000     0.00000000     0.00000000
 Cl     1   0   0     4.401213827358     0.00000000     0.00000000
 Cl     1   2   0     4.276682820822    90.27419033     0.00000000
 Cl     1   2   3     4.386417993695   177.86479492    64.60729629
 C      1   2   3     4.478701819978    93.95499110   167.12216226
 H      5   1   2     2.048670186628   120.54315794   355.52710975
 H      5   1   2     2.345569137576    43.84843781    74.27115093
 H      5   1   2     2.045487976354   122.14397157   142.44343244
 H      5   1   2     2.070095058600    86.26016899   248.42758329

---------------------
BASIS SET INFORMATION
---------------------
There are 4 groups of distinct atoms

 Group   1 Type Pt  : 7s6p5d1f contracted to 6s3p2d1f pattern {211111/411/41/1}
 Group   2 Type Cl  : 10s7p1d contracted to 4s3p1d pattern {5311/511/1}
 Group   3 Type C   : 8s4p1d contracted to 4s2p1d pattern {5111/31/1}
 Group   4 Type H   : 4s contracted to 2s pattern {31}

Atom   0Pt   basis set group =>   1
Atom   1Cl   basis set group =>   2
Atom   2Cl   basis set group =>   2
Atom   3Cl   basis set group =>   2
Atom   4C    basis set group =>   3
Atom   5H    basis set group =>   4
Atom   6H    basis set group =>   4
Atom   7H    basis set group =>   4
Atom   8H    basis set group =>   4
---------------------------------
AUXILIARY/J BASIS SET INFORMATION
---------------------------------
There are 4 groups of distinct atoms

 Group   1 Type Pt  : 11s5p5d3f3g contracted to 8s5p5d2f3g pattern {41111111/11111/11111/21/111}
 Group   2 Type Cl  : 14s5p5d2f1g contracted to 8s4p3d1f1g pattern {71111111/2111/311/2/1}
 Group   3 Type C   : 12s5p4d2f1g contracted to 6s4p3d1f1g pattern {711111/2111/211/2/1}
 Group   4 Type H   : 5s2p1d contracted to 3s1p1d pattern {311/2/1}

Atom   0Pt   basis set group =>   1
Atom   1Cl   basis set group =>   2
Atom   2Cl   basis set group =>   2
Atom   3Cl   basis set group =>   2
Atom   4C    basis set group =>   3
Atom   5H    basis set group =>   4
Atom   6H    basis set group =>   4
Atom   7H    basis set group =>   4
Atom   8H    basis set group =>   4
-------------------------
ECP PARAMETER INFORMATION
-------------------------

 Group 1, Type Pt ECP Def2-ECP (replacing 60 core electrons, lmax=3)

Atom   0Pt   ECP group =>   1

------------------------------------------------------------------------------
                           ORCA GTO INTEGRAL CALCULATION
                           -- RI-GTO INTEGRALS CHOSEN --
------------------------------------------------------------------------------
------------------------------------------------------------------------------
                   ___                                                        
                  /   \      - P O W E R E D   B Y -                         
                 /     \                                                     
                 |  |  |   _    _      __       _____    __    __             
                 |  |  |  | |  | |    /  \     |  _  \  |  |  /  |          
                  \  \/   | |  | |   /    \    | | | |  |  | /  /          
                 / \  \   | |__| |  /  /\  \   | |_| |  |  |/  /          
                |  |  |   |  __  | /  /__\  \  |    /   |      \           
                |  |  |   | |  | | |   __   |  |    \   |  |\   \          
                \     /   | |  | | |  |  |  |  | |\  \  |  | \   \       
                 \___/    |_|  |_| |__|  |__|  |_| \__\ |__|  \__/        
                                                                              
                      - O R C A' S   B I G   F R I E N D -                    
                                      &                                       
                       - I N T E G R A L  F E E D E R -                       
                                                                              
 v1 FN, 2020, v2 2021                                                         
------------------------------------------------------------------------------


Reading SHARK input file 8_8_orca.SHARKINP.tmp ... ok
----------------------
SHARK INTEGRAL PACKAGE
----------------------

Number of atoms                             ...      9
Number of basis functions                   ...    109
Number of shells                            ...     51
Maximum angular momentum                    ...      3
Integral batch strategy                     ... SHARK/LIBINT Hybrid
RI-J (if used) integral strategy            ... SPLIT-RIJ (Revised 2003 algorithm where possible)
Printlevel                                  ...      1
Contraction scheme used                     ... SEGMENTED contraction
Coulomb Range Separation                    ... NOT USED
Exchange Range Separation                   ... NOT USED
Finite Nucleus Model                        ... NOT USED
Auxiliary Coulomb fitting basis             ... AVAILABLE
   # of basis functions in Aux-J            ...    335
   # of shells in Aux-J                     ...    109
   Maximum angular momentum in Aux-J        ...      4
Auxiliary J/K fitting basis                 ... NOT available
Auxiliary Correlation fitting basis         ... NOT available
Auxiliary 'external' fitting basis          ... NOT available
Integral threshold                          ...     2.500000e-11
Primitive cut-off                           ...     2.500000e-12
Primitive pair pre-selection threshold      ...     2.500000e-12

Calculating pre-screening integrals         ... done (  0.1 sec) Dimension = 51
Organizing shell pair data                  ... done (  0.0 sec)
Shell pair information
Total number of shell pairs                 ...      1326
Shell pairs after pre-screening             ...      1194
Total number of primitive shell pairs       ...      5360
Primitive shell pairs kept                  ...      3506
          la=0 lb=0:    402 shell pairs
          la=1 lb=0:    371 shell pairs
          la=1 lb=1:     99 shell pairs
          la=2 lb=0:    169 shell pairs
          la=2 lb=1:     81 shell pairs
          la=2 lb=2:     21 shell pairs
          la=3 lb=0:     30 shell pairs
          la=3 lb=1:     14 shell pairs
          la=3 lb=2:      6 shell pairs
          la=3 lb=3:      1 shell pairs

Calculating one electron integrals          ... done (  0.0 sec)
Calculating ECP integrals                   ... done (  0.1 sec)
Calculating RI/J V-Matrix + Cholesky decomp.... done (  0.0 sec)
Calculating Nuclear repulsion               ... done (  0.0 sec) ENN=    464.090868220712 Eh

SHARK setup successfully completed in   0.3 seconds

Maximum memory used throughout the entire GTOINT-calculation: 19.0 MB
-------------------------------------------------------------------------------
                                 ORCA SCF
-------------------------------------------------------------------------------

------------
SCF SETTINGS
------------
Hamiltonian:
 Density Functional     Method          .... DFT(GTOs)
 Exchange Functional    Exchange        .... PBE
   PBE kappa parameter   XKappa         ....  1.024500
   PBE mue parameter    XMuePBE         ....  0.123457
 Correlation Functional Correlation     .... PBE
   PBE beta parameter  CBetaPBE         ....  0.030000
 LDA part of GGA corr.  LDAOpt          .... PW91-LDA
 Gradients option       PostSCFGGA      .... off
 Hybrid DFT is turned on
   Fraction HF Exchange ScalHFX         ....  0.420000
   Scaling of DF-GGA-X  ScalDFX         ....  0.580000
   Scaling of DF-GGA-C  ScalDFC         ....  1.000000
   Scaling of DF-LDA-C  ScalLDAC        ....  1.000000
   Perturbative correction              ....  0.000000
   Density functional embedding theory  .... OFF
 RI-approximation to the Coulomb term is turned on
   Number of AuxJ basis functions       .... 335
   RIJ-ON(X) (HFX calculated with O(N)) .... on
   Number of AuxJ basis functions       .... 335
   RIJ-COSX (HFX calculated with COS-X)).... on


General Settings:
 Integral files         IntName         .... 8_8_orca
 Hartree-Fock type      HFTyp           .... RHF
 Total Charge           Charge          ....   -1
 Multiplicity           Mult            ....    1
 Number of Electrons    NEL             ....   80
 Basis Dimension        Dim             ....  109
 Nuclear Repulsion      ENuc            ....    464.0908682207 Eh

Convergence Acceleration:
 DIIS                   CNVDIIS         .... on
   Start iteration      DIISMaxIt       ....    12
   Startup error        DIISStart       ....  0.200000
   # of expansion vecs  DIISMaxEq       ....     5
   Bias factor          DIISBfac        ....   1.050
   Max. coefficient     DIISMaxC        ....  10.000
 Trust-Rad. Augm. Hess. CNVTRAH         .... auto
   Auto Start mean grad. ratio tolernc. ....  1.125000
   Auto Start start iteration           ....    20
   Auto Start num. interpolation iter.  ....    10
   Max. Number of Micro iterations      ....    16
   Max. Number of Macro iterations      .... Maxiter - #DIIS iter
   Number of Davidson start vectors     ....     2
   Converg. threshold I  (grad. norm)   ....   1.000e-05
   Converg. threshold II (energy diff.) ....   1.000e-08
   Grad. Scal. Fac. for Micro threshold ....   0.100
   Minimum threshold for Micro iter.    ....   0.010
   NR start threshold (gradient norm)   ....   0.001
   Initial trust radius                 ....   0.400
   Minimum AH scaling param. (alpha)    ....   1.000
   Maximum AH scaling param. (alpha)    .... 1000.000
   Orbital update algorithm             .... Taylor
   White noise on init. David. guess    .... on
   Maximum white noise                  ....   0.010
   Quad. conv. algorithm                .... NR
   COSX micro iterations for RIJONX calc.... off
 SOSCF                  CNVSOSCF        .... off
 Level Shifting         CNVShift        .... on
   Level shift para.    LevelShift      ....    0.2500
   Turn off err/grad.   ShiftErr        ....    0.0010
 Zerner damping         CNVZerner       .... off
 Static damping         CNVDamp         .... on
   Fraction old density DampFac         ....    0.7000
   Max. Damping (<1)    DampMax         ....    0.9800
   Min. Damping (>=0)   DampMin         ....    0.0000
   Turn off err/grad.   DampErr         ....    0.1000
 Fernandez-Rico         CNVRico         .... off

SCF Procedure:
 Maximum # iterations   MaxIter         ....   250
 SCF integral mode      SCFMode         .... Direct
   Integral package                     .... SHARK and LIBINT hybrid scheme
 Reset frequency        DirectResetFreq ....    20
 Integral Threshold     Thresh          ....  2.500e-11 Eh
 Primitive CutOff       TCut            ....  2.500e-12 Eh

Convergence Tolerance:
 Convergence Check Mode ConvCheckMode   .... Total+1el-Energy
 Convergence forced     ConvForced      .... 0
 Energy Change          TolE            ....  1.000e-08 Eh
 1-El. energy change                    ....  1.000e-05 Eh
 DIIS Error             TolErr          ....  5.000e-07


Diagonalization of the overlap matrix:
Smallest eigenvalue                        ... 9.235e-03
Time for diagonalization                   ...    0.002 sec
Threshold for overlap eigenvalues          ... 1.000e-08
Number of eigenvalues below threshold      ... 0
Time for construction of square roots      ...    0.000 sec
Total time needed                          ...    0.002 sec

--------------------
INITIAL GUESS: HCORE
--------------------
                      -----------------
                      INTIAL GUESS DONE 
                      -----------------
-------------------
DFT GRID GENERATION
-------------------

General Integration Accuracy     IntAcc      ... 4.159
Radial Grid Type                 RadialGrid  ... OptM3 with GC (2021)
Angular Grid (max. ang.)         AngularGrid ... 3 (Lebedev-194)
Angular grid pruning method      GridPruning ... 4 (adaptive)
Weight generation scheme         WeightScheme... Becke
Basis function cutoff            BFCut       ... 1.0000e-11
Integration weight cutoff        WCut        ... 1.0000e-14
Angular grids for H and He will be reduced by one unit
Partially contracted basis set               ... off
Rotationally invariant grid construction     ... off

Total number of grid points                  ...    27531
Total number of batches                      ...      436
Average number of points per batch           ...       63
Average number of grid points per atom       ...     3059
Time for grid setup =    0.165 sec

--------------------
COSX GRID GENERATION
--------------------

GRIDX 1
-------
General Integration Accuracy     IntAcc      ... 3.816
Radial Grid Type                 RadialGrid  ... OptM3 with GC (2021)
Angular Grid (max. ang.)         AngularGrid ... 1 (Lebedev-50)
Angular grid pruning method      GridPruning ... 4 (adaptive)
Weight generation scheme         WeightScheme... Becke
Basis function cutoff            BFCut       ... 1.0000e-11
Integration weight cutoff        WCut        ... 1.0000e-14
Angular grids for H and He will be reduced by one unit
Partially contracted basis set               ... on
Rotationally invariant grid construction     ... off

Total number of grid points                  ...     6237
Total number of batches                      ...      103
Average number of points per batch           ...       60
Average number of grid points per atom       ...      693
UseSFitting                                  ... on

GRIDX 2
-------
General Integration Accuracy     IntAcc      ... 4.020
Radial Grid Type                 RadialGrid  ... OptM3 with GC (2021)
Angular Grid (max. ang.)         AngularGrid ... 2 (Lebedev-110)
Angular grid pruning method      GridPruning ... 4 (adaptive)
Weight generation scheme         WeightScheme... Becke
Basis function cutoff            BFCut       ... 1.0000e-11
Integration weight cutoff        WCut        ... 1.0000e-14
Angular grids for H and He will be reduced by one unit
Partially contracted basis set               ... on
Rotationally invariant grid construction     ... off

Total number of grid points                  ...    14669
Total number of batches                      ...      234
Average number of points per batch           ...       62
Average number of grid points per atom       ...     1630
UseSFitting                                  ... on

GRIDX 3
-------
General Integration Accuracy     IntAcc      ... 4.338
Radial Grid Type                 RadialGrid  ... OptM3 with GC (2021)
Angular Grid (max. ang.)         AngularGrid ... 3 (Lebedev-194)
Angular grid pruning method      GridPruning ... 4 (adaptive)
Weight generation scheme         WeightScheme... Becke
Basis function cutoff            BFCut       ... 1.0000e-11
Integration weight cutoff        WCut        ... 1.0000e-14
Angular grids for H and He will be reduced by one unit
Partially contracted basis set               ... on
Rotationally invariant grid construction     ... off

Total number of grid points                  ...    32695
Total number of batches                      ...      515
Average number of points per batch           ...       63
Average number of grid points per atom       ...     3633
UseSFitting                                  ... on

Time for X-Grid setup             =    0.417 sec

--------------
SCF ITERATIONS
--------------
ITER       Energy         Delta-E        Max-DP      RMS-DP      [F,P]     Damp
               ***  Starting incremental Fock matrix formation  ***
  0  -1487.6632526821   0.00000000000019.84888250  0.31530159  1.5434310 0.7000
  1  -1502.2573548933 -14.594102211181 5.92079480  0.11566682  1.2595519 0.7000
  2  -1513.3119930058 -11.054638112483 4.06970818  0.08270058  0.8109551 0.7000
  3  -1520.7539616700  -7.441968664251 2.82560546  0.05844324  0.5451040 0.7000
  4  -1526.1089669507  -5.355005280683 1.96417495  0.04094291  0.3745232 0.7000
  5  -1529.9227597442  -3.813792793459 1.37126969  0.02866572  0.2593413 0.7000
                               ***Turning on DIIS***
  6  -1532.6249113541  -2.702151609890 0.96042160  0.02008193  0.1791974 0.7000
  7  -1534.5335909209  -1.908679566875 0.67447099  0.01409231  0.1231629 0.7000
  8  -1535.8787095142  -1.345118593282 1.57783517  0.03296339  0.0849061 0.0000
  9  -1539.0482724232  -3.169562909008 0.00780429  0.00033934  0.0028038 0.0000
 10  -1539.0485122575  -0.000239834230 0.00329620  0.00015137  0.0014673 0.0000
 11  -1539.0485693022  -0.000057044743 0.00391447  0.00016108  0.0005296 0.0000
               *** Restarting incremental Fock matrix formation ***
                                   *** Resetting DIIS ***
 12  -1539.0492153694  -0.000646067215 0.00235337  0.00012310  0.0012104 0.0000
 13  -1539.0492383878  -0.000023018414 0.00315324  0.00006769  0.0005594 0.0000
 14  -1539.0492422216  -0.000003833791 0.00101789  0.00002854  0.0005110 0.0000
 15  -1539.0492437800  -0.000001558388 0.00092560  0.00001568  0.0002709 0.0000
 16  -1539.0492442951  -0.000000515045 0.00042742  0.00001023  0.0000884 0.0000
 17  -1539.0492444419  -0.000000146817 0.00027935  0.00000545  0.0000424 0.0000
 18  -1539.0492444779  -0.000000036044 0.00014810  0.00000317  0.0000177 0.0000
 19  -1539.0492444882  -0.000000010250 0.00004530  0.00000103  0.0000048 0.0000
 20  -1539.0492444887  -0.000000000512 0.00000877  0.00000026  0.0000022 0.0000
                            ***DIIS convergence achieved***

               *****************************************************
               *                     SUCCESS                       *
               *           SCF CONVERGED AFTER  21 CYCLES          *
               *****************************************************

Old exchange energy                            =    -42.103833224 Eh
New exchange energy                            =    -42.103840934 Eh
Exchange energy change after final integration =     -0.000007711 Eh
Total energy after final integration           =  -1539.049252199 Eh
Final COS-X integration done in                =     2.876 sec

----------------
TOTAL SCF ENERGY
----------------

Total Energy       :        -1539.04925220 Eh          -41879.65927 eV

Components:
Nuclear Repulsion  :          464.09086822 Eh           12628.55455 eV
Electronic Energy  :        -2003.14012042 Eh          -54508.21382 eV
One Electron Energy:        -3109.79061070 Eh          -84621.70460 eV
Two Electron Energy:         1106.65049028 Eh           30113.49078 eV
Max COSX asymmetry :            0.00001301 Eh               0.00035 eV

Virial components:
Potential Energy   :        -2997.07899280 Eh          -81554.66555 eV
Kinetic Energy     :         1458.02974060 Eh           39675.00628 eV
Virial Ratio       :            2.05556780


DFT components:
N(Alpha)           :       40.000084564182 electrons
N(Beta)            :       40.000084564182 electrons
N(Total)           :       80.000169128364 electrons
E(X)               :      -56.376331274948 Eh       
E(C)               :       -4.039587271773 Eh       
E(XC)              :      -60.415918546722 Eh       
DFET-embed. en.    :        0.000000000000 Eh       

---------------
SCF CONVERGENCE
---------------

  Last Energy change         ...    6.6871e-10  Tolerance :   1.0000e-08
  Last MAX-Density change    ...    0.0000e+00  Tolerance :   1.0000e-07
  Last RMS-Density change    ...    0.0000e+00  Tolerance :   5.0000e-09
  Last DIIS Error            ...    8.4688e-07  Tolerance :   5.0000e-07

             **** THE GBW FILE WAS UPDATED (8_8_orca.gbw) ****
             **** DENSITY 8_8_orca.scfp WAS UPDATED ****
             **** ENERGY FILE WAS UPDATED (8_8_orca.en.tmp) ****
             **** THE GBW FILE WAS UPDATED (8_8_orca.gbw) ****
             **** DENSITY 8_8_orca.scfp WAS UPDATED ****
----------------
ORBITAL ENERGIES
----------------

  NO   OCC          E(Eh)            E(eV) 
   0   2.0000    -102.091248     -2778.0441 
   1   2.0000    -102.085633     -2777.8913 
   2   2.0000    -102.084674     -2777.8652 
   3   2.0000     -10.349466      -281.6233 
   4   2.0000      -9.555988      -260.0317 
   5   2.0000      -9.549813      -259.8636 
   6   2.0000      -9.548774      -259.8354 
   7   2.0000      -7.242763      -197.0856 
   8   2.0000      -7.236550      -196.9165 
   9   2.0000      -7.236015      -196.9020 
  10   2.0000      -7.235861      -196.8978 
  11   2.0000      -7.234828      -196.8697 
  12   2.0000      -7.230762      -196.7590 
  13   2.0000      -7.230554      -196.7534 
  14   2.0000      -7.229685      -196.7297 
  15   2.0000      -7.229557      -196.7263 
  16   2.0000      -3.951217      -107.5181 
  17   2.0000      -2.169885       -59.0456 
  18   2.0000      -2.161743       -58.8240 
  19   2.0000      -2.128716       -57.9253 
  20   2.0000      -0.703842       -19.1525 
  21   2.0000      -0.684280       -18.6202 
  22   2.0000      -0.678257       -18.4563 
  23   2.0000      -0.673286       -18.3210 
  24   2.0000      -0.411243       -11.1905 
  25   2.0000      -0.366278        -9.9669 
  26   2.0000      -0.359568        -9.7843 
  27   2.0000      -0.286567        -7.7979 
  28   2.0000      -0.269870        -7.3435 
  29   2.0000      -0.244669        -6.6578 
  30   2.0000      -0.232288        -6.3209 
  31   2.0000      -0.224791        -6.1169 
  32   2.0000      -0.195893        -5.3305 
  33   2.0000      -0.176678        -4.8077 
  34   2.0000      -0.168965        -4.5978 
  35   2.0000      -0.152018        -4.1366 
  36   2.0000      -0.142979        -3.8907 
  37   2.0000      -0.136783        -3.7220 
  38   2.0000      -0.131101        -3.5674 
  39   2.0000      -0.116834        -3.1792 
  40   0.0000       0.108321         2.9476 
  41   0.0000       0.182516         4.9665 
  42   0.0000       0.211444         5.7537 
  43   0.0000       0.260597         7.0912 
  44   0.0000       0.273324         7.4375 
  45   0.0000       0.280589         7.6352 
  46   0.0000       0.297148         8.0858 
  47   0.0000       0.322284         8.7698 
  48   0.0000       0.387690        10.5496 
  49   0.0000       0.403805        10.9881 
  50   0.0000       0.559734        15.2311 
  51   0.0000       0.562246        15.2995 
  52   0.0000       0.595783        16.2121 
  53   0.0000       0.618084        16.8189 
  54   0.0000       0.645552        17.5664 
  55   0.0000       0.658363        17.9150 
  56   0.0000       0.710604        19.3365 
  57   0.0000       0.788335        21.4517 
  58   0.0000       0.836816        22.7709 
  59   0.0000       0.840785        22.8789 
  60   0.0000       0.881022        23.9738 
  61   0.0000       0.925960        25.1967 
  62   0.0000       0.944357        25.6973 
  63   0.0000       0.950252        25.8577 
  64   0.0000       0.972208        26.4551 
  65   0.0000       0.994986        27.0749 
  66   0.0000       1.022885        27.8341 
  67   0.0000       1.031415        28.0662 
  68   0.0000       1.035374        28.1740 
  69   0.0000       1.039122        28.2760 
  70   0.0000       1.043375        28.3917 
  71   0.0000       1.059425        28.8284 
  72   0.0000       1.072002        29.1707 
  73   0.0000       1.082966        29.4690 
  74   0.0000       1.087902        29.6033 
  75   0.0000       1.095580        29.8122 
  76   0.0000       1.101778        29.9809 
  77   0.0000       1.115897        30.3651 
  78   0.0000       1.124598        30.6019 
  79   0.0000       1.150801        31.3149 
  80   0.0000       1.158554        31.5259 
  81   0.0000       1.188083        32.3294 
  82   0.0000       1.244762        33.8717 
  83   0.0000       1.254554        34.1382 
  84   0.0000       1.272450        34.6251 
  85   0.0000       1.298914        35.3452 
  86   0.0000       1.302910        35.4540 
  87   0.0000       1.314354        35.7654 
  88   0.0000       1.382157        37.6104 
  89   0.0000       1.418512        38.5997 
  90   0.0000       1.565243        42.5924 
  91   0.0000       1.570224        42.7280 
  92   0.0000       1.626488        44.2590 
  93   0.0000       1.643539        44.7230 
  94   0.0000       1.689384        45.9705 
  95   0.0000       1.691387        46.0250 
  96   0.0000       1.723158        46.8895 
  97   0.0000       1.739362        47.3304 
  98   0.0000       1.836745        49.9804 
  99   0.0000       1.932669        52.5906 
 100   0.0000       2.011572        54.7377 
 101   0.0000       2.077016        56.5185 
 102   0.0000       2.214157        60.2503 
 103   0.0000       2.431469        66.1636 
 104   0.0000       2.473569        67.3092 
 105   0.0000       2.600648        70.7672 
 106   0.0000      13.822460       376.1283 
 107   0.0000      51.230022      1394.0398 
 108   0.0000     282.825015      7696.0599 

                    ********************************
                    * MULLIKEN POPULATION ANALYSIS *
                    ********************************

-----------------------
MULLIKEN ATOMIC CHARGES
-----------------------
   0 Pt:    0.025494
   1 Cl:   -0.424012
   2 Cl:   -0.327764
   3 Cl:   -0.434453
   4 C :   -0.907861
   5 H :    0.257242
   6 H :    0.252726
   7 H :    0.259981
   8 H :    0.298647
Sum of atomic charges:   -1.0000000

--------------------------------
MULLIKEN REDUCED ORBITAL CHARGES
--------------------------------
  0 Pts       :     2.704758  s :     2.704758
      pz      :     2.127768  p :     6.424951
      px      :     2.147146
      py      :     2.150038
      dz2     :     1.442430  d :     8.818900
      dxz     :     1.796510
      dyz     :     1.873347
      dx2y2   :     1.907393
      dxy     :     1.799221
      f0      :     0.006716  f :     0.025896
      f+1     :     0.005195
      f-1     :     0.003326
      f+2     :     0.001478
      f-2     :     0.003312
      f+3     :     0.002055
      f-3     :     0.003815
  1 Cls       :     5.941949  s :     5.941949
      pz      :     3.625852  p :    11.465371
      px      :     3.920905
      py      :     3.918614
      dz2     :     0.006902  d :     0.016691
      dxz     :     0.004241
      dyz     :     0.004361
      dx2y2   :     0.000566
      dxy     :     0.000621
  2 Cls       :     5.938212  s :     5.938212
      pz      :     3.912741  p :    11.368970
      px      :     3.642283
      py      :     3.813946
      dz2     :     0.002799  d :     0.020582
      dxz     :     0.004292
      dyz     :     0.002187
      dx2y2   :     0.004940
      dxy     :     0.006365
  3 Cls       :     5.940667  s :     5.940667
      pz      :     3.628850  p :    11.476538
      px      :     3.916145
      py      :     3.931543
      dz2     :     0.006475  d :     0.017248
      dxz     :     0.004748
      dyz     :     0.004547
      dx2y2   :     0.000700
      dxy     :     0.000779
  4 C s       :     3.479623  s :     3.479623
      pz      :     1.143721  p :     3.395764
      px      :     1.176782
      py      :     1.075261
      dz2     :     0.004204  d :     0.032474
      dxz     :     0.009042
      dyz     :     0.007427
      dx2y2   :     0.004951
      dxy     :     0.006850
  5 H s       :     0.742758  s :     0.742758
  6 H s       :     0.747274  s :     0.747274
  7 H s       :     0.740019  s :     0.740019
  8 H s       :     0.701353  s :     0.701353


                     *******************************
                     * LOEWDIN POPULATION ANALYSIS *
                     *******************************

----------------------
LOEWDIN ATOMIC CHARGES
----------------------
   0 Pt:   -0.956763
   1 Cl:   -0.140167
   2 Cl:   -0.046725
   3 Cl:   -0.138643
   4 C :   -0.415730
   5 H :    0.145058
   6 H :    0.211860
   7 H :    0.145822
   8 H :    0.195288

-------------------------------
LOEWDIN REDUCED ORBITAL CHARGES
-------------------------------
  0 Pts       :     2.709052  s :     2.709052
      pz      :     2.340600  p :     6.852023
      px      :     2.276727
      py      :     2.234697
      dz2     :     1.612171  d :     9.351833
      dxz     :     1.910999
      dyz     :     1.975149
      dx2y2   :     1.974597
      dxy     :     1.878917
      f0      :     0.011923  f :     0.043855
      f+1     :     0.008920
      f-1     :     0.005735
      f+2     :     0.002352
      f-2     :     0.005484
      f+3     :     0.003348
      f-3     :     0.006093
  1 Cls       :     5.753512  s :     5.753512
      pz      :     3.605991  p :    11.367611
      px      :     3.882677
      py      :     3.878943
      dz2     :     0.007797  d :     0.019044
      dxz     :     0.004947
      dyz     :     0.004978
      dx2y2   :     0.000634
      dxy     :     0.000688
  2 Cls       :     5.736478  s :     5.736478
      pz      :     3.872512  p :    11.286791
      px      :     3.630820
      py      :     3.783459
      dz2     :     0.003206  d :     0.023455
      dxz     :     0.005083
      dyz     :     0.002519
      dx2y2   :     0.005311
      dxy     :     0.007335
  3 Cls       :     5.750640  s :     5.750640
      pz      :     3.608040  p :    11.368357
      px      :     3.873996
      py      :     3.886321
      dz2     :     0.007442  d :     0.019646
      dxz     :     0.005395
      dyz     :     0.005208
      dx2y2   :     0.000742
      dxy     :     0.000859
  4 C s       :     2.981885  s :     2.981885
      pz      :     1.136905  p :     3.380577
      px      :     1.166309
      py      :     1.077362
      dz2     :     0.006834  d :     0.053268
      dxz     :     0.014665
      dyz     :     0.012317
      dx2y2   :     0.007984
      dxy     :     0.011469
  5 H s       :     0.854942  s :     0.854942
  6 H s       :     0.788140  s :     0.788140
  7 H s       :     0.854178  s :     0.854178
  8 H s       :     0.804712  s :     0.804712


                      *****************************
                      * MAYER POPULATION ANALYSIS *
                      *****************************

  NA   - Mulliken gross atomic population
  ZA   - Total nuclear charge
  QA   - Mulliken gross atomic charge
  VA   - Mayer's total valence
  BVA  - Mayer's bonded valence
  FA   - Mayer's free valence

  ATOM       NA         ZA         QA         VA         BVA        FA
  0 Pt    17.9745    18.0000     0.0255     3.1156     3.1156    -0.0000
  1 Cl    17.4240    17.0000    -0.4240     0.9591     0.9591    -0.0000
  2 Cl    17.3278    17.0000    -0.3278     1.0786     1.0786     0.0000
  3 Cl    17.4345    17.0000    -0.4345     0.9420     0.9420    -0.0000
  4 C      6.9079     6.0000    -0.9079     3.6900     3.6900     0.0000
  5 H      0.7428     1.0000     0.2572     0.8869     0.8869    -0.0000
  6 H      0.7473     1.0000     0.2527     0.9039     0.9039     0.0000
  7 H      0.7400     1.0000     0.2600     0.8842     0.8842    -0.0000
  8 H      0.7014     1.0000     0.2986     0.8748     0.8748     0.0000

  Mayer bond orders larger than 0.100000
B(  0-Pt,  1-Cl) :   0.7956 B(  0-Pt,  2-Cl) :   0.9247 B(  0-Pt,  3-Cl) :   0.7700 
B(  0-Pt,  4-C ) :   0.3294 B(  0-Pt,  6-H ) :   0.2741 B(  1-Cl,  3-Cl) :   0.1197 
B(  4-C ,  5-H ) :   0.8924 B(  4-C ,  6-H ) :   0.6010 B(  4-C ,  7-H ) :   0.8942 
B(  4-C ,  8-H ) :   0.8746 


------------------
HIRSHFELD ANALYSIS
------------------

Total integrated alpha density =     40.000084564
Total integrated beta density  =     40.000084564

  ATOM     CHARGE      SPIN    
   0 Pt  -0.019706    0.000000
   1 Cl  -0.388059    0.000000
   2 Cl  -0.313474    0.000000
   3 Cl  -0.382455    0.000000
   4 C   -0.067096    0.000000
   5 H    0.035314    0.000000
   6 H    0.044547    0.000000
   7 H    0.036322    0.000000
   8 H    0.054438    0.000000

  TOTAL  -1.000169    0.000000

-------
TIMINGS
-------

Total SCF time: 0 days 0 hours 0 min 29 sec 

Total time                  ....      29.896 sec
Sum of individual times     ....      29.777 sec  ( 99.6%)

Fock matrix formation       ....      29.025 sec  ( 97.1%)
  Split-RI-J                ....       2.440 sec  (  8.4% of F)
  Chain of spheres X        ....      22.631 sec  ( 78.0% of F)
  XC integration            ....       3.950 sec  ( 13.6% of F)
    Basis function eval.    ....       1.647 sec  ( 41.7% of XC)
    Density eval.           ....       0.698 sec  ( 17.7% of XC)
    XC-Functional eval.     ....       0.607 sec  ( 15.4% of XC)
    XC-Potential eval.      ....       0.815 sec  ( 20.6% of XC)
Diagonalization             ....       0.037 sec  (  0.1%)
Density matrix formation    ....       0.003 sec  (  0.0%)
Population analysis         ....       0.115 sec  (  0.4%)
Initial guess               ....       0.002 sec  (  0.0%)
Orbital Transformation      ....       0.000 sec  (  0.0%)
Orbital Orthonormalization  ....       0.000 sec  (  0.0%)
DIIS solution               ....       0.012 sec  (  0.0%)
Grid generation             ....       0.582 sec  (  1.9%)

Maximum memory used throughout the entire SCF-calculation: 76.7 MB


-------------------------------------------------------------------------------
                          DFT DISPERSION CORRECTION                            
                                                                               
                              DFTD3 V3.1  Rev 1                                
                          USING Becke-Johnson damping                          
-------------------------------------------------------------------------------
The PBEh-3c composite method is recognized
Using three-body term ABC
Active option DFTDOPT                   ...         4   

molecular C6(AA) [au] = 3369.507125 


            DFT-D V3
 parameters
 s6 scaling factor         :     1.0000 
 a1 scaling factor         :     0.4860 
 s8 scaling factor         :     0.0000 
 a2 scaling factor         :     4.5000 
 Damping factor alpha9(ATM):    16.0000 
 ad hoc parameters k1-k3   :    16.0000     1.3333    -4.0000 

 Edisp/kcal,au: -3.258602931764  -0.005192913763 
 E6   /kcal   :  -3.266890288 
 E8   /kcal   :  -0.000000000 
 E6(ABC)      :   0.008287356 
 % E8         :   0.000000000 
 % E6(ABC)    :  -0.254322372 

-------------------------   ----------------
Dispersion correction           -0.005192914
-------------------------   ----------------

 ** NOTE ** -> element pt will be treated as ni
NOTIFICATION: Different basis set in ORCA and otool_gcp:
ORCA: 109  gCP: 108 
If you are NOT using ECPs, check your basis set inputs!
------------------   -----------------
gCP correction             0.018798867
------------------   -----------------

-------------------------   --------------------
FINAL SINGLE POINT ENERGY     -1539.035646244969
-------------------------   --------------------

------------------------------------------------------------------------------
                         ORCA SCF GRADIENT CALCULATION
------------------------------------------------------------------------------

 ... reading COSX grid (gridx3)
Gradient of the Kohn-Sham DFT energy:
Kohn-Sham wavefunction type      ... RKS
Hartree-Fock exchange scaling    ...    0.420
Number of operators              ...    1
Number of atoms                  ...    9
Basis set dimensions             ...  109
Integral neglect threshold       ... 2.5e-11
Integral primitive cutoff        ... 2.5e-12
SHARK Integral package           ... ON

Nuc. rep. gradient       (SHARK) ... done (  0.0 sec)
HCore & Overlap gradient (SHARK) ... done (  0.1 sec)
ECP gradient             (SHARK) ... done (  0.3 sec)
RI-J gradient            (SHARK) ... done (  0.6 sec)
COSX-gradient                    ... done (  3.5 sec)
Exchange-correlation gradient    ... done
Dispersion correction            ... done
gCP correction                   ... done

------------------
CARTESIAN GRADIENT
------------------

   1   Pt  :    0.010214359   -0.001869438   -0.002924856
   2   Cl  :   -0.003083787   -0.002047800    0.000720457
   3   Cl  :    0.002032914    0.003840282   -0.003078664
   4   Cl  :   -0.003248624    0.000091915    0.003845325
   5   C   :   -0.001249758    0.006213277   -0.003048611
   6   H   :   -0.002341445    0.004007502   -0.005653648
   7   H   :    0.000993399   -0.023452781    0.012170658
   8   H   :   -0.002846162    0.003814372    0.002738288
   9   H   :   -0.000155387    0.009703984   -0.005279144

Difference to translation invariance:
           :    0.0003155092    0.0003013123   -0.0005101948

Difference to rotation invariance:
           :    0.0035628665   -0.0024215647   -0.0007084292

Norm of the cartesian gradient     ...    0.0337436349
RMS gradient                       ...    0.0064939656
MAX gradient                       ...    0.0234527807

-------
TIMINGS
-------

Total SCF gradient time            ...        5.865 sec

One electron gradient       ....       0.456 sec  (  7.8%)
RI-J Coulomb gradient       ....       0.560 sec  (  9.5%)
COSX gradient               ....       3.499 sec  ( 59.7%)
XC gradient                 ....       0.821 sec  ( 14.0%)

Maximum memory used throughout the entire SCFGRAD-calculation: 51.1 MB

                            ***************************************
                            *     ORCA property calculations      *
                            ***************************************

                                    ---------------------
                                    Active property flags
                                    ---------------------
   (+) Dipole Moment


------------------------------------------------------------------------------
                       ORCA ELECTRIC PROPERTIES CALCULATION
------------------------------------------------------------------------------

Dipole Moment Calculation                       ... on
Quadrupole Moment Calculation                   ... off
Polarizability Calculation                      ... off
GBWName                                         ... 8_8_orca.gbw
Electron density                                ... 8_8_orca.scfp
The origin for moment calculation is the CENTER OF MASS  = (-1.502517, -1.520042  0.846402)

-------------
DIPOLE MOMENT
-------------
                                X             Y             Z
Electronic contribution:     12.76576       0.56325      -1.39799
Nuclear contribution   :    -11.46082       0.54420       0.73987
                        -----------------------------------------
Total Dipole Moment    :      1.30494       1.10744      -0.65811
                        -----------------------------------------
Magnitude (a.u.)       :      1.83369
Magnitude (Debye)      :      4.66086



--------------------
Rotational spectrum 
--------------------
 
Rotational constants in cm-1:     0.062670     0.043254     0.025938 
Rotational constants in MHz :  1878.810494  1296.709601   777.609757 

 Dipole components along the rotational axes: 
x,y,z [a.u.] :    -0.149596     1.826392     0.065679 
x,y,z [Debye]:    -0.380242     4.642320     0.166944 

 

Timings for individual modules:

Sum of individual times         ...       36.171 sec (=   0.603 min)
GTO integral calculation        ...        0.364 sec (=   0.006 min)   1.0 %
SCF iterations                  ...       29.911 sec (=   0.499 min)  82.7 %
SCF Gradient evaluation         ...        5.897 sec (=   0.098 min)  16.3 %
                             ****ORCA TERMINATED NORMALLY****
TOTAL RUN TIME: 0 days 0 hours 0 minutes 36 seconds 498 msec
