21
	Energy:     245.1507490
C         -4.62086        1.65989       -0.05674
C         -5.07351        0.61951       -0.87493
C         -5.05696       -0.69785       -0.40459
C         -4.58685       -0.97458        0.88372
C         -4.14860        1.38341        1.23056
C         -4.13182        0.06597        1.70097
H         -4.63591        2.67884       -0.42008
H         -5.43711        0.83401       -1.87154
H         -5.40842       -1.50274       -1.03719
H         -3.76753       -0.14832        2.69734
H         -4.57507       -1.99373        1.24797
Pd        -2.08688        4.08905        0.45348
O         -2.11659        3.53490       -1.29906
O         -0.93467        2.63020        0.08106
O         -3.20350        5.50130        0.80907
C         -2.91413        5.57196        2.14041
O         -2.06008        4.66473        2.26077
H         -3.79686        2.18870        1.86236
C         -1.16989        2.55304       -1.14403
H         -0.58551        1.93731       -1.83252
H         -3.38176        6.16452        2.90536
