
                                 *****************
                                 * O   R   C   A *
                                 *****************

                                            #,                                       
                                            ###                                      
                                            ####                                     
                                            #####                                    
                                            ######                                   
                                           ########,                                 
                                     ,,################,,,,,                         
                               ,,#################################,,                 
                          ,,##########################################,,             
                       ,#########################################, ''#####,          
                    ,#############################################,,   '####,        
                  ,##################################################,,,,####,       
                ,###########''''           ''''###############################       
              ,#####''   ,,,,##########,,,,          '''####'''          '####       
            ,##' ,,,,###########################,,,                        '##       
           ' ,,###''''                  '''############,,,                           
         ,,##''                                '''############,,,,        ,,,,,,###''
      ,#''                                            '''#######################'''  
     '                                                          ''''####''''         
             ,#######,   #######,   ,#######,      ##                                
            ,#'     '#,  ##    ##  ,#'     '#,    #''#        ######   ,####,        
            ##       ##  ##   ,#'  ##            #'  '#       #        #'  '#        
            ##       ##  #######   ##           ,######,      #####,   #    #        
            '#,     ,#'  ##    ##  '#,     ,#' ,#      #,         ##   #,  ,#        
             '#######'   ##     ##  '#######'  #'      '#     #####' # '####'        



                  #######################################################
                  #                        -***-                        #
                  #          Department of theory and spectroscopy      #
                  #    Directorship and core code : Frank Neese         #
                  #        Max Planck Institute fuer Kohlenforschung    #
                  #                Kaiser Wilhelm Platz 1               #
                  #                 D-45470 Muelheim/Ruhr               #
                  #                      Germany                        #
                  #                                                     #
                  #                  All rights reserved                #
                  #                        -***-                        #
                  #######################################################


                         Program Version 5.0.3 -  RELEASE  -


 With contributions from (in alphabetic order):
   Daniel Aravena         : Magnetic Suceptibility
   Michael Atanasov       : Ab Initio Ligand Field Theory (pilot matlab implementation)
   Alexander A. Auer      : GIAO ZORA, VPT2 properties, NMR spectrum
   Ute Becker             : Parallelization
   Giovanni Bistoni       : ED, misc. LED, open-shell LED, HFLD
   Martin Brehm           : Molecular dynamics
   Dmytro Bykov           : SCF Hessian
   Vijay G. Chilkuri      : MRCI spin determinant printing, contributions to CSF-ICE
   Dipayan Datta          : RHF DLPNO-CCSD density
   Achintya Kumar Dutta   : EOM-CC, STEOM-CC
   Dmitry Ganyushin       : Spin-Orbit,Spin-Spin,Magnetic field MRCI
   Miquel Garcia          : C-PCM and meta-GGA Hessian, CC/C-PCM, Gaussian charge scheme
   Yang Guo               : DLPNO-NEVPT2, F12-NEVPT2, CIM, IAO-localization
   Andreas Hansen         : Spin unrestricted coupled pair/coupled cluster methods
   Benjamin Helmich-Paris : MC-RPA, TRAH-SCF, COSX integrals
   Lee Huntington         : MR-EOM, pCC
   Robert Izsak           : Overlap fitted RIJCOSX, COSX-SCS-MP3, EOM
   Marcus Kettner         : VPT2
   Christian Kollmar      : KDIIS, OOCD, Brueckner-CCSD(T), CCSD density, CASPT2, CASPT2-K
   Simone Kossmann        : Meta GGA functionals, TD-DFT gradient, OOMP2, MP2 Hessian
   Martin Krupicka        : Initial AUTO-CI
   Lucas Lang             : DCDCAS
   Marvin Lechner         : AUTO-CI (C++ implementation), FIC-MRCC
   Dagmar Lenk            : GEPOL surface, SMD
   Dimitrios Liakos       : Extrapolation schemes; Compound Job, initial MDCI parallelization
   Dimitrios Manganas     : Further ROCIS development; embedding schemes
   Dimitrios Pantazis     : SARC Basis sets
   Anastasios Papadopoulos: AUTO-CI, single reference methods and gradients
   Taras Petrenko         : DFT Hessian,TD-DFT gradient, ASA, ECA, R-Raman, ABS, FL, XAS/XES, NRVS
   Peter Pinski           : DLPNO-MP2, DLPNO-MP2 Gradient
   Christoph Reimann      : Effective Core Potentials
   Marius Retegan         : Local ZFS, SOC
   Christoph Riplinger    : Optimizer, TS searches, QM/MM, DLPNO-CCSD(T), (RO)-DLPNO pert. Triples
   Tobias Risthaus        : Range-separated hybrids, TD-DFT gradient, RPA, STAB
   Michael Roemelt        : Original ROCIS implementation
   Masaaki Saitow         : Open-shell DLPNO-CCSD energy and density
   Barbara Sandhoefer     : DKH picture change effects
   Avijit Sen             : IP-ROCIS
   Kantharuban Sivalingam : CASSCF convergence, NEVPT2, FIC-MRCI
   Bernardo de Souza      : ESD, SOC TD-DFT
   Georgi Stoychev        : AutoAux, RI-MP2 NMR, DLPNO-MP2 response
   Willem Van den Heuvel  : Paramagnetic NMR
   Boris Wezisla          : Elementary symmetry handling
   Frank Wennmohs         : Technical directorship


 We gratefully acknowledge several colleagues who have allowed us to
 interface, adapt or use parts of their codes:
   Stefan Grimme, W. Hujo, H. Kruse, P. Pracht,  : VdW corrections, initial TS optimization,
                  C. Bannwarth, S. Ehlert          DFT functionals, gCP, sTDA/sTD-DF
   Ed Valeev, F. Pavosevic, A. Kumar             : LibInt (2-el integral package), F12 methods
   Garnet Chan, S. Sharma, J. Yang, R. Olivares  : DMRG
   Ulf Ekstrom                                   : XCFun DFT Library
   Mihaly Kallay                                 : mrcc  (arbitrary order and MRCC methods)
   Jiri Pittner, Ondrej Demel                    : Mk-CCSD
   Frank Weinhold                                : gennbo (NPA and NBO analysis)
   Christopher J. Cramer and Donald G. Truhlar   : smd solvation model
   Lars Goerigk                                  : TD-DFT with DH, B97 family of functionals
   V. Asgeirsson, H. Jonsson                     : NEB implementation
   FAccTs GmbH                                   : IRC, NEB, NEB-TS, DLPNO-Multilevel, CI-OPT
                                                   MM, QMMM, 2- and 3-layer-ONIOM, Crystal-QMMM,
                                                   LR-CPCM, SF, NACMEs, symmetry and pop. for TD-DFT,
                                                   nearIR, NL-DFT gradient (VV10), updates on ESD,
                                                   ML-optimized integration grids
   S Lehtola, MJT Oliveira, MAL Marques          : LibXC Library
   Liviu Ungur et al                             : ANISO software


 Your calculation uses the libint2 library for the computation of 2-el integrals
 For citations please refer to: http://libint.valeyev.net

 Your ORCA version has been built with support for libXC version: 5.1.0
 For citations please refer to: https://tddft.org/programs/libxc/

 This ORCA versions uses:
   CBLAS   interface :  Fast vector & matrix operations
   LAPACKE interface :  Fast linear algebra routines
   SCALAPACK package :  Parallel linear algebra routines
   Shared memory     :  Shared parallel matrices
   BLAS/LAPACK       :  OpenBLAS 0.3.15  USE64BITINT DYNAMIC_ARCH NO_AFFINITY SkylakeX SINGLE_THREADED
        Core in use  :  SkylakeX
   Copyright (c) 2011-2014, The OpenBLAS Project


Your calculation utilizes the geometrical counterpoise correction gCP
Please cite in your paper:
H.Kruse, S. Grimme J.Chem.Phys., 136, (2012), 154101 
   

Your calculation utilizes the atom-pairwise dispersion correction
with the Becke-Johnson damping scheme (D3BJ)
Cite in your paper:
S.Grimme, S.Ehrlich, L.Goerigk, J Comput Chem, (2011), 32, 1456–1465 
S.Grimme, J.Antony, S.Ehrlich and H.Krieg, J.Chem.Phys., 132, (2010), 154104 
   

Your calculation employs the composite approach PBEh-3c.
Please cite in your paper:
S. Grimme, J. G. Brandenburg, C. Bannwarth, A. Hansen J.Chem.Phys., 143, (2015), 054107 
   

================================================================================

cite the ECPs for Lu [Def2-ECP] as follows:
Ce-Yb(ecp-28): M. Dolg, H. Stoll, H.Preuss, J. Chem. Phys., 1989, 90, 1730-1734.
Y-Cd(ecp-28), Hf-Hg(ecp-46): D. Andrae,U. Haeussermann, M. Dolg, H. Stoll, H. Preuss, Theor. Chim. Acta, 1990, 77, 123-141.
In-Sb(ecp-28), Tl-Bi(ecp-46): B. Metz, H. Stoll, M. Dolg, J. Chem. Phys., 2000, 113, 2563-2569.
Te-Xe(ecp-28), Po-Rn(ecp-46): K. A. Peterson, D. Figgen, E. Goll, H. Stoll, M. Dolg, J. Chem. Phys., 2003, 119, 11113-11123.
Rb(ecp-28), Cs(ecp-46): T. Leininger, A. Nicklass, W. Kuechle, H. Stoll, M. Dolg, A. Bergner, Chem. Phys. Lett., 1996, 255, 274-280.
Sr(ecp-28), Ba(ecp-46): M. Kaupp, P. V. Schleyer, H. Stoll and H. Preuss, J. Chem. Phys., 1991, 94, 1360-1366.
La(ecp-46): M. Dolg, H. Stoll, A. Savin, H. Preuss, Theor. Chim. Acta, 1989, 75, 173-194.
Lu(ecp-28): X. Cao, M. Dolg, J. Chem. Phys., 2001, 115, 7348-7355.

ECP parameters for Lu [Def2-ECP] have been obtained from:
TURBOMOLE (7.0.2)

----- Orbital basis set information -----
Your calculation utilizes the basis: def2-mSVP

----- AuxJ basis set information -----
Your calculation utilizes the auxiliary basis: def2/J
   F. Weigend, Phys. Chem. Chem. Phys. 8, 1057 (2006).

================================================================================
                                        WARNINGS
                       Please study these warnings very carefully!
================================================================================


WARNING: No Hueckel Guess possible with ECP basis!
  ===> : Switching to HCORE guess!

INFO   : the flag for use of the SHARK integral package has been found!

================================================================================
                                       INPUT FILE
================================================================================
NAME = 3_9_orca.inp
|  1> ! EnGrad PBEh-3c
|  2> %output 
|  3> xyzfile=True 
|  4> end 
|  5> %scf 
|  6> maxiter 250 
|  7> end
|  8> %output
|  9> Print[P_Hirshfeld] = 1
| 10> end
| 11> % maxcore
| 12> 4000
| 13> *xyz 0 1
| 14> Lu  -0.03685307   0.09167609  -0.00229293 
| 15> C    0.43559748   0.80594387   2.51009514 
| 16> C    1.43262427  -0.15658383   2.21734662 
| 17> C    2.31451969   0.41300508   1.25075598 
| 18> C    1.83264144   1.70862152   0.93468203 
| 19> C    0.66911823   1.95588112   1.72472781 
| 20> H    2.34400655   2.42806362   0.32894298 
| 21> H    0.08830156   2.86081417   1.73207872 
| 22> H   -0.35269356   0.68775633   3.23697934 
| 23> H    1.58328874  -1.09592382   2.71135096 
| 24> H    3.24601129  -0.00804739   0.93597520 
| 25> C    0.91852286  -0.08619891  -2.45317070 
| 26> C   -0.35134235  -0.72995843  -2.48662419 
| 27> C    1.06505281  -2.01332428  -1.20921558 
| 28> C    1.79743401  -0.88393618  -1.68199259 
| 29> H    1.19800276   0.78571889  -3.01193324 
| 30> C   -0.25075326  -1.90736801  -1.71986518 
| 31> H   -1.22912953  -0.35839721  -2.98699326 
| 32> H    2.85619365  -0.75975302  -1.61208408 
| 33> H    1.49240214  -2.85558973  -0.69846675 
| 34> H   -1.03877119  -2.62857063  -1.55748334 
| 35> C   -2.33531872  -1.28066276   1.11584306 
| 36> H   -2.26031812  -1.22660034   2.22107661 
| 37> H   -1.92029481  -2.28111462   0.93665003 
| 38> H   -3.41559567  -1.33247849   0.92535708 
| 39> C   -1.89290406   1.69175151  -0.72841855 
| 40> H   -2.03264538  -0.05148866   0.33608683 
| 41> H   -1.14480766   2.35988461  -1.17295850 
| 42> H   -2.48908505   2.42080329  -0.16657405 
| 43> H   -2.51914023   1.46770668  -1.59772278 
| 44> *
| 45> 
| 46>                          ****END OF INPUT****
================================================================================

                     *******************************
                     * Energy+Gradient Calculation *
                     *******************************

---------------------------------
CARTESIAN COORDINATES (ANGSTROEM)
---------------------------------
  Lu    -0.036853    0.091676   -0.002293
  C      0.435597    0.805944    2.510095
  C      1.432624   -0.156584    2.217347
  C      2.314520    0.413005    1.250756
  C      1.832641    1.708622    0.934682
  C      0.669118    1.955881    1.724728
  H      2.344007    2.428064    0.328943
  H      0.088302    2.860814    1.732079
  H     -0.352694    0.687756    3.236979
  H      1.583289   -1.095924    2.711351
  H      3.246011   -0.008047    0.935975
  C      0.918523   -0.086199   -2.453171
  C     -0.351342   -0.729958   -2.486624
  C      1.065053   -2.013324   -1.209216
  C      1.797434   -0.883936   -1.681993
  H      1.198003    0.785719   -3.011933
  C     -0.250753   -1.907368   -1.719865
  H     -1.229130   -0.358397   -2.986993
  H      2.856194   -0.759753   -1.612084
  H      1.492402   -2.855590   -0.698467
  H     -1.038771   -2.628571   -1.557483
  C     -2.335319   -1.280663    1.115843
  H     -2.260318   -1.226600    2.221077
  H     -1.920295   -2.281115    0.936650
  H     -3.415596   -1.332478    0.925357
  C     -1.892904    1.691752   -0.728419
  H     -2.032645   -0.051489    0.336087
  H     -1.144808    2.359885   -1.172959
  H     -2.489085    2.420803   -0.166574
  H     -2.519140    1.467707   -1.597723

----------------------------
CARTESIAN COORDINATES (A.U.)
----------------------------
  NO LB      ZA    FRAG     MASS         X           Y           Z
   0 Lu   43.0000*   0   174.967   -0.069642    0.173243   -0.004333
   1 C     6.0000    0    12.011    0.823160    1.523013    4.743392
   2 C     6.0000    0    12.011    2.707268   -0.295901    4.190178
   3 C     6.0000    0    12.011    4.373808    0.780466    2.363586
   4 C     6.0000    0    12.011    3.463190    3.228827    1.766293
   5 C     6.0000    0    12.011    1.264450    3.696080    3.259263
   6 H     1.0000    0     1.008    4.429530    4.588375    0.621612
   7 H     1.0000    0     1.008    0.166866    5.406155    3.273154
   8 H     1.0000    0     1.008   -0.666494    1.299671    6.117004
   9 H     1.0000    0     1.008    2.991982   -2.070996    5.123711
  10 H     1.0000    0     1.008    6.134072   -0.015207    1.768737
  11 C     6.0000    0    12.011    1.735757   -0.162892   -4.635821
  12 C     6.0000    0    12.011   -0.663941   -1.379422   -4.699039
  13 C     6.0000    0    12.011    2.012658   -3.804632   -2.285086
  14 C     6.0000    0    12.011    3.396658   -1.670397   -3.178505
  15 H     1.0000    0     1.008    2.263897    1.484794   -5.691729
  16 C     6.0000    0    12.011   -0.473855   -3.604403   -3.250074
  17 H     1.0000    0     1.008   -2.322718   -0.677273   -5.644599
  18 H     1.0000    0     1.008    5.397424   -1.435725   -3.046397
  19 H     1.0000    0     1.008    2.820231   -5.396283   -1.319911
  20 H     1.0000    0     1.008   -1.962993   -4.967279   -2.943217
  21 C     6.0000    0    12.011   -4.413113   -2.420102    2.108638
  22 H     1.0000    0     1.008   -4.271382   -2.317939    4.197227
  23 H     1.0000    0     1.008   -3.628831   -4.310682    1.770012
  24 H     1.0000    0     1.008   -6.454540   -2.518019    1.748671
  25 C     6.0000    0    12.011   -3.577070    3.196947   -1.376512
  26 H     1.0000    0     1.008   -3.841143   -0.097299    0.635112
  27 H     1.0000    0     1.008   -2.163373    4.459536   -2.216570
  28 H     1.0000    0     1.008   -4.703689    4.574655   -0.314779
  29 H     1.0000    0     1.008   -4.760485    2.773564   -3.019258
* core charge reduced due to ECP

--------------------------------
INTERNAL COORDINATES (ANGSTROEM)
--------------------------------
 Lu     0   0   0     0.000000000000     0.00000000     0.00000000
 C      1   0   0     2.654332646452     0.00000000     0.00000000
 C      2   1   0     1.416412259622    75.33278852     0.00000000
 C      3   2   1     1.427048886180   107.68385554    67.89792837
 C      4   3   2     1.418002591426   107.79774482   358.62570452
 C      2   1   3     1.411980687775    73.86627884   114.97804531
 H      5   4   3     1.070519036576   125.29891136   172.29817083
 H      6   2   1     1.075316634769   126.31597406   112.91330126
 H      2   1   3     1.078763967958   118.57000272   237.37205543
 H      3   2   1     1.071960674312   126.81026473   240.86276397
 H      4   3   2     1.069602132955   125.47903799   170.42812347
 C      1   2   3     2.636509914021   146.46382620   301.84506379
 C     12   1   2     1.424114850408    74.28925363   173.39705366
 C     12   1   2     2.298414139906    64.94756834    96.30410527
 C     12   1   2     1.415480568176    75.91074193    59.54046973
 H     12   1   2     1.072644041874   121.58866226   296.32185748
 C     13  12   1     1.408662792693   107.54007605   291.88391056
 H     13  12   1     1.076539492909   125.58862288   110.24616500
 H     15  12   1     1.068307367891   125.83960492   236.58618535
 H     14  12   1     1.073733163063   160.14080634   240.13961477
 H     17  13  12     1.080496801966   125.98840305   180.90735903
 C      1   2   3     2.901118121618    84.46262875   107.61910265
 H     22   1   2     1.109093790129   107.90502962   352.35852214
 H     22   1   2     1.097842844878    93.93699712   250.03470984
 H     22   1   2     1.098165773986   137.29279322   128.78555192
 C      1   2   3     2.555860920158   103.27950040   186.19540872
 H     22   1   2     1.486774998808    41.01812111   104.62198242
 H     26   1   2     1.097117053989    90.06845335    95.77917056
 H     26   1   2     1.096639189952   131.71546371   352.28179393
 H     26   1   2     1.094558208028   120.86206274   198.81270538

---------------------------
INTERNAL COORDINATES (A.U.)
---------------------------
 Lu     0   0   0     0.000000000000     0.00000000     0.00000000
 C      1   0   0     5.015961770120     0.00000000     0.00000000
 C      2   1   0     2.676631263414    75.33278852     0.00000000
 C      3   2   1     2.696731574598   107.68385554    67.89792837
 C      4   3   2     2.679636554985   107.79774482   358.62570452
 C      2   1   3     2.668256806280    73.86627884   114.97804531
 H      5   4   3     2.022987800279   125.29891136   172.29817083
 H      6   2   1     2.032053946962   126.31597406   112.91330126
 H      2   1   3     2.038568462583   118.57000272   237.37205543
 H      3   2   1     2.025712100784   126.81026473   240.86276397
 H      4   3   2     2.021255103542   125.47903799   170.42812347
 C      1   2   3     4.982281686867   146.46382620   301.84506379
 C     12   1   2     2.691187050521    74.28925363   173.39705366
 C     12   1   2     4.343373266754    64.94756834    96.30410527
 C     12   1   2     2.674870621740    75.91074193    59.54046973
 H     12   1   2     2.027003478324   121.58866226   296.32185748
 C     13  12   1     2.661986893235   107.54007605   291.88391056
 H     13  12   1     2.034364813949   125.58862288   110.24616500
 H     15  12   1     2.018808352165   125.83960492   236.58618535
 H     14  12   1     2.029061619098   160.14080634   240.13961477
 H     17  13  12     2.041843044293   125.98840305   180.90735903
 C      1   2   3     5.482318732015    84.46262875   107.61910265
 H     22   1   2     2.095883520176   107.90502962   352.35852214
 H     22   1   2     2.074622314904    93.93699712   250.03470984
 H     22   1   2     2.075232562478   137.29279322   128.78555192
 C      1   2   3     4.829877175490   103.27950040   186.19540872
 H     22   1   2     2.809597570509    41.01812111   104.62198242
 H     26   1   2     2.073250768895    90.06845335    95.77917056
 H     26   1   2     2.072347736735   131.71546371   352.28179393
 H     26   1   2     2.068415250809   120.86206274   198.81270538

---------------------
BASIS SET INFORMATION
---------------------
There are 3 groups of distinct atoms

 Group   1 Type Lu  : 14s13p9d7f1g contracted to 10s7p4d3f1g pattern {5111111111/5311111/6111/511/1}
 Group   2 Type C   : 8s4p1d contracted to 4s2p1d pattern {5111/31/1}
 Group   3 Type H   : 4s contracted to 2s pattern {31}

Atom   0Lu   basis set group =>   1
Atom   1C    basis set group =>   2
Atom   2C    basis set group =>   2
Atom   3C    basis set group =>   2
Atom   4C    basis set group =>   2
Atom   5C    basis set group =>   2
Atom   6H    basis set group =>   3
Atom   7H    basis set group =>   3
Atom   8H    basis set group =>   3
Atom   9H    basis set group =>   3
Atom  10H    basis set group =>   3
Atom  11C    basis set group =>   2
Atom  12C    basis set group =>   2
Atom  13C    basis set group =>   2
Atom  14C    basis set group =>   2
Atom  15H    basis set group =>   3
Atom  16C    basis set group =>   2
Atom  17H    basis set group =>   3
Atom  18H    basis set group =>   3
Atom  19H    basis set group =>   3
Atom  20H    basis set group =>   3
Atom  21C    basis set group =>   2
Atom  22H    basis set group =>   3
Atom  23H    basis set group =>   3
Atom  24H    basis set group =>   3
Atom  25C    basis set group =>   2
Atom  26H    basis set group =>   3
Atom  27H    basis set group =>   3
Atom  28H    basis set group =>   3
Atom  29H    basis set group =>   3
---------------------------------
AUXILIARY/J BASIS SET INFORMATION
---------------------------------
There are 3 groups of distinct atoms

 Group   1 Type Lu  : 18s7p6d6f6g3h5i contracted to 14s7p6d6f5g2h2i pattern {51111111111111/1111111/111111/111111/21111/21/41}
 Group   2 Type C   : 12s5p4d2f1g contracted to 6s4p3d1f1g pattern {711111/2111/211/2/1}
 Group   3 Type H   : 5s2p1d contracted to 3s1p1d pattern {311/2/1}

Atom   0Lu   basis set group =>   1
Atom   1C    basis set group =>   2
Atom   2C    basis set group =>   2
Atom   3C    basis set group =>   2
Atom   4C    basis set group =>   2
Atom   5C    basis set group =>   2
Atom   6H    basis set group =>   3
Atom   7H    basis set group =>   3
Atom   8H    basis set group =>   3
Atom   9H    basis set group =>   3
Atom  10H    basis set group =>   3
Atom  11C    basis set group =>   2
Atom  12C    basis set group =>   2
Atom  13C    basis set group =>   2
Atom  14C    basis set group =>   2
Atom  15H    basis set group =>   3
Atom  16C    basis set group =>   2
Atom  17H    basis set group =>   3
Atom  18H    basis set group =>   3
Atom  19H    basis set group =>   3
Atom  20H    basis set group =>   3
Atom  21C    basis set group =>   2
Atom  22H    basis set group =>   3
Atom  23H    basis set group =>   3
Atom  24H    basis set group =>   3
Atom  25C    basis set group =>   2
Atom  26H    basis set group =>   3
Atom  27H    basis set group =>   3
Atom  28H    basis set group =>   3
Atom  29H    basis set group =>   3
-------------------------
ECP PARAMETER INFORMATION
-------------------------

 Group 1, Type Lu ECP Def2-ECP (replacing 28 core electrons, lmax=5)

Atom   0Lu   ECP group =>   1

------------------------------------------------------------------------------
                           ORCA GTO INTEGRAL CALCULATION
                           -- RI-GTO INTEGRALS CHOSEN --
------------------------------------------------------------------------------
------------------------------------------------------------------------------
                   ___                                                        
                  /   \      - P O W E R E D   B Y -                         
                 /     \                                                     
                 |  |  |   _    _      __       _____    __    __             
                 |  |  |  | |  | |    /  \     |  _  \  |  |  /  |          
                  \  \/   | |  | |   /    \    | | | |  |  | /  /          
                 / \  \   | |__| |  /  /\  \   | |_| |  |  |/  /          
                |  |  |   |  __  | /  /__\  \  |    /   |      \           
                |  |  |   | |  | | |   __   |  |    \   |  |\   \          
                \     /   | |  | | |  |  |  |  | |\  \  |  | \   \       
                 \___/    |_|  |_| |__|  |__|  |_| \__\ |__|  \__/        
                                                                              
                      - O R C A' S   B I G   F R I E N D -                    
                                      &                                       
                       - I N T E G R A L  F E E D E R -                       
                                                                              
 v1 FN, 2020, v2 2021                                                         
------------------------------------------------------------------------------


Reading SHARK input file 3_9_orca.SHARKINP.tmp ... ok
----------------------
SHARK INTEGRAL PACKAGE
----------------------

Number of atoms                             ...     30
Number of basis functions                   ...    295
Number of shells                            ...    143
Maximum angular momentum                    ...      4
Integral batch strategy                     ... SHARK/LIBINT Hybrid
RI-J (if used) integral strategy            ... SPLIT-RIJ (Revised 2003 algorithm where possible)
Printlevel                                  ...      1
Contraction scheme used                     ... SEGMENTED contraction
Coulomb Range Separation                    ... NOT USED
Exchange Range Separation                   ... NOT USED
Finite Nucleus Model                        ... NOT USED
Auxiliary Coulomb fitting basis             ... AVAILABLE
   # of basis functions in Aux-J            ...    975
   # of shells in Aux-J                     ...    307
   Maximum angular momentum in Aux-J        ...      6
Auxiliary J/K fitting basis                 ... NOT available
Auxiliary Correlation fitting basis         ... NOT available
Auxiliary 'external' fitting basis          ... NOT available
Integral threshold                          ...     2.500000e-11
Primitive cut-off                           ...     2.500000e-12
Primitive pair pre-selection threshold      ...     2.500000e-12

Calculating pre-screening integrals         ... done (  0.2 sec) Dimension = 143
Organizing shell pair data                  ... done (  0.1 sec)
Shell pair information
Total number of shell pairs                 ...     10296
Shell pairs after pre-screening             ...      8732
Total number of primitive shell pairs       ...     36301
Primitive shell pairs kept                  ...     20249
          la=0 lb=0:   3313 shell pairs
          la=1 lb=0:   2595 shell pairs
          la=1 lb=1:    496 shell pairs
          la=2 lb=0:   1172 shell pairs
          la=2 lb=1:    492 shell pairs
          la=2 lb=2:    123 shell pairs
          la=3 lb=0:    251 shell pairs
          la=3 lb=1:     93 shell pairs
          la=3 lb=2:     48 shell pairs
          la=3 lb=3:      6 shell pairs
          la=4 lb=0:     92 shell pairs
          la=4 lb=1:     31 shell pairs
          la=4 lb=2:     16 shell pairs
          la=4 lb=3:      3 shell pairs
          la=4 lb=4:      1 shell pairs

Calculating one electron integrals          ... done (  0.1 sec)
Calculating ECP integrals                   ... done (  0.6 sec)
Calculating RI/J V-Matrix + Cholesky decomp.... done (  0.1 sec)
Calculating Nuclear repulsion               ... done (  0.0 sec) ENN=   1372.496962188927 Eh

SHARK setup successfully completed in   1.4 seconds

Maximum memory used throughout the entire GTOINT-calculation: 133.2 MB
-------------------------------------------------------------------------------
                                 ORCA SCF
-------------------------------------------------------------------------------

------------
SCF SETTINGS
------------
Hamiltonian:
 Density Functional     Method          .... DFT(GTOs)
 Exchange Functional    Exchange        .... PBE
   PBE kappa parameter   XKappa         ....  1.024500
   PBE mue parameter    XMuePBE         ....  0.123457
 Correlation Functional Correlation     .... PBE
   PBE beta parameter  CBetaPBE         ....  0.030000
 LDA part of GGA corr.  LDAOpt          .... PW91-LDA
 Gradients option       PostSCFGGA      .... off
 Hybrid DFT is turned on
   Fraction HF Exchange ScalHFX         ....  0.420000
   Scaling of DF-GGA-X  ScalDFX         ....  0.580000
   Scaling of DF-GGA-C  ScalDFC         ....  1.000000
   Scaling of DF-LDA-C  ScalLDAC        ....  1.000000
   Perturbative correction              ....  0.000000
   Density functional embedding theory  .... OFF
 RI-approximation to the Coulomb term is turned on
   Number of AuxJ basis functions       .... 975
   RIJ-ON(X) (HFX calculated with O(N)) .... on
   Number of AuxJ basis functions       .... 975
   RIJ-COSX (HFX calculated with COS-X)).... on


General Settings:
 Integral files         IntName         .... 3_9_orca
 Hartree-Fock type      HFTyp           .... RHF
 Total Charge           Charge          ....    0
 Multiplicity           Mult            ....    1
 Number of Electrons    NEL             ....  132
 Basis Dimension        Dim             ....  295
 Nuclear Repulsion      ENuc            ....   1372.4969621889 Eh

Convergence Acceleration:
 DIIS                   CNVDIIS         .... on
   Start iteration      DIISMaxIt       ....    12
   Startup error        DIISStart       ....  0.200000
   # of expansion vecs  DIISMaxEq       ....     5
   Bias factor          DIISBfac        ....   1.050
   Max. coefficient     DIISMaxC        ....  10.000
 Trust-Rad. Augm. Hess. CNVTRAH         .... auto
   Auto Start mean grad. ratio tolernc. ....  1.125000
   Auto Start start iteration           ....    20
   Auto Start num. interpolation iter.  ....    10
   Max. Number of Micro iterations      ....    16
   Max. Number of Macro iterations      .... Maxiter - #DIIS iter
   Number of Davidson start vectors     ....     2
   Converg. threshold I  (grad. norm)   ....   1.000e-05
   Converg. threshold II (energy diff.) ....   1.000e-08
   Grad. Scal. Fac. for Micro threshold ....   0.100
   Minimum threshold for Micro iter.    ....   0.010
   NR start threshold (gradient norm)   ....   0.001
   Initial trust radius                 ....   0.400
   Minimum AH scaling param. (alpha)    ....   1.000
   Maximum AH scaling param. (alpha)    .... 1000.000
   Orbital update algorithm             .... Taylor
   White noise on init. David. guess    .... on
   Maximum white noise                  ....   0.010
   Quad. conv. algorithm                .... NR
   COSX micro iterations for RIJONX calc.... off
 SOSCF                  CNVSOSCF        .... off
 Level Shifting         CNVShift        .... on
   Level shift para.    LevelShift      ....    0.2500
   Turn off err/grad.   ShiftErr        ....    0.0010
 Zerner damping         CNVZerner       .... off
 Static damping         CNVDamp         .... on
   Fraction old density DampFac         ....    0.7000
   Max. Damping (<1)    DampMax         ....    0.9800
   Min. Damping (>=0)   DampMin         ....    0.0000
   Turn off err/grad.   DampErr         ....    0.1000
 Fernandez-Rico         CNVRico         .... off

SCF Procedure:
 Maximum # iterations   MaxIter         ....   250
 SCF integral mode      SCFMode         .... Direct
   Integral package                     .... SHARK and LIBINT hybrid scheme
 Reset frequency        DirectResetFreq ....    20
 Integral Threshold     Thresh          ....  2.500e-11 Eh
 Primitive CutOff       TCut            ....  2.500e-12 Eh

Convergence Tolerance:
 Convergence Check Mode ConvCheckMode   .... Total+1el-Energy
 Convergence forced     ConvForced      .... 0
 Energy Change          TolE            ....  1.000e-08 Eh
 1-El. energy change                    ....  1.000e-05 Eh
 DIIS Error             TolErr          ....  5.000e-07


Diagonalization of the overlap matrix:
Smallest eigenvalue                        ... 1.310e-03
Time for diagonalization                   ...    0.025 sec
Threshold for overlap eigenvalues          ... 1.000e-08
Number of eigenvalues below threshold      ... 0
Time for construction of square roots      ...    0.008 sec
Total time needed                          ...    0.034 sec

--------------------
INITIAL GUESS: HCORE
--------------------
                      -----------------
                      INTIAL GUESS DONE 
                      -----------------
-------------------
DFT GRID GENERATION
-------------------

General Integration Accuracy     IntAcc      ... 4.159
Radial Grid Type                 RadialGrid  ... OptM3 with GC (2021)
Angular Grid (max. ang.)         AngularGrid ... 3 (Lebedev-194)
Angular grid pruning method      GridPruning ... 4 (adaptive)
Weight generation scheme         WeightScheme... Becke
Basis function cutoff            BFCut       ... 1.0000e-11
Integration weight cutoff        WCut        ... 1.0000e-14
Angular grids for H and He will be reduced by one unit
Partially contracted basis set               ... off
Rotationally invariant grid construction     ... off

Total number of grid points                  ...    67300
Total number of batches                      ...     1069
Average number of points per batch           ...       62
Average number of grid points per atom       ...     2243
Time for grid setup =    1.007 sec

--------------------
COSX GRID GENERATION
--------------------

GRIDX 1
-------
General Integration Accuracy     IntAcc      ... 3.816
Radial Grid Type                 RadialGrid  ... OptM3 with GC (2021)
Angular Grid (max. ang.)         AngularGrid ... 1 (Lebedev-50)
Angular grid pruning method      GridPruning ... 4 (adaptive)
Weight generation scheme         WeightScheme... Becke
Basis function cutoff            BFCut       ... 1.0000e-11
Integration weight cutoff        WCut        ... 1.0000e-14
Angular grids for H and He will be reduced by one unit
Partially contracted basis set               ... on
Rotationally invariant grid construction     ... off

Total number of grid points                  ...    17102
Total number of batches                      ...      282
Average number of points per batch           ...       60
Average number of grid points per atom       ...      570
UseSFitting                                  ... on

GRIDX 2
-------
General Integration Accuracy     IntAcc      ... 4.020
Radial Grid Type                 RadialGrid  ... OptM3 with GC (2021)
Angular Grid (max. ang.)         AngularGrid ... 2 (Lebedev-110)
Angular grid pruning method      GridPruning ... 4 (adaptive)
Weight generation scheme         WeightScheme... Becke
Basis function cutoff            BFCut       ... 1.0000e-11
Integration weight cutoff        WCut        ... 1.0000e-14
Angular grids for H and He will be reduced by one unit
Partially contracted basis set               ... on
Rotationally invariant grid construction     ... off

Total number of grid points                  ...    36751
Total number of batches                      ...      590
Average number of points per batch           ...       62
Average number of grid points per atom       ...     1225
UseSFitting                                  ... on

GRIDX 3
-------
General Integration Accuracy     IntAcc      ... 4.338
Radial Grid Type                 RadialGrid  ... OptM3 with GC (2021)
Angular Grid (max. ang.)         AngularGrid ... 3 (Lebedev-194)
Angular grid pruning method      GridPruning ... 4 (adaptive)
Weight generation scheme         WeightScheme... Becke
Basis function cutoff            BFCut       ... 1.0000e-11
Integration weight cutoff        WCut        ... 1.0000e-14
Angular grids for H and He will be reduced by one unit
Partially contracted basis set               ... on
Rotationally invariant grid construction     ... off

Total number of grid points                  ...    78702
Total number of batches                      ...     1248
Average number of points per batch           ...       63
Average number of grid points per atom       ...     2623
UseSFitting                                  ... on

Time for X-Grid setup             =    2.721 sec

--------------
SCF ITERATIONS
--------------
ITER       Energy         Delta-E        Max-DP      RMS-DP      [F,P]     Damp
               ***  Starting incremental Fock matrix formation  ***
  0   -474.7328540302   0.00000000000042.56045928  0.28578001  3.2819286 0.7000
  1  -1256.9948459948-782.26199196459629.62868807  0.19683179  1.5985709 0.7000
  2  -1431.0760396390-174.08119364420520.80883092  0.13437113  0.9409489 0.7000
  3  -1519.0953241894 -88.01928455032214.58168264  0.09548074  0.7757875 0.7000
  4  -1575.5138141286 -56.41848993921910.12941519  0.06732344  0.6781395 0.7000
  5  -1613.8614118123 -38.347597683742 7.05723219  0.04731782  0.6631295 0.7000
  6  -1640.4736927865 -26.612280974154 4.93088114  0.03318596  0.5207802 0.7000
  7  -1659.0400129989 -18.566320212399 3.44814493  0.02325543  0.3901224 0.7000
  8  -1672.0290396302 -12.989026631338 2.41126739  0.01629779  0.2913573 0.7000
  9  -1681.1299492601  -9.100909629912 1.68630127  0.01142531  0.2195431 0.7000
                               ***Turning on DIIS***
 10  -1687.5100355448  -6.380086284660 1.17962065  0.00801155  0.1652739 0.7000
 11  -1691.9827372136  -4.472701668762 0.82509814  0.00562979  0.1235392 0.7000
 12  -1695.1176297442  -3.134892530667 1.92745195  0.01316713  0.0869379 0.0000
 13  -1702.4480732398  -7.330443495614 0.00707060  0.00011424  0.0041529 0.0000
 14  -1702.4480688105   0.000004429325 0.00253160  0.00004088  0.0066441 0.0000
 15  -1702.4479299362   0.000138874285 0.00091167  0.00002482  0.0029333 0.0000
 16  -1702.4479439978  -0.000014061584 0.00137324  0.00002253  0.0003299 0.0000
               *** Restarting incremental Fock matrix formation ***
                                   *** Resetting DIIS ***
 17  -1702.3311549034   0.116789094431 0.00950426  0.00008911  0.1030953 0.7000
 18  -1702.3330521377  -0.001897234364 0.02279171  0.00026841  0.0721120 0.0000
 19  -1702.3381802734  -0.005128135688 0.00894249  0.00009571  0.0246990 0.0000

 WARNING: the maximum gradient error descreased on average only by a factor   1.0
          during the last 20 iterations

                      *** Initiating the TRAH-SCF procedure ***


TRAH GRIDX
----------

General Integration Accuracy     IntAcc      ... 3.067
Radial Grid Type                 RadialGrid  ... OptM3 with GC (2021)
Angular Grid (max. ang.)         AngularGrid ... 1 (Lebedev-50)
Angular grid pruning method      GridPruning ... 4 (adaptive)
Weight generation scheme         WeightScheme... Becke
Basis function cutoff            BFCut       ... 1.0000e-11
Integration weight cutoff        WCut        ... 1.0000e-14
Angular grids for H and He will be reduced by one unit
Partially contracted basis set               ... on
Rotationally invariant grid construction     ... off

Total number of grid points                  ...     9130
Total number of batches                      ...      160
Average number of points per batch           ...       57
Average number of grid points per atom       ...      304


TRAH GRID
---------

General Integration Accuracy     IntAcc      ... 3.467
Radial Grid Type                 RadialGrid  ... OptM3 with GC (2021)
Angular Grid (max. ang.)         AngularGrid ... 1 (Lebedev-50)
Angular grid pruning method      GridPruning ... 4 (adaptive)
Weight generation scheme         WeightScheme... Becke
Basis function cutoff            BFCut       ... 1.0000e-11
Integration weight cutoff        WCut        ... 1.0000e-14
Angular grids for H and He will be reduced by one unit
Partially contracted basis set               ... off
Rotationally invariant grid construction     ... off

Total number of grid points                  ...    21842
Total number of batches                      ...      357
Average number of points per batch           ...       61
Average number of grid points per atom       ...      728

 --------------------------------------------------------------------------------------------
   Iter.        energy            ||Error||_2        Shift      TRadius  Mac/Mic        Rej.
 --------------------------------------------------------------------------------------------
    0      -1702.338259758552     1.511217e-01                     0.400 (TRAH MAcro)   No
    0     dE    -1.546120e-04     1.146075e-01    -3.0922e-04      0.002 (TRAH MIcro)
    0     dE    -2.076579e-04     1.472059e-02    -4.1531e-04      0.004 (TRAH MIcro)
    0     dE    -2.108000e-04     3.363172e-03    -4.2159e-04      0.004 (TRAH MIcro)
    1      -1702.338470457619     3.029376e-03                     0.480 (TRAH MAcro)   No
    1     dE    -1.227881e-08     6.784877e-03    -2.5265e-08      0.000 (TRAH MIcro)
    1     dE    -3.825626e-07     1.765674e-03    -7.6513e-07      0.000 (TRAH MIcro)
    1     dE    -4.712312e-07     8.350966e-04    -9.4246e-07      0.001 (TRAH MIcro)
    1     dE    -4.769481e-07     3.257269e-04    -9.5390e-07      0.001 (TRAH MIcro)
    1     dE    -4.784347e-07     4.270716e-05    -9.5687e-07      0.001 (TRAH MIcro)
    2      -1702.338470941446     7.794060e-05                           (NR   MAcro)
    2     dE    -1.752551e-10     4.889043e-05                           (NR   MIcro)
    2     dE    -2.390121e-10     1.536830e-05                           (NR   MIcro)
    2     dE    -2.455131e-10     6.831816e-06                           (NR   MIcro)
    2     dE    -2.468192e-10     2.078114e-06                           (NR   MIcro)
    2     dE    -2.470137e-10     7.268258e-07                           (NR   MIcro)
    3      -1702.338470941424     2.178238e-06                           (NR   MAcro)

               *****************************************************
               *                     SUCCESS                       *
               *           SCF CONVERGED AFTER  37 CYCLES          *
               *****************************************************

Old exchange energy                            =    -54.618259693 Eh
New exchange energy                            =    -54.618360365 Eh
Exchange energy change after final integration =     -0.000100672 Eh
Total energy after final integration           =  -1702.338571613 Eh
Final COS-X integration done in                =    40.366 sec

----------------
TOTAL SCF ENERGY
----------------

Total Energy       :        -1702.33857161 Eh          -46322.98755 eV

Components:
Nuclear Repulsion  :         1372.49696219 Eh           37347.54105 eV
Electronic Energy  :        -3074.83553380 Eh          -83670.52860 eV
One Electron Energy:        -5612.35910128 Eh         -152720.05528 eV
Two Electron Energy:         2537.52356748 Eh           69049.52668 eV
Max COSX asymmetry :            0.00001857 Eh               0.00051 eV

Virial components:
Potential Energy   :        -2969.02989269 Eh          -80791.41074 eV
Kinetic Energy     :         1266.69132108 Eh           34468.42319 eV
Virial Ratio       :            2.34392535


DFT components:
N(Alpha)           :       66.000786468139 electrons
N(Beta)            :       66.000786468139 electrons
N(Total)           :      132.001572936278 electrons
E(X)               :      -74.374709832305 Eh       
E(C)               :       -6.761370332804 Eh       
E(XC)              :      -81.136080165109 Eh       
DFET-embed. en.    :        0.000000000000 Eh       

---------------
SCF CONVERGENCE
---------------

  Last Energy change         ...    2.1146e-11  Tolerance :   1.0000e-08
  Last Orbital Gradient      ...    2.1782e-06  Tolerance :   1.0000e-05
  Last Orbital Rotation      ...    1.2645e-05

             **** THE GBW FILE WAS UPDATED (3_9_orca.gbw) ****
             **** DENSITY 3_9_orca.scfp WAS UPDATED ****
             **** ENERGY FILE WAS UPDATED (3_9_orca.en.tmp) ****
             **** THE GBW FILE WAS UPDATED (3_9_orca.gbw) ****
             **** DENSITY 3_9_orca.scfp WAS UPDATED ****
----------------
ORBITAL ENERGIES
----------------

  NO   OCC          E(Eh)            E(eV) 
   0   2.0000     -19.260842      -524.1142 
   1   2.0000     -12.632548      -343.7491 
   2   2.0000     -12.631336      -343.7161 
   3   2.0000     -12.630820      -343.7021 
   4   2.0000     -10.460774      -284.6521 
   5   2.0000     -10.446924      -284.2753 
   6   2.0000     -10.445745      -284.2432 
   7   2.0000     -10.445582      -284.2387 
   8   2.0000     -10.445166      -284.2274 
   9   2.0000     -10.444809      -284.2177 
  10   2.0000     -10.444374      -284.2059 
  11   2.0000     -10.443980      -284.1951 
  12   2.0000     -10.443811      -284.1905 
  13   2.0000     -10.442877      -284.1651 
  14   2.0000     -10.441879      -284.1380 
  15   2.0000     -10.387182      -282.6496 
  16   2.0000      -5.901940      -160.5999 
  17   2.0000      -5.901850      -160.5975 
  18   2.0000      -5.901302      -160.5826 
  19   2.0000      -5.900693      -160.5660 
  20   2.0000      -5.900581      -160.5630 
  21   2.0000      -2.443687       -66.4961 
  22   2.0000      -1.279883       -34.8274 
  23   2.0000      -1.279012       -34.8037 
  24   2.0000      -1.272308       -34.6213 
  25   2.0000      -0.971468       -26.4350 
  26   2.0000      -0.964295       -26.2398 
  27   2.0000      -0.791838       -21.5470 
  28   2.0000      -0.789139       -21.4736 
  29   2.0000      -0.788080       -21.4448 
  30   2.0000      -0.786375       -21.3984 
  31   2.0000      -0.776433       -21.1278 
  32   2.0000      -0.719016       -19.5654 
  33   2.0000      -0.613630       -16.6977 
  34   2.0000      -0.610797       -16.6206 
  35   2.0000      -0.608441       -16.5565 
  36   2.0000      -0.608093       -16.5470 
  37   2.0000      -0.593676       -16.1547 
  38   2.0000      -0.589437       -16.0394 
  39   2.0000      -0.569048       -15.4846 
  40   2.0000      -0.568333       -15.4651 
  41   2.0000      -0.568277       -15.4636 
  42   2.0000      -0.567469       -15.4416 
  43   2.0000      -0.567353       -15.4385 
  44   2.0000      -0.566553       -15.4167 
  45   2.0000      -0.565305       -15.3827 
  46   2.0000      -0.474943       -12.9239 
  47   2.0000      -0.466549       -12.6954 
  48   2.0000      -0.453691       -12.3456 
  49   2.0000      -0.451573       -12.2879 
  50   2.0000      -0.449886       -12.2420 
  51   2.0000      -0.449613       -12.2346 
  52   2.0000      -0.443851       -12.0778 
  53   2.0000      -0.432814       -11.7775 
  54   2.0000      -0.431574       -11.7437 
  55   2.0000      -0.429826       -11.6962 
  56   2.0000      -0.427530       -11.6337 
  57   2.0000      -0.425942       -11.5905 
  58   2.0000      -0.422437       -11.4951 
  59   2.0000      -0.398674       -10.8485 
  60   2.0000      -0.396447       -10.7879 
  61   2.0000      -0.290844        -7.9143 
  62   2.0000      -0.278761        -7.5855 
  63   2.0000      -0.276679        -7.5288 
  64   2.0000      -0.262564        -7.1447 
  65   2.0000      -0.258789        -7.0420 
  66   0.0000      -0.017882        -0.4866 
  67   0.0000       0.025225         0.6864 
  68   0.0000       0.041438         1.1276 
  69   0.0000       0.051538         1.4024 
  70   0.0000       0.054602         1.4858 
  71   0.0000       0.060155         1.6369 
  72   0.0000       0.061975         1.6864 
  73   0.0000       0.067235         1.8295 
  74   0.0000       0.079258         2.1567 
  75   0.0000       0.089145         2.4258 
  76   0.0000       0.104360         2.8398 
  77   0.0000       0.126978         3.4552 
  78   0.0000       0.134202         3.6518 
  79   0.0000       0.152980         4.1628 
  80   0.0000       0.164584         4.4786 
  81   0.0000       0.180446         4.9102 
  82   0.0000       0.185454         5.0464 
  83   0.0000       0.191849         5.2205 
  84   0.0000       0.198545         5.4027 
  85   0.0000       0.205648         5.5960 
  86   0.0000       0.222471         6.0537 
  87   0.0000       0.228607         6.2207 
  88   0.0000       0.231202         6.2913 
  89   0.0000       0.235529         6.4091 
  90   0.0000       0.237472         6.4620 
  91   0.0000       0.243806         6.6343 
  92   0.0000       0.248817         6.7707 
  93   0.0000       0.253269         6.8918 
  94   0.0000       0.259102         7.0505 
  95   0.0000       0.264515         7.1978 
  96   0.0000       0.266897         7.2626 
  97   0.0000       0.272902         7.4260 
  98   0.0000       0.275682         7.5017 
  99   0.0000       0.297032         8.0826 
 100   0.0000       0.313493         8.5306 
 101   0.0000       0.322251         8.7689 
 102   0.0000       0.338917         9.2224 
 103   0.0000       0.347046         9.4436 
 104   0.0000       0.350983         9.5507 
 105   0.0000       0.357259         9.7215 
 106   0.0000       0.375182        10.2092 
 107   0.0000       0.377103        10.2615 
 108   0.0000       0.450082        12.2473 
 109   0.0000       0.458636        12.4801 
 110   0.0000       0.470841        12.8122 
 111   0.0000       0.475914        12.9503 
 112   0.0000       0.515609        14.0304 
 113   0.0000       0.525126        14.2894 
 114   0.0000       0.535785        14.5795 
 115   0.0000       0.547935        14.9101 
 116   0.0000       0.556791        15.1510 
 117   0.0000       0.570183        15.5155 
 118   0.0000       0.577925        15.7261 
 119   0.0000       0.596311        16.2264 
 120   0.0000       0.621569        16.9138 
 121   0.0000       0.637944        17.3593 
 122   0.0000       0.642756        17.4903 
 123   0.0000       0.655212        17.8292 
 124   0.0000       0.656618        17.8675 
 125   0.0000       0.660274        17.9670 
 126   0.0000       0.676921        18.4200 
 127   0.0000       0.684635        18.6299 
 128   0.0000       0.693801        18.8793 
 129   0.0000       0.713579        19.4175 
 130   0.0000       0.721696        19.6383 
 131   0.0000       0.727526        19.7970 
 132   0.0000       0.746095        20.3023 
 133   0.0000       0.750410        20.4197 
 134   0.0000       0.762394        20.7458 
 135   0.0000       0.769551        20.9405 
 136   0.0000       0.789950        21.4956 
 137   0.0000       0.800192        21.7743 
 138   0.0000       0.815686        22.1959 
 139   0.0000       0.832995        22.6670 
 140   0.0000       0.848268        23.0826 
 141   0.0000       0.855659        23.2837 
 142   0.0000       0.870106        23.6768 
 143   0.0000       0.885802        24.1039 
 144   0.0000       0.889458        24.2034 
 145   0.0000       0.903702        24.5910 
 146   0.0000       0.911204        24.7951 
 147   0.0000       0.926412        25.2090 
 148   0.0000       0.935676        25.4611 
 149   0.0000       0.945681        25.7333 
 150   0.0000       0.955244        25.9935 
 151   0.0000       0.982246        26.7283 
 152   0.0000       1.000427        27.2230 
 153   0.0000       1.007249        27.4086 
 154   0.0000       1.013240        27.5717 
 155   0.0000       1.021031        27.7837 
 156   0.0000       1.026036        27.9198 
 157   0.0000       1.037736        28.2382 
 158   0.0000       1.042267        28.3615 
 159   0.0000       1.051513        28.6131 
 160   0.0000       1.061542        28.8860 
 161   0.0000       1.074945        29.2507 
 162   0.0000       1.080673        29.4066 
 163   0.0000       1.086778        29.5727 
 164   0.0000       1.098340        29.8873 
 165   0.0000       1.103420        30.0256 
 166   0.0000       1.109229        30.1836 
 167   0.0000       1.119871        30.4732 
 168   0.0000       1.127059        30.6688 
 169   0.0000       1.165122        31.7046 
 170   0.0000       1.186335        32.2818 
 171   0.0000       1.192211        32.4417 
 172   0.0000       1.199451        32.6387 
 173   0.0000       1.209954        32.9245 
 174   0.0000       1.222967        33.2786 
 175   0.0000       1.244394        33.8617 
 176   0.0000       1.286370        35.0039 
 177   0.0000       1.302239        35.4357 
 178   0.0000       1.355174        36.8762 
 179   0.0000       1.389597        37.8129 
 180   0.0000       1.405169        38.2366 
 181   0.0000       1.409804        38.3627 
 182   0.0000       1.421833        38.6901 
 183   0.0000       1.433338        39.0031 
 184   0.0000       1.443202        39.2715 
 185   0.0000       1.450641        39.4740 
 186   0.0000       1.462137        39.7868 
 187   0.0000       1.472047        40.0564 
 188   0.0000       1.492666        40.6175 
 189   0.0000       1.502329        40.8804 
 190   0.0000       1.506916        41.0053 
 191   0.0000       1.622174        44.1416 
 192   0.0000       1.631773        44.4028 
 193   0.0000       1.662022        45.2259 
 194   0.0000       1.668960        45.4147 
 195   0.0000       1.696083        46.1528 
 196   0.0000       1.702960        46.3399 
 197   0.0000       1.749522        47.6069 
 198   0.0000       1.758230        47.8439 
 199   0.0000       1.780815        48.4584 
 200   0.0000       1.786176        48.6043 
 201   0.0000       1.801227        49.0139 
 202   0.0000       1.827178        49.7200 
 203   0.0000       1.898775        51.6683 
 204   0.0000       1.929605        52.5072 
 205   0.0000       1.940018        52.7906 
 206   0.0000       1.944265        52.9061 
 207   0.0000       1.981231        53.9120 
 208   0.0000       2.033124        55.3241 
 209   0.0000       2.042955        55.5916 
 210   0.0000       2.048679        55.7474 
 211   0.0000       2.068776        56.2942 
 212   0.0000       2.087919        56.8152 
 213   0.0000       2.093518        56.9675 
 214   0.0000       2.104040        57.2538 
 215   0.0000       2.120135        57.6918 
 216   0.0000       2.123832        57.7924 
 217   0.0000       2.247574        61.1596 
 218   0.0000       2.252177        61.2849 
 219   0.0000       2.259417        61.4819 
 220   0.0000       2.262668        61.5703 
 221   0.0000       2.266542        61.6757 
 222   0.0000       2.312176        62.9175 
 223   0.0000       2.320211        63.1361 
 224   0.0000       2.332261        63.4641 
 225   0.0000       2.346632        63.8551 
 226   0.0000       2.354942        64.0812 
 227   0.0000       2.369612        64.4804 
 228   0.0000       2.375598        64.6433 
 229   0.0000       2.380192        64.7683 
 230   0.0000       2.386293        64.9343 
 231   0.0000       2.393957        65.1429 
 232   0.0000       2.396718        65.2180 
 233   0.0000       2.414893        65.7126 
 234   0.0000       2.423450        65.9454 
 235   0.0000       2.568324        69.8877 
 236   0.0000       2.572913        70.0125 
 237   0.0000       2.606910        70.9376 
 238   0.0000       2.613288        71.1112 
 239   0.0000       2.617839        71.2350 
 240   0.0000       2.628107        71.5144 
 241   0.0000       2.666480        72.5586 
 242   0.0000       2.670143        72.6583 
 243   0.0000       2.684249        73.0421 
 244   0.0000       2.691196        73.2312 
 245   0.0000       2.693324        73.2891 
 246   0.0000       2.708140        73.6922 
 247   0.0000       2.710393        73.7535 
 248   0.0000       2.718452        73.9728 
 249   0.0000       2.730500        74.3007 
 250   0.0000       2.755056        74.9689 
 251   0.0000       2.765553        75.2545 
 252   0.0000       2.790622        75.9367 
 253   0.0000       2.819864        76.7324 
 254   0.0000       3.000361        81.6440 
 255   0.0000       3.005407        81.7813 
 256   0.0000       3.049471        82.9803 
 257   0.0000       3.056960        83.1841 
 258   0.0000       3.060787        83.2882 
 259   0.0000       3.066587        83.4461 
 260   0.0000       3.419675        93.0541 
 261   0.0000       3.507905        95.4550 
 262   0.0000       3.515486        95.6612 
 263   0.0000       3.572084        97.2014 
 264   0.0000       3.684686       100.2654 
 265   0.0000       3.843041       104.5745 
 266   0.0000       3.880605       105.5966 
 267   0.0000       3.886338       105.7526 
 268   0.0000       3.921359       106.7056 
 269   0.0000       3.924888       106.8016 
 270   0.0000       3.962101       107.8142 
 271   0.0000       3.980616       108.3181 
 272   0.0000      10.910220       296.8822 
 273   0.0000      13.532434       368.2362 
 274   0.0000      13.590143       369.8066 
 275   0.0000      13.623615       370.7174 
 276   0.0000      13.644819       371.2944 
 277   0.0000      13.676097       372.1455 
 278   0.0000      13.724896       373.4734 
 279   0.0000      13.833216       376.4210 
 280   0.0000      14.001612       381.0032 
 281   0.0000      14.031125       381.8063 
 282   0.0000      14.060273       382.5995 
 283   0.0000      14.126113       384.3911 
 284   0.0000      14.283200       388.6656 
 285   0.0000      14.290205       388.8563 
 286   0.0000      14.295336       388.9959 
 287   0.0000      14.338409       390.1679 
 288   0.0000      85.380801      2323.3297 
 289   0.0000      88.259951      2401.6754 
 290   0.0000      88.442583      2406.6450 
 291   0.0000      88.630241      2411.7515 
 292   0.0000      94.726144      2577.6294 
 293   0.0000     357.402913      9725.4277 
 294   0.0000     780.429380     21236.5631 

                    ********************************
                    * MULLIKEN POPULATION ANALYSIS *
                    ********************************

-----------------------
MULLIKEN ATOMIC CHARGES
-----------------------
   0 Lu:    0.697914
   1 C :   -0.274057
   2 C :   -0.310837
   3 C :   -0.249387
   4 C :   -0.317544
   5 C :   -0.265669
   6 H :    0.235224
   7 H :    0.247220
   8 H :    0.237302
   9 H :    0.233531
  10 H :    0.228666
  11 C :   -0.312814
  12 C :   -0.250287
  13 C :   -0.306290
  14 C :   -0.259254
  15 H :    0.237661
  16 C :   -0.275069
  17 H :    0.246769
  18 H :    0.227450
  19 H :    0.231055
  20 H :    0.235755
  21 C :   -0.941936
  22 H :    0.253987
  23 H :    0.253325
  24 H :    0.266680
  25 C :   -1.014678
  26 H :    0.271548
  27 H :    0.221364
  28 H :    0.227695
  29 H :    0.224673
Sum of atomic charges:    0.0000000

--------------------------------
MULLIKEN REDUCED ORBITAL CHARGES
--------------------------------
  0 Lus       :     4.354069  s :     4.354069
      pz      :     4.175597  p :    12.604627
      px      :     4.234047
      py      :     4.194983
      dz2     :     2.339836  d :    11.302911
      dxz     :     2.254538
      dyz     :     2.178213
      dx2y2   :     2.217316
      dxy     :     2.313008
      f0      :     2.008389  f :    14.038448
      f+1     :     2.005209
      f-1     :     2.004269
      f+2     :     2.007394
      f-2     :     2.004919
      f+3     :     2.003033
      f-3     :     2.005234
      g0      :     0.000248  g :     0.002031
      g+1     :     0.000316
      g-1     :     0.000261
      g+2     :     0.000295
      g-2     :     0.000165
      g+3     :     0.000255
      g-3     :     0.000214
      g+4     :     0.000121
      g-4     :     0.000156
  1 C s       :     3.272774  s :     3.272774
      pz      :     1.026323  p :     2.959041
      px      :     1.017191
      py      :     0.915527
      dz2     :     0.005304  d :     0.042243
      dxz     :     0.008863
      dyz     :     0.008974
      dx2y2   :     0.010010
      dxy     :     0.009092
  2 C s       :     3.278661  s :     3.278661
      pz      :     1.006135  p :     2.991190
      px      :     0.950859
      py      :     1.034196
      dz2     :     0.007261  d :     0.040985
      dxz     :     0.006181
      dyz     :     0.008735
      dx2y2   :     0.010214
      dxy     :     0.008595
  3 C s       :     3.262448  s :     3.262448
      pz      :     0.988369  p :     2.945519
      px      :     1.017172
      py      :     0.939979
      dz2     :     0.007636  d :     0.041419
      dxz     :     0.006996
      dyz     :     0.006666
      dx2y2   :     0.009286
      dxy     :     0.010835
  4 C s       :     3.284369  s :     3.284369
      pz      :     1.034730  p :     2.992014
      px      :     0.978297
      py      :     0.978987
      dz2     :     0.004417  d :     0.041161
      dxz     :     0.007468
      dyz     :     0.009818
      dx2y2   :     0.010367
      dxy     :     0.009091
  5 C s       :     3.277981  s :     3.277981
      pz      :     0.958620  p :     2.946123
      px      :     0.974205
      py      :     1.013298
      dz2     :     0.009242  d :     0.041565
      dxz     :     0.005490
      dyz     :     0.006975
      dx2y2   :     0.008490
      dxy     :     0.011366
  6 H s       :     0.764776  s :     0.764776
  7 H s       :     0.752780  s :     0.752780
  8 H s       :     0.762698  s :     0.762698
  9 H s       :     0.766469  s :     0.766469
 10 H s       :     0.771334  s :     0.771334
 11 C s       :     3.284786  s :     3.284786
      pz      :     1.029809  p :     2.986547
      px      :     0.920723
      py      :     1.036014
      dz2     :     0.005549  d :     0.041481
      dxz     :     0.008453
      dyz     :     0.006994
      dx2y2   :     0.009506
      dxy     :     0.010979
 12 C s       :     3.274296  s :     3.274296
      pz      :     1.012021  p :     2.934095
      px      :     0.988839
      py      :     0.933235
      dz2     :     0.005743  d :     0.041896
      dxz     :     0.007737
      dyz     :     0.006963
      dx2y2   :     0.011316
      dxy     :     0.010136
 13 C s       :     3.276180  s :     3.276180
      pz      :     1.047233  p :     2.989158
      px      :     0.925720
      py      :     1.016204
      dz2     :     0.003394  d :     0.040952
      dxz     :     0.008832
      dyz     :     0.007517
      dx2y2   :     0.010475
      dxy     :     0.010734
 14 C s       :     3.263975  s :     3.263975
      pz      :     0.991618  p :     2.953638
      px      :     1.031326
      py      :     0.930695
      dz2     :     0.007870  d :     0.041641
      dxz     :     0.006250
      dyz     :     0.005491
      dx2y2   :     0.012195
      dxy     :     0.009835
 15 H s       :     0.762339  s :     0.762339
 16 C s       :     3.271942  s :     3.271942
      pz      :     0.992000  p :     2.960485
      px      :     0.971505
      py      :     0.996980
      dz2     :     0.008042  d :     0.042643
      dxz     :     0.006770
      dyz     :     0.005885
      dx2y2   :     0.009800
      dxy     :     0.012145
 17 H s       :     0.753231  s :     0.753231
 18 H s       :     0.772550  s :     0.772550
 19 H s       :     0.768945  s :     0.768945
 20 H s       :     0.764245  s :     0.764245
 21 C s       :     3.502253  s :     3.502253
      pz      :     1.131742  p :     3.412889
      px      :     1.169414
      py      :     1.111733
      dz2     :     0.011913  d :     0.026793
      dxz     :     0.000774
      dyz     :     0.001932
      dx2y2   :     0.008956
      dxy     :     0.003218
 22 H s       :     0.746013  s :     0.746013
 23 H s       :     0.746675  s :     0.746675
 24 H s       :     0.733320  s :     0.733320
 25 C s       :     3.485850  s :     3.485850
      pz      :     1.162729  p :     3.502219
      px      :     1.110755
      py      :     1.228734
      dz2     :     0.003158  d :     0.026608
      dxz     :     0.008921
      dyz     :     0.005130
      dx2y2   :     0.001120
      dxy     :     0.008279
 26 H s       :     0.728452  s :     0.728452
 27 H s       :     0.778636  s :     0.778636
 28 H s       :     0.772305  s :     0.772305
 29 H s       :     0.775327  s :     0.775327


                     *******************************
                     * LOEWDIN POPULATION ANALYSIS *
                     *******************************

----------------------
LOEWDIN ATOMIC CHARGES
----------------------
   0 Lu:   -0.128368
   1 C :   -0.142115
   2 C :   -0.155010
   3 C :   -0.126289
   4 C :   -0.148531
   5 C :   -0.136533
   6 H :    0.153516
   7 H :    0.159170
   8 H :    0.153570
   9 H :    0.151624
  10 H :    0.149937
  11 C :   -0.146506
  12 C :   -0.132875
  13 C :   -0.153677
  14 C :   -0.127509
  15 H :    0.154074
  16 C :   -0.142503
  17 H :    0.159187
  18 H :    0.149516
  19 H :    0.151885
  20 H :    0.152155
  21 C :   -0.500324
  22 H :    0.146271
  23 H :    0.152901
  24 H :    0.151056
  25 C :   -0.621311
  26 H :    0.271264
  27 H :    0.147226
  28 H :    0.130042
  29 H :    0.128160

-------------------------------
LOEWDIN REDUCED ORBITAL CHARGES
-------------------------------
  0 Lus       :     4.317042  s :     4.317042
      pz      :     4.295702  p :    12.956557
      px      :     4.348867
      py      :     4.311988
      dz2     :     2.445185  d :    11.768485
      dxz     :     2.348695
      dyz     :     2.251069
      dx2y2   :     2.287615
      dxy     :     2.435922
      f0      :     2.018623  f :    14.082154
      f+1     :     2.010547
      f-1     :     2.008405
      f+2     :     2.015909
      f-2     :     2.010038
      f+3     :     2.007350
      f-3     :     2.011283
      g0      :     0.000483  g :     0.004129
      g+1     :     0.000687
      g-1     :     0.000524
      g+2     :     0.000583
      g-2     :     0.000310
      g+3     :     0.000508
      g-3     :     0.000444
      g+4     :     0.000281
      g-4     :     0.000310
  1 C s       :     2.876458  s :     2.876458
      pz      :     1.047368  p :     3.172650
      px      :     1.068280
      py      :     1.057001
      dz2     :     0.011017  d :     0.093007
      dxz     :     0.015980
      dyz     :     0.021045
      dx2y2   :     0.022473
      dxy     :     0.022492
  2 C s       :     2.877743  s :     2.877743
      pz      :     1.048516  p :     3.186969
      px      :     1.057332
      py      :     1.081121
      dz2     :     0.015091  d :     0.090298
      dxz     :     0.015247
      dyz     :     0.017771
      dx2y2   :     0.021028
      dxy     :     0.021161
  3 C s       :     2.878504  s :     2.878504
      pz      :     1.041980  p :     3.157076
      px      :     1.053191
      py      :     1.061905
      dz2     :     0.015738  d :     0.090708
      dxz     :     0.014778
      dyz     :     0.014998
      dx2y2   :     0.021225
      dxy     :     0.023969
  4 C s       :     2.875936  s :     2.875936
      pz      :     1.068315  p :     3.182230
      px      :     1.053034
      py      :     1.060880
      dz2     :     0.008469  d :     0.090365
      dxz     :     0.016323
      dyz     :     0.019685
      dx2y2   :     0.024560
      dxy     :     0.021329
  5 C s       :     2.877654  s :     2.877654
      pz      :     1.039259  p :     3.167670
      px      :     1.059695
      py      :     1.068716
      dz2     :     0.018489  d :     0.091209
      dxz     :     0.013176
      dyz     :     0.016890
      dx2y2   :     0.020008
      dxy     :     0.022646
  6 H s       :     0.846484  s :     0.846484
  7 H s       :     0.840830  s :     0.840830
  8 H s       :     0.846430  s :     0.846430
  9 H s       :     0.848376  s :     0.848376
 10 H s       :     0.850063  s :     0.850063
 11 C s       :     2.875348  s :     2.875348
      pz      :     1.043273  p :     3.179933
      px      :     1.058358
      py      :     1.078302
      dz2     :     0.011263  d :     0.091225
      dxz     :     0.019209
      dyz     :     0.012912
      dx2y2   :     0.021032
      dxy     :     0.026810
 12 C s       :     2.876831  s :     2.876831
      pz      :     1.040426  p :     3.163993
      px      :     1.072104
      py      :     1.051462
      dz2     :     0.011273  d :     0.092052
      dxz     :     0.015020
      dyz     :     0.015672
      dx2y2   :     0.026699
      dxy     :     0.023388
 13 C s       :     2.876176  s :     2.876176
      pz      :     1.068551  p :     3.187142
      px      :     1.060337
      py      :     1.058254
      dz2     :     0.005912  d :     0.090359
      dxz     :     0.019806
      dyz     :     0.013878
      dx2y2   :     0.025266
      dxy     :     0.025498
 14 C s       :     2.876645  s :     2.876645
      pz      :     1.034887  p :     3.159549
      px      :     1.075060
      py      :     1.049602
      dz2     :     0.015204  d :     0.091315
      dxz     :     0.013611
      dyz     :     0.012697
      dx2y2   :     0.025704
      dxy     :     0.024098
 15 H s       :     0.845926  s :     0.845926
 16 C s       :     2.875173  s :     2.875173
      pz      :     1.043697  p :     3.173470
      px      :     1.070454
      py      :     1.059318
      dz2     :     0.015821  d :     0.093861
      dxz     :     0.014740
      dyz     :     0.013660
      dx2y2   :     0.024175
      dxy     :     0.025466
 17 H s       :     0.840813  s :     0.840813
 18 H s       :     0.850484  s :     0.850484
 19 H s       :     0.848115  s :     0.848115
 20 H s       :     0.847845  s :     0.847845
 21 C s       :     3.042984  s :     3.042984
      pz      :     1.141533  p :     3.415980
      px      :     1.152618
      py      :     1.121829
      dz2     :     0.018276  d :     0.041360
      dxz     :     0.001353
      dyz     :     0.002995
      dx2y2   :     0.013862
      dxy     :     0.004873
 22 H s       :     0.853729  s :     0.853729
 23 H s       :     0.847099  s :     0.847099
 24 H s       :     0.848944  s :     0.848944
 25 C s       :     3.038239  s :     3.038239
      pz      :     1.177211  p :     3.541540
      px      :     1.129160
      py      :     1.235170
      dz2     :     0.004482  d :     0.041532
      dxz     :     0.014321
      dyz     :     0.008110
      dx2y2   :     0.001541
      dxy     :     0.013078
 26 H s       :     0.728736  s :     0.728736
 27 H s       :     0.852774  s :     0.852774
 28 H s       :     0.869958  s :     0.869958
 29 H s       :     0.871840  s :     0.871840


                      *****************************
                      * MAYER POPULATION ANALYSIS *
                      *****************************

  NA   - Mulliken gross atomic population
  ZA   - Total nuclear charge
  QA   - Mulliken gross atomic charge
  VA   - Mayer's total valence
  BVA  - Mayer's bonded valence
  FA   - Mayer's free valence

  ATOM       NA         ZA         QA         VA         BVA        FA
  0 Lu    42.3021    43.0000     0.6979     3.9236     3.9236    -0.0000
  1 C      6.2741     6.0000    -0.2741     3.7729     3.7729     0.0000
  2 C      6.3108     6.0000    -0.3108     3.7855     3.7855     0.0000
  3 C      6.2494     6.0000    -0.2494     3.7748     3.7748     0.0000
  4 C      6.3175     6.0000    -0.3175     3.7865     3.7865     0.0000
  5 C      6.2657     6.0000    -0.2657     3.7724     3.7724     0.0000
  6 H      0.7648     1.0000     0.2352     0.9233     0.9233     0.0000
  7 H      0.7528     1.0000     0.2472     0.9144     0.9144     0.0000
  8 H      0.7627     1.0000     0.2373     0.9183     0.9183     0.0000
  9 H      0.7665     1.0000     0.2335     0.9218     0.9218     0.0000
 10 H      0.7713     1.0000     0.2287     0.9258     0.9258     0.0000
 11 C      6.3128     6.0000    -0.3128     3.7898     3.7898    -0.0000
 12 C      6.2503     6.0000    -0.2503     3.7707     3.7707    -0.0000
 13 C      6.3063     6.0000    -0.3063     3.7809     3.7809    -0.0000
 14 C      6.2593     6.0000    -0.2593     3.7776     3.7776    -0.0000
 15 H      0.7623     1.0000     0.2377     0.9203     0.9203    -0.0000
 16 C      6.2751     6.0000    -0.2751     3.7717     3.7717     0.0000
 17 H      0.7532     1.0000     0.2468     0.9144     0.9144    -0.0000
 18 H      0.7725     1.0000     0.2275     0.9269     0.9269     0.0000
 19 H      0.7689     1.0000     0.2311     0.9250     0.9250    -0.0000
 20 H      0.7642     1.0000     0.2358     0.9184     0.9184    -0.0000
 21 C      6.9419     6.0000    -0.9419     3.6571     3.6571    -0.0000
 22 H      0.7460     1.0000     0.2540     0.8928     0.8928     0.0000
 23 H      0.7467     1.0000     0.2533     0.8922     0.8922     0.0000
 24 H      0.7333     1.0000     0.2667     0.8949     0.8949     0.0000
 25 C      7.0147     6.0000    -1.0147     3.6091     3.6091     0.0000
 26 H      0.7285     1.0000     0.2715     0.9231     0.9231     0.0000
 27 H      0.7786     1.0000     0.2214     0.8977     0.8977     0.0000
 28 H      0.7723     1.0000     0.2277     0.9100     0.9100     0.0000
 29 H      0.7753     1.0000     0.2247     0.9060     0.9060     0.0000

  Mayer bond orders larger than 0.100000
B(  0-Lu,  1-C ) :   0.2578 B(  0-Lu,  2-C ) :   0.2698 B(  0-Lu,  3-C ) :   0.2455 
B(  0-Lu,  4-C ) :   0.2791 B(  0-Lu,  5-C ) :   0.2467 B(  0-Lu, 11-C ) :   0.2789 
B(  0-Lu, 12-C ) :   0.2423 B(  0-Lu, 13-C ) :   0.2747 B(  0-Lu, 14-C ) :   0.2581 
B(  0-Lu, 16-C ) :   0.2644 B(  0-Lu, 21-C ) :   0.2865 B(  0-Lu, 25-C ) :   0.6871 
B(  0-Lu, 26-H ) :   0.2085 B(  1-C ,  2-C ) :   1.2725 B(  1-C ,  5-C ) :   1.3082 
B(  1-C ,  8-H ) :   0.9161 B(  2-C ,  3-C ) :   1.3001 B(  2-C ,  9-H ) :   0.9211 
B(  3-C ,  4-C ) :   1.2963 B(  3-C , 10-H ) :   0.9252 B(  4-C ,  5-C ) :   1.2732 
B(  4-C ,  6-H ) :   0.9232 B(  5-C ,  7-H ) :   0.9130 B( 11-C , 12-C ) :   1.2771 
B( 11-C , 14-C ) :   1.2979 B( 11-C , 15-H ) :   0.9202 B( 12-C , 16-C ) :   1.3094 
B( 12-C , 17-H ) :   0.9099 B( 13-C , 14-C ) :   1.2885 B( 13-C , 16-C ) :   1.2714 
B( 13-C , 19-H ) :   0.9242 B( 14-C , 18-H ) :   0.9269 B( 16-C , 20-H ) :   0.9153 
B( 21-C , 22-H ) :   0.8987 B( 21-C , 23-H ) :   0.8878 B( 21-C , 24-H ) :   0.9002 
B( 21-C , 26-H ) :   0.5857 B( 25-C , 26-H ) :   0.1210 B( 25-C , 27-H ) :   0.8754 
B( 25-C , 28-H ) :   0.9148 B( 25-C , 29-H ) :   0.9098 


------------------
HIRSHFELD ANALYSIS
------------------

Total integrated alpha density =     66.000786468
Total integrated beta density  =     66.000786468

  ATOM     CHARGE      SPIN    
   0 Lu   0.421447    0.000000
   1 C   -0.071463    0.000000
   2 C   -0.077882    0.000000
   3 C   -0.065711    0.000000
   4 C   -0.074659    0.000000
   5 C   -0.068123    0.000000
   6 H    0.049916    0.000000
   7 H    0.054599    0.000000
   8 H    0.049818    0.000000
   9 H    0.047977    0.000000
  10 H    0.049779    0.000000
  11 C   -0.072609    0.000000
  12 C   -0.067177    0.000000
  13 C   -0.078538    0.000000
  14 C   -0.066307    0.000000
  15 H    0.050906    0.000000
  16 C   -0.073323    0.000000
  17 H    0.054168    0.000000
  18 H    0.049512    0.000000
  19 H    0.048428    0.000000
  20 H    0.047799    0.000000
  21 C   -0.110414    0.000000
  22 H    0.032645    0.000000
  23 H    0.036011    0.000000
  24 H    0.040733    0.000000
  25 C   -0.262177    0.000000
  26 H    0.037745    0.000000
  27 H    0.004698    0.000000
  28 H    0.006917    0.000000
  29 H    0.003714    0.000000

  TOTAL  -0.001573    0.000000

-------
TIMINGS
-------

Total SCF time: 0 days 0 hours 9 min 0 sec 

Total time                  ....     540.626 sec
Sum of individual times     ....     538.612 sec  ( 99.6%)

Fock matrix formation       ....     533.431 sec  ( 98.7%)
  Split-RI-J                ....      76.410 sec  ( 14.3% of F)
  Chain of spheres X        ....     416.950 sec  ( 78.2% of F)
  XC integration            ....      39.911 sec  (  7.5% of F)
    Basis function eval.    ....      13.019 sec  ( 32.6% of XC)
    Density eval.           ....       9.667 sec  ( 24.2% of XC)
    XC-Functional eval.     ....       2.016 sec  (  5.1% of XC)
    XC-Potential eval.      ....      12.876 sec  ( 32.3% of XC)
Diagonalization             ....       0.303 sec  (  0.1%)
Density matrix formation    ....       0.054 sec  (  0.0%)
Population analysis         ....       0.850 sec  (  0.2%)
Initial guess               ....       0.018 sec  (  0.0%)
Orbital Transformation      ....       0.127 sec  (  0.0%)
Orbital Orthonormalization  ....       0.000 sec  (  0.0%)
DIIS solution               ....       0.100 sec  (  0.0%)
Grid generation             ....       3.727 sec  (  0.7%)

Maximum memory used throughout the entire SCF-calculation: 208.9 MB


-------------------------------------------------------------------------------
                          DFT DISPERSION CORRECTION                            
                                                                               
                              DFTD3 V3.1  Rev 1                                
                          USING Becke-Johnson damping                          
-------------------------------------------------------------------------------
The PBEh-3c composite method is recognized
Using three-body term ABC
Active option DFTDOPT                   ...         4   

molecular C6(AA) [au] = 10160.253664 


            DFT-D V3
 parameters
 s6 scaling factor         :     1.0000 
 a1 scaling factor         :     0.4860 
 s8 scaling factor         :     0.0000 
 a2 scaling factor         :     4.5000 
 Damping factor alpha9(ATM):    16.0000 
 ad hoc parameters k1-k3   :    16.0000     1.3333    -4.0000 

 Edisp/kcal,au: -11.068385624365  -0.017638593362 
 E6   /kcal   : -11.257935038 
 E8   /kcal   :  -0.000000000 
 E6(ABC)      :   0.189549414 
 % E8         :   0.000000000 
 % E6(ABC)    :  -1.712529904 

-------------------------   ----------------
Dispersion correction           -0.017638593
-------------------------   ----------------

 ** NOTE ** -> element lu will be treated as sc
NOTIFICATION: Different basis set in ORCA and otool_gcp:
ORCA: 295  gCP: 245 
If you are NOT using ECPs, check your basis set inputs!
------------------   -----------------
gCP correction             0.039034461
------------------   -----------------

-------------------------   --------------------
FINAL SINGLE POINT ENERGY     -1702.317175745982
-------------------------   --------------------

------------------------------------------------------------------------------
                         ORCA SCF GRADIENT CALCULATION
------------------------------------------------------------------------------

 ... reading COSX grid (gridx3)
Gradient of the Kohn-Sham DFT energy:
Kohn-Sham wavefunction type      ... RKS
Hartree-Fock exchange scaling    ...    0.420
Number of operators              ...    1
Number of atoms                  ...   30
Basis set dimensions             ...  295
Integral neglect threshold       ... 2.5e-11
Integral primitive cutoff        ... 2.5e-12
SHARK Integral package           ... ON

Nuc. rep. gradient       (SHARK) ... done (  0.0 sec)
HCore & Overlap gradient (SHARK) ... done (  1.2 sec)
ECP gradient             (SHARK) ... done (  2.7 sec)
RI-J gradient            (SHARK) ... done ( 10.3 sec)
COSX-gradient                    ... done ( 47.5 sec)
Exchange-correlation gradient    ... done
Dispersion correction            ... done
gCP correction                   ... done

------------------
CARTESIAN GRADIENT
------------------

   1   Lu  :   -0.024440277   -0.009369937    0.009613038
   2   C   :    0.001483854    0.001161962    0.006516919
   3   C   :   -0.006071749   -0.015501066    0.015108447
   4   C   :    0.020505806   -0.006951147   -0.014248383
   5   C   :    0.009409718    0.010703753   -0.013608449
   6   C   :   -0.008930020    0.012352046    0.006405551
   7   H   :   -0.000888764   -0.003964351    0.007467787
   8   H   :    0.001936660   -0.002354330    0.000027353
   9   H   :    0.001799658   -0.000072060   -0.000038034
  10   H   :    0.001527331    0.006247560   -0.001896536
  11   H   :   -0.003497241    0.004743575    0.006356729
  12   C   :    0.004958723    0.013544272   -0.006742300
  13   C   :   -0.010477632   -0.004531089   -0.008243068
  14   C   :   -0.002426308   -0.019052103    0.010447631
  15   C   :    0.021341862    0.010454080    0.003585485
  16   H   :   -0.000271092   -0.006410417    0.000955010
  17   C   :    0.001621790   -0.001195819   -0.004662962
  18   H   :    0.001805611    0.000664519    0.001185379
  19   H   :   -0.007140801   -0.004683628   -0.005641064
  20   H   :    0.000224570    0.002486307   -0.005580925
  21   H   :    0.000810957   -0.000354818    0.000897122
  22   C   :   -0.001362055   -0.030957964    0.003590917
  23   H   :   -0.004652407   -0.017857726    0.012847976
  24   H   :   -0.004353506   -0.009851324    0.017004073
  25   H   :   -0.007990891   -0.002222075    0.005816762
  26   C   :   -0.006838374    0.004316446   -0.000700001
  27   H   :    0.032042333    0.046907730   -0.034638035
  28   H   :   -0.010365230   -0.000593644    0.002041785
  29   H   :   -0.001739225    0.010177325   -0.010360529
  30   H   :   -0.000556926    0.009670134   -0.002433904

Difference to translation invariance:
           :   -0.0025336233   -0.0024937899    0.0010737714

Difference to rotation invariance:
           :   -0.0002821253    0.0033130570    0.0013274606

Norm of the cartesian gradient     ...    0.1072210839
RMS gradient                       ...    0.0113020946
MAX gradient                       ...    0.0469077302

-------
TIMINGS
-------

Total SCF gradient time            ...       70.855 sec

One electron gradient       ....       3.902 sec  (  5.5%)
RI-J Coulomb gradient       ....      10.273 sec  ( 14.5%)
COSX gradient               ....      47.507 sec  ( 67.0%)
XC gradient                 ....       7.765 sec  ( 11.0%)

Maximum memory used throughout the entire SCFGRAD-calculation: 207.0 MB

                            ***************************************
                            *     ORCA property calculations      *
                            ***************************************

                                    ---------------------
                                    Active property flags
                                    ---------------------
   (+) Dipole Moment


------------------------------------------------------------------------------
                       ORCA ELECTRIC PROPERTIES CALCULATION
------------------------------------------------------------------------------

Dipole Moment Calculation                       ... on
Quadrupole Moment Calculation                   ... off
Polarizability Calculation                      ... off
GBWName                                         ... 3_9_orca.gbw
Electron density                                ... 3_9_orca.scfp
The origin for moment calculation is the CENTER OF MASS  = ( 0.312470,  0.059896 -0.034577)

-------------
DIPOLE MOMENT
-------------
                                X             Y             Z
Electronic contribution:     -8.95808       4.58708       0.87217
Nuclear contribution   :      9.08147      -5.15124      -0.52547
                        -----------------------------------------
Total Dipole Moment    :      0.12339      -0.56415       0.34670
                        -----------------------------------------
Magnitude (a.u.)       :      0.67357
Magnitude (Debye)      :      1.71208



--------------------
Rotational spectrum 
--------------------
 
Rotational constants in cm-1:     0.029030     0.020302     0.017261 
Rotational constants in MHz :   870.300131   608.641453   517.480436 

 Dipole components along the rotational axes: 
x,y,z [a.u.] :     0.050593    -0.107518     0.663005 
x,y,z [Debye]:     0.128597    -0.273288     1.685226 

 

Timings for individual modules:

Sum of individual times         ...      612.940 sec (=  10.216 min)
GTO integral calculation        ...        1.387 sec (=   0.023 min)   0.2 %
SCF iterations                  ...      540.663 sec (=   9.011 min)  88.2 %
SCF Gradient evaluation         ...       70.890 sec (=   1.182 min)  11.6 %
                             ****ORCA TERMINATED NORMALLY****
TOTAL RUN TIME: 0 days 0 hours 10 minutes 13 seconds 516 msec
