
                                 *****************
                                 * O   R   C   A *
                                 *****************

                                            #,                                       
                                            ###                                      
                                            ####                                     
                                            #####                                    
                                            ######                                   
                                           ########,                                 
                                     ,,################,,,,,                         
                               ,,#################################,,                 
                          ,,##########################################,,             
                       ,#########################################, ''#####,          
                    ,#############################################,,   '####,        
                  ,##################################################,,,,####,       
                ,###########''''           ''''###############################       
              ,#####''   ,,,,##########,,,,          '''####'''          '####       
            ,##' ,,,,###########################,,,                        '##       
           ' ,,###''''                  '''############,,,                           
         ,,##''                                '''############,,,,        ,,,,,,###''
      ,#''                                            '''#######################'''  
     '                                                          ''''####''''         
             ,#######,   #######,   ,#######,      ##                                
            ,#'     '#,  ##    ##  ,#'     '#,    #''#        ######   ,####,        
            ##       ##  ##   ,#'  ##            #'  '#       #        #'  '#        
            ##       ##  #######   ##           ,######,      #####,   #    #        
            '#,     ,#'  ##    ##  '#,     ,#' ,#      #,         ##   #,  ,#        
             '#######'   ##     ##  '#######'  #'      '#     #####' # '####'        



                  #######################################################
                  #                        -***-                        #
                  #          Department of theory and spectroscopy      #
                  #    Directorship and core code : Frank Neese         #
                  #        Max Planck Institute fuer Kohlenforschung    #
                  #                Kaiser Wilhelm Platz 1               #
                  #                 D-45470 Muelheim/Ruhr               #
                  #                      Germany                        #
                  #                                                     #
                  #                  All rights reserved                #
                  #                        -***-                        #
                  #######################################################


                         Program Version 5.0.3 -  RELEASE  -


 With contributions from (in alphabetic order):
   Daniel Aravena         : Magnetic Suceptibility
   Michael Atanasov       : Ab Initio Ligand Field Theory (pilot matlab implementation)
   Alexander A. Auer      : GIAO ZORA, VPT2 properties, NMR spectrum
   Ute Becker             : Parallelization
   Giovanni Bistoni       : ED, misc. LED, open-shell LED, HFLD
   Martin Brehm           : Molecular dynamics
   Dmytro Bykov           : SCF Hessian
   Vijay G. Chilkuri      : MRCI spin determinant printing, contributions to CSF-ICE
   Dipayan Datta          : RHF DLPNO-CCSD density
   Achintya Kumar Dutta   : EOM-CC, STEOM-CC
   Dmitry Ganyushin       : Spin-Orbit,Spin-Spin,Magnetic field MRCI
   Miquel Garcia          : C-PCM and meta-GGA Hessian, CC/C-PCM, Gaussian charge scheme
   Yang Guo               : DLPNO-NEVPT2, F12-NEVPT2, CIM, IAO-localization
   Andreas Hansen         : Spin unrestricted coupled pair/coupled cluster methods
   Benjamin Helmich-Paris : MC-RPA, TRAH-SCF, COSX integrals
   Lee Huntington         : MR-EOM, pCC
   Robert Izsak           : Overlap fitted RIJCOSX, COSX-SCS-MP3, EOM
   Marcus Kettner         : VPT2
   Christian Kollmar      : KDIIS, OOCD, Brueckner-CCSD(T), CCSD density, CASPT2, CASPT2-K
   Simone Kossmann        : Meta GGA functionals, TD-DFT gradient, OOMP2, MP2 Hessian
   Martin Krupicka        : Initial AUTO-CI
   Lucas Lang             : DCDCAS
   Marvin Lechner         : AUTO-CI (C++ implementation), FIC-MRCC
   Dagmar Lenk            : GEPOL surface, SMD
   Dimitrios Liakos       : Extrapolation schemes; Compound Job, initial MDCI parallelization
   Dimitrios Manganas     : Further ROCIS development; embedding schemes
   Dimitrios Pantazis     : SARC Basis sets
   Anastasios Papadopoulos: AUTO-CI, single reference methods and gradients
   Taras Petrenko         : DFT Hessian,TD-DFT gradient, ASA, ECA, R-Raman, ABS, FL, XAS/XES, NRVS
   Peter Pinski           : DLPNO-MP2, DLPNO-MP2 Gradient
   Christoph Reimann      : Effective Core Potentials
   Marius Retegan         : Local ZFS, SOC
   Christoph Riplinger    : Optimizer, TS searches, QM/MM, DLPNO-CCSD(T), (RO)-DLPNO pert. Triples
   Tobias Risthaus        : Range-separated hybrids, TD-DFT gradient, RPA, STAB
   Michael Roemelt        : Original ROCIS implementation
   Masaaki Saitow         : Open-shell DLPNO-CCSD energy and density
   Barbara Sandhoefer     : DKH picture change effects
   Avijit Sen             : IP-ROCIS
   Kantharuban Sivalingam : CASSCF convergence, NEVPT2, FIC-MRCI
   Bernardo de Souza      : ESD, SOC TD-DFT
   Georgi Stoychev        : AutoAux, RI-MP2 NMR, DLPNO-MP2 response
   Willem Van den Heuvel  : Paramagnetic NMR
   Boris Wezisla          : Elementary symmetry handling
   Frank Wennmohs         : Technical directorship


 We gratefully acknowledge several colleagues who have allowed us to
 interface, adapt or use parts of their codes:
   Stefan Grimme, W. Hujo, H. Kruse, P. Pracht,  : VdW corrections, initial TS optimization,
                  C. Bannwarth, S. Ehlert          DFT functionals, gCP, sTDA/sTD-DF
   Ed Valeev, F. Pavosevic, A. Kumar             : LibInt (2-el integral package), F12 methods
   Garnet Chan, S. Sharma, J. Yang, R. Olivares  : DMRG
   Ulf Ekstrom                                   : XCFun DFT Library
   Mihaly Kallay                                 : mrcc  (arbitrary order and MRCC methods)
   Jiri Pittner, Ondrej Demel                    : Mk-CCSD
   Frank Weinhold                                : gennbo (NPA and NBO analysis)
   Christopher J. Cramer and Donald G. Truhlar   : smd solvation model
   Lars Goerigk                                  : TD-DFT with DH, B97 family of functionals
   V. Asgeirsson, H. Jonsson                     : NEB implementation
   FAccTs GmbH                                   : IRC, NEB, NEB-TS, DLPNO-Multilevel, CI-OPT
                                                   MM, QMMM, 2- and 3-layer-ONIOM, Crystal-QMMM,
                                                   LR-CPCM, SF, NACMEs, symmetry and pop. for TD-DFT,
                                                   nearIR, NL-DFT gradient (VV10), updates on ESD,
                                                   ML-optimized integration grids
   S Lehtola, MJT Oliveira, MAL Marques          : LibXC Library
   Liviu Ungur et al                             : ANISO software


 Your calculation uses the libint2 library for the computation of 2-el integrals
 For citations please refer to: http://libint.valeyev.net

 Your ORCA version has been built with support for libXC version: 5.1.0
 For citations please refer to: https://tddft.org/programs/libxc/

 This ORCA versions uses:
   CBLAS   interface :  Fast vector & matrix operations
   LAPACKE interface :  Fast linear algebra routines
   SCALAPACK package :  Parallel linear algebra routines
   Shared memory     :  Shared parallel matrices
   BLAS/LAPACK       :  OpenBLAS 0.3.15  USE64BITINT DYNAMIC_ARCH NO_AFFINITY SkylakeX SINGLE_THREADED
        Core in use  :  SkylakeX
   Copyright (c) 2011-2014, The OpenBLAS Project


Your calculation utilizes the geometrical counterpoise correction gCP
Please cite in your paper:
H.Kruse, S. Grimme J.Chem.Phys., 136, (2012), 154101 
   

Your calculation utilizes the atom-pairwise dispersion correction
with the Becke-Johnson damping scheme (D3BJ)
Cite in your paper:
S.Grimme, S.Ehrlich, L.Goerigk, J Comput Chem, (2011), 32, 1456–1465 
S.Grimme, J.Antony, S.Ehrlich and H.Krieg, J.Chem.Phys., 132, (2010), 154104 
   

Your calculation employs the composite approach PBEh-3c.
Please cite in your paper:
S. Grimme, J. G. Brandenburg, C. Bannwarth, A. Hansen J.Chem.Phys., 143, (2015), 054107 
   

================================================================================

cite the ECPs for Pd [Def2-ECP] as follows:
Ce-Yb(ecp-28): M. Dolg, H. Stoll, H.Preuss, J. Chem. Phys., 1989, 90, 1730-1734.
Y-Cd(ecp-28), Hf-Hg(ecp-46): D. Andrae,U. Haeussermann, M. Dolg, H. Stoll, H. Preuss, Theor. Chim. Acta, 1990, 77, 123-141.
In-Sb(ecp-28), Tl-Bi(ecp-46): B. Metz, H. Stoll, M. Dolg, J. Chem. Phys., 2000, 113, 2563-2569.
Te-Xe(ecp-28), Po-Rn(ecp-46): K. A. Peterson, D. Figgen, E. Goll, H. Stoll, M. Dolg, J. Chem. Phys., 2003, 119, 11113-11123.
Rb(ecp-28), Cs(ecp-46): T. Leininger, A. Nicklass, W. Kuechle, H. Stoll, M. Dolg, A. Bergner, Chem. Phys. Lett., 1996, 255, 274-280.
Sr(ecp-28), Ba(ecp-46): M. Kaupp, P. V. Schleyer, H. Stoll and H. Preuss, J. Chem. Phys., 1991, 94, 1360-1366.
La(ecp-46): M. Dolg, H. Stoll, A. Savin, H. Preuss, Theor. Chim. Acta, 1989, 75, 173-194.
Lu(ecp-28): X. Cao, M. Dolg, J. Chem. Phys., 2001, 115, 7348-7355.

ECP parameters for Pd [Def2-ECP] have been obtained from:
TURBOMOLE (7.0.2)

----- Orbital basis set information -----
Your calculation utilizes the basis: def2-mSVP

----- AuxJ basis set information -----
Your calculation utilizes the auxiliary basis: def2/J
   F. Weigend, Phys. Chem. Chem. Phys. 8, 1057 (2006).

================================================================================
                                        WARNINGS
                       Please study these warnings very carefully!
================================================================================


INFO   : the flag for use of the SHARK integral package has been found!

================================================================================
                                       INPUT FILE
================================================================================
NAME = 3_16_orca.inp
|  1> ! EnGrad PBEh-3c
|  2> %output 
|  3> xyzfile=True 
|  4> end 
|  5> %scf 
|  6> maxiter 250 
|  7> end
|  8> %output
|  9> Print[P_Hirshfeld] = 1
| 10> end
| 11> % maxcore
| 12> 4000
| 13> *xyz 0 1
| 14> Pd   0.54203200   0.38418978  -0.47801174 
| 15> O    2.11166974   1.39759490   0.35264657 
| 16> C    1.61690223   2.58088866   0.28243438 
| 17> O    0.43362683   2.71032766  -0.04007168 
| 18> C    2.56996742   3.71426247   0.57536938 
| 19> H    2.08620170   4.57595888   1.02140215 
| 20> H    3.01114636   4.03564640  -0.36030920 
| 21> H    3.39150561   3.38679971   1.20453833 
| 22> N   -1.28726785  -0.51932922  -1.12412908 
| 23> C   -1.22837731  -1.45304767  -2.27233997 
| 24> H   -0.79988768  -0.96076660  -3.14189150 
| 25> H   -2.22641637  -1.84205579  -2.54407675 
| 26> H   -0.60416992  -2.30326475  -2.05080701 
| 27> C   -2.17050984   0.58315668  -1.52268670 
| 28> H   -2.30219449   1.27539534  -0.70769460 
| 29> H   -3.17554350   0.22598505  -1.80281089 
| 30> H   -1.75733635   1.10611291  -2.37603336 
| 31> C   -1.56699597  -0.75876598   1.42333708 
| 32> C   -0.88848552  -1.81345725   2.10168446 
| 33> C   -0.70774668  -1.78992004   3.47808241 
| 34> C   -1.27363025  -0.71488694   4.17238382 
| 35> C   -1.93440455   0.36486534   3.49074353 
| 36> C   -1.87478811   0.43314442   2.11709687 
| 37> H   -1.18275959  -0.77414147   5.26861887 
| 38> H   -2.35449393   1.22000271   4.07847555 
| 39> H   -0.55164545  -2.70468084   1.54152015 
| 40> H   -0.07105415  -2.55524678   3.96466957 
| 41> H   -2.09433085   1.26835955   1.65009575 
| 42> C   -1.95313818  -1.20260697   0.02744025 
| 43> H   -3.04475624  -1.13007025  -0.11284727 
| 44> H   -1.73366323  -2.26751571  -0.09235792 
| 45> O    1.86705453  -0.90988909  -1.18665524 
| 46> C    2.23953999  -0.60251282  -2.39745688 
| 47> O    1.56453375   0.06349216  -3.16827533 
| 48> C    3.59834571  -1.15039442  -2.77634322 
| 49> H    3.56476312  -2.23501494  -2.77640002 
| 50> H    4.35159251  -0.86841936  -2.04825809 
| 51> H    3.87644241  -0.79352710  -3.76988452 
| 52> *
| 53> 
| 54>                          ****END OF INPUT****
================================================================================

                     *******************************
                     * Energy+Gradient Calculation *
                     *******************************

---------------------------------
CARTESIAN COORDINATES (ANGSTROEM)
---------------------------------
  Pd     0.542032    0.384190   -0.478012
  O      2.111670    1.397595    0.352647
  C      1.616902    2.580889    0.282434
  O      0.433627    2.710328   -0.040072
  C      2.569967    3.714262    0.575369
  H      2.086202    4.575959    1.021402
  H      3.011146    4.035646   -0.360309
  H      3.391506    3.386800    1.204538
  N     -1.287268   -0.519329   -1.124129
  C     -1.228377   -1.453048   -2.272340
  H     -0.799888   -0.960767   -3.141891
  H     -2.226416   -1.842056   -2.544077
  H     -0.604170   -2.303265   -2.050807
  C     -2.170510    0.583157   -1.522687
  H     -2.302194    1.275395   -0.707695
  H     -3.175543    0.225985   -1.802811
  H     -1.757336    1.106113   -2.376033
  C     -1.566996   -0.758766    1.423337
  C     -0.888486   -1.813457    2.101684
  C     -0.707747   -1.789920    3.478082
  C     -1.273630   -0.714887    4.172384
  C     -1.934405    0.364865    3.490744
  C     -1.874788    0.433144    2.117097
  H     -1.182760   -0.774141    5.268619
  H     -2.354494    1.220003    4.078476
  H     -0.551645   -2.704681    1.541520
  H     -0.071054   -2.555247    3.964670
  H     -2.094331    1.268360    1.650096
  C     -1.953138   -1.202607    0.027440
  H     -3.044756   -1.130070   -0.112847
  H     -1.733663   -2.267516   -0.092358
  O      1.867055   -0.909889   -1.186655
  C      2.239540   -0.602513   -2.397457
  O      1.564534    0.063492   -3.168275
  C      3.598346   -1.150394   -2.776343
  H      3.564763   -2.235015   -2.776400
  H      4.351593   -0.868419   -2.048258
  H      3.876442   -0.793527   -3.769885

----------------------------
CARTESIAN COORDINATES (A.U.)
----------------------------
  NO LB      ZA    FRAG     MASS         X           Y           Z
   0 Pd   18.0000*   0   106.400    1.024292    0.726013   -0.903311
   1 O     8.0000    0    15.999    3.990477    2.641072    0.666405
   2 C     6.0000    0    12.011    3.055502    4.877173    0.533724
   3 O     8.0000    0    15.999    0.819436    5.121777   -0.075725
   4 C     6.0000    0    12.011    4.856535    7.018939    1.087291
   5 H     1.0000    0     1.008    3.942350    8.647309    1.930170
   6 H     1.0000    0     1.008    5.690242    7.626266   -0.680886
   7 H     1.0000    0     1.008    6.409017    6.400124    2.276248
   8 N     7.0000    0    14.007   -2.432584   -0.981390   -2.124296
   9 C     6.0000    0    12.011   -2.321297   -2.745862   -4.294100
  10 H     1.0000    0     1.008   -1.511569   -1.815586   -5.937314
  11 H     1.0000    0     1.008   -4.207317   -3.480981   -4.807608
  12 H     1.0000    0     1.008   -1.141716   -4.352540   -3.875464
  13 C     6.0000    0    12.011   -4.101669    1.102006   -2.877461
  14 H     1.0000    0     1.008   -4.350517    2.410148   -1.337349
  15 H     1.0000    0     1.008   -6.000908    0.427050   -3.406819
  16 H     1.0000    0     1.008   -3.320884    2.090250   -4.490052
  17 C     6.0000    0    12.011   -2.961193   -1.433860    2.689717
  18 C     6.0000    0    12.011   -1.678994   -3.426938    3.971608
  19 C     6.0000    0    12.011   -1.337447   -3.382459    6.572623
  20 C     6.0000    0    12.011   -2.406812   -1.350941    7.884663
  21 C     6.0000    0    12.011   -3.655495    0.689496    6.596549
  22 C     6.0000    0    12.011   -3.542836    0.818524    4.000733
  23 H     1.0000    0     1.008   -2.235092   -1.462915    9.956247
  24 H     1.0000    0     1.008   -4.449349    2.305471    7.707202
  25 H     1.0000    0     1.008   -1.042459   -5.111106    2.913051
  26 H     1.0000    0     1.008   -0.134273   -4.828717    7.492140
  27 H     1.0000    0     1.008   -3.957712    2.396852    3.118229
  28 C     6.0000    0    12.011   -3.690896   -2.272598    0.051855
  29 H     1.0000    0     1.008   -5.753755   -2.135523   -0.213250
  30 H     1.0000    0     1.008   -3.276149   -4.284984   -0.174531
  31 O     8.0000    0    15.999    3.528222   -1.719441   -2.242453
  32 C     6.0000    0    12.011    4.232117   -1.138584   -4.530537
  33 O     8.0000    0    15.999    2.956540    0.119983   -5.987173
  34 C     6.0000    0    12.011    6.799888   -2.173930   -5.246528
  35 H     1.0000    0     1.008    6.736426   -4.223566   -5.246636
  36 H     1.0000    0     1.008    8.223318   -1.641075   -3.870647
  37 H     1.0000    0     1.008    7.325415   -1.499549   -7.124049
* core charge reduced due to ECP

--------------------------------
INTERNAL COORDINATES (ANGSTROEM)
--------------------------------
 Pd     0   0   0     0.000000000000     0.00000000     0.00000000
 O      1   0   0     2.044687213255     0.00000000     0.00000000
 C      2   1   0     1.284487743434    97.97151661     0.00000000
 O      3   2   1     1.233249887777   118.72206755     9.15589602
 C      3   2   1     1.509529848598   115.96749651   190.68583256
 H      5   3   2     1.084202567221   113.25649377   210.91374721
 H      5   3   2     1.083245536632   108.19631233    91.80611305
 H      5   3   2     1.085361886404   111.33759787   335.25188140
 N      1   2   3     2.140129001163   171.13931775   307.96947520
 C      9   1   2     1.481109883664   117.78868523   178.52762938
 H     10   9   1     1.087227611047   110.50267469   302.88077535
 H     10   9   1     1.105101877800   112.12511874   181.59695696
 H     10   9   1     1.077766580119   111.16145943    61.60276609
 C      9   1   2     1.467800990958   106.21372010    59.11998042
 H     14   9   1     1.077379845972   110.53330003   303.25480915
 H     14   9   1     1.102784563200   111.96919723   184.32736820
 H     14   9   1     1.082772401508   110.31324720    64.40208904
 C      9   1   2     2.573938930803    80.40776482   315.26734462
 C     18   9   1     1.425799871555   119.20703991   280.49672720
 C     19  18   9     1.388413427371   121.40319229   162.66481199
 C     20  19  18     1.399276537651   116.88950528     2.76668229
 C     21  20  19     1.437748638204   121.84334153   355.90609593
 C     22  21  20     1.376634046947   119.36815004   352.08049881
 H     21  20  19     1.101589697221   114.77704338   175.09393079
 H     22  21  20     1.119448049752   119.81751351   181.41598351
 H     19  18   9     1.105226119094   120.02576573   338.65854827
 H     20  19  18     1.108092713176   119.89485272   187.54059226
 H     23  22  21     0.981770530292   120.47422870   196.95001786
 C      9   1   2     1.495447659337   109.93834923   304.25450491
 H     29   9   1     1.102983296761   108.22122869   147.12893212
 H     29   9   1     1.093869955589   105.73186111   258.51880046
 O      1   2   3     1.983053311659    87.45934871   148.67474817
 C     32   1   2     1.303559051481   111.65238887   266.45114363
 O     33  32   1     1.222029926100   123.81818186   335.86334825
 C     33  32   1     1.513301718416   113.81335811   155.98522101
 H     35  33  32     1.085140297834   109.51753717    63.89888330
 H     35  33  32     1.084895678256   111.17977345   306.67805846
 H     35  33  32     1.091703427420   109.76965068   184.20374035

---------------------------
INTERNAL COORDINATES (A.U.)
---------------------------
 Pd     0   0   0     0.000000000000     0.00000000     0.00000000
 O      1   0   0     3.863898862582     0.00000000     0.00000000
 C      2   1   0     2.427330057468    97.97151661     0.00000000
 O      3   2   1     2.330504542588   118.72206755     9.15589602
 C      3   2   1     2.852598004830   115.96749651   190.68583256
 H      5   3   2     2.048845925741   113.25649377   210.91374721
 H      5   3   2     2.047037400027   108.19631233    91.80611305
 H      5   3   2     2.051036721501   111.33759787   335.25188140
 N      1   2   3     4.044257703461   171.13931775   307.96947520
 C      9   1   2     2.798892054368   117.78868523   178.52762938
 H     10   9   1     2.054562430117   110.50267469   302.88077535
 H     10   9   1     2.088339899124   112.12511874   181.59695696
 H     10   9   1     2.036683672717   111.16145943    61.60276609
 C      9   1   2     2.773741892009   106.21372010    59.11998042
 H     14   9   1     2.035952851093   110.53330003   303.25480915
 H     14   9   1     2.083960809165   111.96919723   184.32736820
 H     14   9   1     2.046143304219   110.31324720    64.40208904
 C      9   1   2     4.864039664656    80.40776482   315.26734462
 C     18   9   1     2.694371279019   119.20703991   280.49672720
 C     19  18   9     2.623721138390   121.40319229   162.66481199
 C     20  19  18     2.644249441781   116.88950528     2.76668229
 C     21  20  19     2.716951175623   121.84334153   355.90609593
 C     22  21  20     2.601461335361   119.36815004   352.08049881
 H     21  20  19     2.081702839696   114.77704338   175.09393079
 H     22  21  20     2.115450235183   119.81751351   181.41598351
 H     19  18   9     2.088574681145   120.02576573   338.65854827
 H     20  19  18     2.093991758896   119.89485272   187.54059226
 H     23  22  21     1.855277428606   120.47422870   196.95001786
 C      9   1   2     2.825986523760   109.93834923   304.25450491
 H     29   9   1     2.084336361168   108.22122869   147.12893212
 H     29   9   1     2.067114642189   105.73186111   258.51880046
 O      1   2   3     3.747427668000    87.45934871   148.67474817
 C     32   1   2     2.463369606693   111.65238887   266.45114363
 O     33  32   1     2.309301887785   123.81818186   335.86334825
 C     33  32   1     2.859725805799   113.81335811   155.98522101
 H     35  33  32     2.050617979787   109.51753717    63.89888330
 H     35  33  32     2.050155715779   111.17977345   306.67805846
 H     35  33  32     2.063020497287   109.76965068   184.20374035

---------------------
BASIS SET INFORMATION
---------------------
There are 5 groups of distinct atoms

 Group   1 Type Pd  : 7s6p5d1f contracted to 5s3p2d1f pattern {31111/411/41/1}
 Group   2 Type O   : 8s4p1d contracted to 4s2p1d pattern {5111/31/1}
 Group   3 Type C   : 8s4p1d contracted to 4s2p1d pattern {5111/31/1}
 Group   4 Type H   : 4s contracted to 2s pattern {31}
 Group   5 Type N   : 8s4p1d contracted to 4s2p1d pattern {5111/31/1}

Atom   0Pd   basis set group =>   1
Atom   1O    basis set group =>   2
Atom   2C    basis set group =>   3
Atom   3O    basis set group =>   2
Atom   4C    basis set group =>   3
Atom   5H    basis set group =>   4
Atom   6H    basis set group =>   4
Atom   7H    basis set group =>   4
Atom   8N    basis set group =>   5
Atom   9C    basis set group =>   3
Atom  10H    basis set group =>   4
Atom  11H    basis set group =>   4
Atom  12H    basis set group =>   4
Atom  13C    basis set group =>   3
Atom  14H    basis set group =>   4
Atom  15H    basis set group =>   4
Atom  16H    basis set group =>   4
Atom  17C    basis set group =>   3
Atom  18C    basis set group =>   3
Atom  19C    basis set group =>   3
Atom  20C    basis set group =>   3
Atom  21C    basis set group =>   3
Atom  22C    basis set group =>   3
Atom  23H    basis set group =>   4
Atom  24H    basis set group =>   4
Atom  25H    basis set group =>   4
Atom  26H    basis set group =>   4
Atom  27H    basis set group =>   4
Atom  28C    basis set group =>   3
Atom  29H    basis set group =>   4
Atom  30H    basis set group =>   4
Atom  31O    basis set group =>   2
Atom  32C    basis set group =>   3
Atom  33O    basis set group =>   2
Atom  34C    basis set group =>   3
Atom  35H    basis set group =>   4
Atom  36H    basis set group =>   4
Atom  37H    basis set group =>   4
---------------------------------
AUXILIARY/J BASIS SET INFORMATION
---------------------------------
There are 5 groups of distinct atoms

 Group   1 Type Pd  : 11s5p5d3f3g contracted to 8s5p5d2f3g pattern {41111111/11111/11111/21/111}
 Group   2 Type O   : 12s5p4d2f1g contracted to 6s4p3d1f1g pattern {711111/2111/211/2/1}
 Group   3 Type C   : 12s5p4d2f1g contracted to 6s4p3d1f1g pattern {711111/2111/211/2/1}
 Group   4 Type H   : 5s2p1d contracted to 3s1p1d pattern {311/2/1}
 Group   5 Type N   : 12s5p4d2f1g contracted to 6s4p3d1f1g pattern {711111/2111/211/2/1}

Atom   0Pd   basis set group =>   1
Atom   1O    basis set group =>   2
Atom   2C    basis set group =>   3
Atom   3O    basis set group =>   2
Atom   4C    basis set group =>   3
Atom   5H    basis set group =>   4
Atom   6H    basis set group =>   4
Atom   7H    basis set group =>   4
Atom   8N    basis set group =>   5
Atom   9C    basis set group =>   3
Atom  10H    basis set group =>   4
Atom  11H    basis set group =>   4
Atom  12H    basis set group =>   4
Atom  13C    basis set group =>   3
Atom  14H    basis set group =>   4
Atom  15H    basis set group =>   4
Atom  16H    basis set group =>   4
Atom  17C    basis set group =>   3
Atom  18C    basis set group =>   3
Atom  19C    basis set group =>   3
Atom  20C    basis set group =>   3
Atom  21C    basis set group =>   3
Atom  22C    basis set group =>   3
Atom  23H    basis set group =>   4
Atom  24H    basis set group =>   4
Atom  25H    basis set group =>   4
Atom  26H    basis set group =>   4
Atom  27H    basis set group =>   4
Atom  28C    basis set group =>   3
Atom  29H    basis set group =>   4
Atom  30H    basis set group =>   4
Atom  31O    basis set group =>   2
Atom  32C    basis set group =>   3
Atom  33O    basis set group =>   2
Atom  34C    basis set group =>   3
Atom  35H    basis set group =>   4
Atom  36H    basis set group =>   4
Atom  37H    basis set group =>   4
-------------------------
ECP PARAMETER INFORMATION
-------------------------

 Group 1, Type Pd ECP Def2-ECP (replacing 28 core electrons, lmax=3)

Atom   0Pd   ECP group =>   1

------------------------------------------------------------------------------
                           ORCA GTO INTEGRAL CALCULATION
                           -- RI-GTO INTEGRALS CHOSEN --
------------------------------------------------------------------------------
------------------------------------------------------------------------------
                   ___                                                        
                  /   \      - P O W E R E D   B Y -                         
                 /     \                                                     
                 |  |  |   _    _      __       _____    __    __             
                 |  |  |  | |  | |    /  \     |  _  \  |  |  /  |          
                  \  \/   | |  | |   /    \    | | | |  |  | /  /          
                 / \  \   | |__| |  /  /\  \   | |_| |  |  |/  /          
                |  |  |   |  __  | /  /__\  \  |    /   |      \           
                |  |  |   | |  | | |   __   |  |    \   |  |\   \          
                \     /   | |  | | |  |  |  |  | |\  \  |  | \   \       
                 \___/    |_|  |_| |__|  |__|  |_| \__\ |__|  \__/        
                                                                              
                      - O R C A' S   B I G   F R I E N D -                    
                                      &                                       
                       - I N T E G R A L  F E E D E R -                       
                                                                              
 v1 FN, 2020, v2 2021                                                         
------------------------------------------------------------------------------


Reading SHARK input file 3_16_orca.SHARKINP.tmp ... ok
----------------------
SHARK INTEGRAL PACKAGE
----------------------

Number of atoms                             ...     38
Number of basis functions                   ...    339
Number of shells                            ...    175
Maximum angular momentum                    ...      3
Integral batch strategy                     ... SHARK/LIBINT Hybrid
RI-J (if used) integral strategy            ... SPLIT-RIJ (Revised 2003 algorithm where possible)
Printlevel                                  ...      1
Contraction scheme used                     ... SEGMENTED contraction
Coulomb Range Separation                    ... NOT USED
Exchange Range Separation                   ... NOT USED
Finite Nucleus Model                        ... NOT USED
Auxiliary Coulomb fitting basis             ... AVAILABLE
   # of basis functions in Aux-J            ...   1180
   # of shells in Aux-J                     ...    388
   Maximum angular momentum in Aux-J        ...      4
Auxiliary J/K fitting basis                 ... NOT available
Auxiliary Correlation fitting basis         ... NOT available
Auxiliary 'external' fitting basis          ... NOT available
Integral threshold                          ...     2.500000e-11
Primitive cut-off                           ...     2.500000e-12
Primitive pair pre-selection threshold      ...     2.500000e-12

Calculating pre-screening integrals         ... done (  0.1 sec) Dimension = 175
Organizing shell pair data                  ... done (  0.1 sec)
Shell pair information
Total number of shell pairs                 ...     15400
Shell pairs after pre-screening             ...     10867
Total number of primitive shell pairs       ...     54591
Primitive shell pairs kept                  ...     24306
          la=0 lb=0:   4158 shell pairs
          la=1 lb=0:   3605 shell pairs
          la=1 lb=1:    712 shell pairs
          la=2 lb=0:   1459 shell pairs
          la=2 lb=1:    647 shell pairs
          la=2 lb=2:    144 shell pairs
          la=3 lb=0:     86 shell pairs
          la=3 lb=1:     38 shell pairs
          la=3 lb=2:     17 shell pairs
          la=3 lb=3:      1 shell pairs

Calculating one electron integrals          ... done (  0.1 sec)
Calculating ECP integrals                   ... done (  0.4 sec)
Calculating RI/J V-Matrix + Cholesky decomp.... done (  0.1 sec)
Calculating Nuclear repulsion               ... done (  0.0 sec) ENN=   1727.382800758874 Eh

SHARK setup successfully completed in   0.9 seconds

Maximum memory used throughout the entire GTOINT-calculation: 75.6 MB
-------------------------------------------------------------------------------
                                 ORCA SCF
-------------------------------------------------------------------------------

------------
SCF SETTINGS
------------
Hamiltonian:
 Density Functional     Method          .... DFT(GTOs)
 Exchange Functional    Exchange        .... PBE
   PBE kappa parameter   XKappa         ....  1.024500
   PBE mue parameter    XMuePBE         ....  0.123457
 Correlation Functional Correlation     .... PBE
   PBE beta parameter  CBetaPBE         ....  0.030000
 LDA part of GGA corr.  LDAOpt          .... PW91-LDA
 Gradients option       PostSCFGGA      .... off
 Hybrid DFT is turned on
   Fraction HF Exchange ScalHFX         ....  0.420000
   Scaling of DF-GGA-X  ScalDFX         ....  0.580000
   Scaling of DF-GGA-C  ScalDFC         ....  1.000000
   Scaling of DF-LDA-C  ScalLDAC        ....  1.000000
   Perturbative correction              ....  0.000000
   Density functional embedding theory  .... OFF
 RI-approximation to the Coulomb term is turned on
   Number of AuxJ basis functions       .... 1180
   RIJ-ON(X) (HFX calculated with O(N)) .... on
   Number of AuxJ basis functions       .... 1180
   RIJ-COSX (HFX calculated with COS-X)).... on


General Settings:
 Integral files         IntName         .... 3_16_orca
 Hartree-Fock type      HFTyp           .... RHF
 Total Charge           Charge          ....    0
 Multiplicity           Mult            ....    1
 Number of Electrons    NEL             ....  154
 Basis Dimension        Dim             ....  339
 Nuclear Repulsion      ENuc            ....   1727.3828007589 Eh

Convergence Acceleration:
 DIIS                   CNVDIIS         .... on
   Start iteration      DIISMaxIt       ....    12
   Startup error        DIISStart       ....  0.200000
   # of expansion vecs  DIISMaxEq       ....     5
   Bias factor          DIISBfac        ....   1.050
   Max. coefficient     DIISMaxC        ....  10.000
 Trust-Rad. Augm. Hess. CNVTRAH         .... auto
   Auto Start mean grad. ratio tolernc. ....  1.125000
   Auto Start start iteration           ....    20
   Auto Start num. interpolation iter.  ....    10
   Max. Number of Micro iterations      ....    16
   Max. Number of Macro iterations      .... Maxiter - #DIIS iter
   Number of Davidson start vectors     ....     2
   Converg. threshold I  (grad. norm)   ....   1.000e-05
   Converg. threshold II (energy diff.) ....   1.000e-08
   Grad. Scal. Fac. for Micro threshold ....   0.100
   Minimum threshold for Micro iter.    ....   0.010
   NR start threshold (gradient norm)   ....   0.001
   Initial trust radius                 ....   0.400
   Minimum AH scaling param. (alpha)    ....   1.000
   Maximum AH scaling param. (alpha)    .... 1000.000
   Orbital update algorithm             .... Taylor
   White noise on init. David. guess    .... on
   Maximum white noise                  ....   0.010
   Quad. conv. algorithm                .... NR
   COSX micro iterations for RIJONX calc.... off
 SOSCF                  CNVSOSCF        .... off
 Level Shifting         CNVShift        .... on
   Level shift para.    LevelShift      ....    0.2500
   Turn off err/grad.   ShiftErr        ....    0.0010
 Zerner damping         CNVZerner       .... off
 Static damping         CNVDamp         .... on
   Fraction old density DampFac         ....    0.7000
   Max. Damping (<1)    DampMax         ....    0.9800
   Min. Damping (>=0)   DampMin         ....    0.0000
   Turn off err/grad.   DampErr         ....    0.1000
 Fernandez-Rico         CNVRico         .... off

SCF Procedure:
 Maximum # iterations   MaxIter         ....   250
 SCF integral mode      SCFMode         .... Direct
   Integral package                     .... SHARK and LIBINT hybrid scheme
 Reset frequency        DirectResetFreq ....    20
 Integral Threshold     Thresh          ....  2.500e-11 Eh
 Primitive CutOff       TCut            ....  2.500e-12 Eh

Convergence Tolerance:
 Convergence Check Mode ConvCheckMode   .... Total+1el-Energy
 Convergence forced     ConvForced      .... 0
 Energy Change          TolE            ....  1.000e-08 Eh
 1-El. energy change                    ....  1.000e-05 Eh
 DIIS Error             TolErr          ....  5.000e-07


Diagonalization of the overlap matrix:
Smallest eigenvalue                        ... 6.335e-04
Time for diagonalization                   ...    0.031 sec
Threshold for overlap eigenvalues          ... 1.000e-08
Number of eigenvalues below threshold      ... 0
Time for construction of square roots      ...    0.010 sec
Total time needed                          ...    0.042 sec

--------------------------------
INITIAL GUESS: MINIMAL BASIS EHT
--------------------------------
The minimal basis has 122 functions
EHT matrix was diagonalized
Basis set overlap was calculated now projecting the orbitals
Using GuessMode=FMatrix for the initial guess
C*T matrix was formed
Effective Fockian was calculated
Effective Fockian was diagonalized
Initial density was built
                      ------------------
                      INITIAL GUESS DONE
                      ------------------
-------------------
DFT GRID GENERATION
-------------------

General Integration Accuracy     IntAcc      ... 4.159
Radial Grid Type                 RadialGrid  ... OptM3 with GC (2021)
Angular Grid (max. ang.)         AngularGrid ... 3 (Lebedev-194)
Angular grid pruning method      GridPruning ... 4 (adaptive)
Weight generation scheme         WeightScheme... Becke
Basis function cutoff            BFCut       ... 1.0000e-11
Integration weight cutoff        WCut        ... 1.0000e-14
Angular grids for H and He will be reduced by one unit
Partially contracted basis set               ... off
Rotationally invariant grid construction     ... off

Total number of grid points                  ...    90001
Total number of batches                      ...     1425
Average number of points per batch           ...       63
Average number of grid points per atom       ...     2368
Time for grid setup =    1.524 sec

--------------------
COSX GRID GENERATION
--------------------

GRIDX 1
-------
General Integration Accuracy     IntAcc      ... 3.816
Radial Grid Type                 RadialGrid  ... OptM3 with GC (2021)
Angular Grid (max. ang.)         AngularGrid ... 1 (Lebedev-50)
Angular grid pruning method      GridPruning ... 4 (adaptive)
Weight generation scheme         WeightScheme... Becke
Basis function cutoff            BFCut       ... 1.0000e-11
Integration weight cutoff        WCut        ... 1.0000e-14
Angular grids for H and He will be reduced by one unit
Partially contracted basis set               ... on
Rotationally invariant grid construction     ... off

Total number of grid points                  ...    22454
Total number of batches                      ...      370
Average number of points per batch           ...       60
Average number of grid points per atom       ...      591
UseSFitting                                  ... on

GRIDX 2
-------
General Integration Accuracy     IntAcc      ... 4.020
Radial Grid Type                 RadialGrid  ... OptM3 with GC (2021)
Angular Grid (max. ang.)         AngularGrid ... 2 (Lebedev-110)
Angular grid pruning method      GridPruning ... 4 (adaptive)
Weight generation scheme         WeightScheme... Becke
Basis function cutoff            BFCut       ... 1.0000e-11
Integration weight cutoff        WCut        ... 1.0000e-14
Angular grids for H and He will be reduced by one unit
Partially contracted basis set               ... on
Rotationally invariant grid construction     ... off

Total number of grid points                  ...    48231
Total number of batches                      ...      771
Average number of points per batch           ...       62
Average number of grid points per atom       ...     1269
UseSFitting                                  ... on

GRIDX 3
-------
General Integration Accuracy     IntAcc      ... 4.338
Radial Grid Type                 RadialGrid  ... OptM3 with GC (2021)
Angular Grid (max. ang.)         AngularGrid ... 3 (Lebedev-194)
Angular grid pruning method      GridPruning ... 4 (adaptive)
Weight generation scheme         WeightScheme... Becke
Basis function cutoff            BFCut       ... 1.0000e-11
Integration weight cutoff        WCut        ... 1.0000e-14
Angular grids for H and He will be reduced by one unit
Partially contracted basis set               ... on
Rotationally invariant grid construction     ... off

Total number of grid points                  ...   104493
Total number of batches                      ...     1653
Average number of points per batch           ...       63
Average number of grid points per atom       ...     2750
UseSFitting                                  ... on

Time for X-Grid setup             =    4.088 sec

--------------
SCF ITERATIONS
--------------
ITER       Energy         Delta-E        Max-DP      RMS-DP      [F,P]     Damp
               ***  Starting incremental Fock matrix formation  ***
  0   -974.3528226194   0.000000000000 3.43113992  0.02385967  5.1848850 0.7000
  1   -965.7147604755   8.638062143958 4.23370459  0.04309797  3.9505913 0.7000
  2   -962.3025627842   3.412197691275 2.29824530  0.02173399  2.6142888 0.7000
  3   -965.3054508979  -3.002888113725 5.04474896  0.04469898  1.9268504 0.7000
  4   -961.4959913535   3.809459544400 2.30082502  0.02600754  1.2283495 0.7000
  5   -963.8037260720  -2.307734718481 4.14389906  0.04125775  0.9644329 0.7000
  6   -956.8113607748   6.992365297203 2.85655077  0.03028732  0.5627413 0.7000
  7   -961.4045163604  -4.593155585569 3.45657216  0.03696147  0.4948970 0.7000
  8   -956.5239159288   4.880600431621 3.04924744  0.03473896  0.2484786 0.7000
  9   -959.3863694113  -2.862453482548 3.25128726  0.03129219  0.2655670 0.7000
 10   -955.7178821942   3.668487217107 3.10425558  0.03271790  0.2470006 0.7000
 11   -958.1985531713  -2.480670977084 3.23038901  0.03261180  0.2549708 0.7000
                               ***Turning on DIIS***
 12   -953.3096018909   4.888951280421 3.13938205  0.03259718  0.2544519 0.7000
 13   -957.3144429868  -4.004841095899 2.10146232  0.02296947  0.2588402 0.7000
 14   -965.4862518765  -8.171808889764 1.47907458  0.01649231  0.2744645 0.7000
 15   -971.6921096602  -6.205857783630 1.03595800  0.01172407  0.3018527 0.7000
 16   -976.2425811981  -4.550471537960 0.72580639  0.00828223  0.3088004 0.7000
 17   -979.5126974300  -3.270116231869 2.99072316  0.02538272  0.3006177 0.7000
 18   -979.6182803929  -0.105582962924 1.20426916  0.01041174  0.1204544 0.7000
 19   -981.0352909522  -1.417010559283 0.87629529  0.00760407  0.1490104 0.7000
               *** Restarting incremental Fock matrix formation ***
                                   *** Resetting DIIS ***

 WARNING: the maximum gradient error descreased on average only by a factor   1.1
          during the last 20 iterations

                      *** Initiating the TRAH-SCF procedure ***


TRAH GRIDX
----------

General Integration Accuracy     IntAcc      ... 3.067
Radial Grid Type                 RadialGrid  ... OptM3 with GC (2021)
Angular Grid (max. ang.)         AngularGrid ... 1 (Lebedev-50)
Angular grid pruning method      GridPruning ... 4 (adaptive)
Weight generation scheme         WeightScheme... Becke
Basis function cutoff            BFCut       ... 1.0000e-11
Integration weight cutoff        WCut        ... 1.0000e-14
Angular grids for H and He will be reduced by one unit
Partially contracted basis set               ... on
Rotationally invariant grid construction     ... off

Total number of grid points                  ...    11970
Total number of batches                      ...      209
Average number of points per batch           ...       57
Average number of grid points per atom       ...      315


TRAH GRID
---------

General Integration Accuracy     IntAcc      ... 3.467
Radial Grid Type                 RadialGrid  ... OptM3 with GC (2021)
Angular Grid (max. ang.)         AngularGrid ... 1 (Lebedev-50)
Angular grid pruning method      GridPruning ... 4 (adaptive)
Weight generation scheme         WeightScheme... Becke
Basis function cutoff            BFCut       ... 1.0000e-11
Integration weight cutoff        WCut        ... 1.0000e-14
Angular grids for H and He will be reduced by one unit
Partially contracted basis set               ... off
Rotationally invariant grid construction     ... off

Total number of grid points                  ...    28282
Total number of batches                      ...      462
Average number of points per batch           ...       61
Average number of grid points per atom       ...      744

 --------------------------------------------------------------------------------------------
   Iter.        energy            ||Error||_2        Shift      TRadius  Mac/Mic        Rej.
 --------------------------------------------------------------------------------------------
WARNING: 183 diagonal Hessian elements are negative!
    0       -986.764678680323     4.202213e+00                     0.400 (TRAH MAcro)   No
WARNING : negative HOMO - LUMO gap : -0.777337
    0     dE    -1.006563e+00     4.062386e+00    -2.0765e+00      0.400 (TRAH MIcro)
    0     dE    -1.216140e+00     1.209007e+00    -5.8458e+00      0.400 (TRAH MIcro)
    0     dE    -1.226825e+00     6.193250e-01    -5.9780e+00      0.400 (TRAH MIcro)
    0     dE    -1.231268e+00     1.496477e-01    -5.9207e+00      0.400 (TRAH MIcro)
    0     dE    -1.230490e+00     7.311098e-02    -5.9177e+00      0.400 (TRAH MIcro)
    0     dE    -1.229935e+00     1.222833e-02    -5.9182e+00      0.399 (TRAH MIcro)
    0     dE    -1.229880e+00     5.847696e-03    -5.9182e+00      0.399 (TRAH MIcro)
WARNING: 12 diagonal Hessian elements are negative!
    1       -987.926773497261     1.926561e+00                     0.480 (TRAH MAcro)   No
WARNING : negative HOMO - LUMO gap : -0.217906
    1     dE    -3.234564e-01     1.175413e+00    -5.9123e-01      0.307 (TRAH MIcro)
    1     dE    -4.947107e-01     3.726591e-01    -8.4013e-01      0.480 (TRAH MIcro)
    1     dE    -5.040968e-01     1.284935e-01    -9.6695e-01      0.480 (TRAH MIcro)
    1     dE    -5.055854e-01     6.299987e-02    -1.0136e+00      0.480 (TRAH MIcro)
    1     dE    -5.059739e-01     3.840255e-02    -1.0371e+00      0.480 (TRAH MIcro)
    1     dE    -5.061620e-01     3.262606e-02    -1.0552e+00      0.480 (TRAH MIcro)
    1     dE    -5.062658e-01     2.966595e-02    -1.0715e+00      0.480 (TRAH MIcro)
    1     dE    -4.975996e-01     2.551672e-02    -1.1561e+00      0.463 (TRAH MIcro)
    1     dE    -4.978969e-01     1.235581e-02    -1.1562e+00      0.464 (TRAH MIcro)
    1     dE    -4.980115e-01     4.064982e-03    -1.1563e+00      0.464 (TRAH MIcro)
    2       -988.422146361716     6.176924e-01                     0.576 (TRAH MAcro)   No
    2     dE    -6.529998e-02     7.677728e-01    -1.2542e-01      0.203 (TRAH MIcro)
    2     dE    -1.048281e-01     2.939329e-01    -1.8785e-01      0.341 (TRAH MIcro)
    2     dE    -1.093288e-01     1.106710e-01    -1.9354e-01      0.360 (TRAH MIcro)
    2     dE    -1.106610e-01     3.767876e-02    -1.9476e-01      0.369 (TRAH MIcro)
    2     dE    -1.109270e-01     2.315840e-02    -1.9494e-01      0.372 (TRAH MIcro)
    2     dE    -1.110707e-01     9.938393e-03    -1.9499e-01      0.373 (TRAH MIcro)
    3       -988.538254060338     2.206227e-01                     0.691 (TRAH MAcro)   No
    3     dE    -4.521496e-03     3.344870e-01    -9.0278e-03      0.041 (TRAH MIcro)
    3     dE    -1.279008e-02     8.323855e-02    -2.5082e-02      0.141 (TRAH MIcro)
    3     dE    -1.320732e-02     2.533368e-02    -2.5851e-02      0.148 (TRAH MIcro)
    3     dE    -1.326812e-02     1.283584e-02    -2.5954e-02      0.150 (TRAH MIcro)
    3     dE    -1.328547e-02     5.871562e-03    -2.5981e-02      0.151 (TRAH MIcro)
    4       -988.552264195201     3.836119e-02                     0.829 (TRAH MAcro)   No
    4     dE    -8.953947e-05     7.792248e-02    -1.7908e-04      0.005 (TRAH MIcro)
    4     dE    -3.353027e-04     1.165907e-02    -6.7023e-04      0.024 (TRAH MIcro)
    4     dE    -3.440667e-04     5.795004e-03    -6.8771e-04      0.025 (TRAH MIcro)
    4     dE    -3.457713e-04     2.249644e-03    -6.9110e-04      0.025 (TRAH MIcro)
    5       -988.552614274449     2.518490e-03                     0.995 (TRAH MAcro)   No
    5     dE    -1.575476e-07     5.145429e-03    -3.1511e-07      0.000 (TRAH MIcro)
    5     dE    -7.360962e-07     2.229271e-03    -1.4722e-06      0.001 (TRAH MIcro)
    5     dE    -1.064204e-06     1.018633e-03    -2.1284e-06      0.002 (TRAH MIcro)
    5     dE    -1.161854e-06     4.383180e-04    -2.3237e-06      0.002 (TRAH MIcro)
    5     dE    -1.181423e-06     1.508335e-04    -2.3628e-06      0.002 (TRAH MIcro)
    6       -988.552615464386     1.504214e-04                           (NR   MAcro)
    6     dE    -1.459479e-09     6.405635e-05                           (NR   MIcro)
    6     dE    -1.872864e-09     3.073426e-05                           (NR   MIcro)
    6     dE    -1.970719e-09     1.344258e-05                           (NR   MIcro)
    6     dE    -1.987704e-09     6.809934e-06                           (NR   MIcro)
    6     dE    -1.994521e-09     5.095968e-06                           (NR   MIcro)
    6     dE    -1.997300e-09     2.780009e-06                           (NR   MIcro)
    6     dE    -1.997799e-09     1.115182e-06                           (NR   MIcro)
    6     dE    -1.997925e-09     5.331024e-07                           (NR   MIcro)
    7       -988.552615467096     5.596479e-07                           (NR   MAcro)

               *****************************************************
               *                     SUCCESS                       *
               *           SCF CONVERGED AFTER  73 CYCLES          *
               *****************************************************

Old exchange energy                            =    -52.685437909 Eh
New exchange energy                            =    -52.685429452 Eh
Exchange energy change after final integration =      0.000008457 Eh
Total energy after final integration           =   -988.552607010 Eh
Final COS-X integration done in                =    45.112 sec

----------------
TOTAL SCF ENERGY
----------------

Total Energy       :         -988.55260701 Eh          -26899.88400 eV

Components:
Nuclear Repulsion  :         1727.38280076 Eh           47004.47567 eV
Electronic Energy  :        -2715.93540777 Eh          -73904.35967 eV
One Electron Energy:        -4836.09159023 Eh         -131596.74242 eV
Two Electron Energy:         2120.15618246 Eh           57692.38275 eV
Max COSX asymmetry :            0.00004252 Eh               0.00116 eV

Virial components:
Potential Energy   :        -1890.49983631 Eh          -51443.11586 eV
Kinetic Energy     :          901.94722930 Eh           24543.23186 eV
Virial Ratio       :            2.09602045


DFT components:
N(Alpha)           :       76.999688227979 electrons
N(Beta)            :       76.999688227979 electrons
N(Total)           :      153.999376455959 electrons
E(X)               :      -70.252460310128 Eh       
E(C)               :       -6.911127656448 Eh       
E(XC)              :      -77.163587966576 Eh       
DFET-embed. en.    :        0.000000000000 Eh       

---------------
SCF CONVERGENCE
---------------

  Last Energy change         ...   -2.7093e-09  Tolerance :   1.0000e-08
  Last Orbital Gradient      ...    5.5965e-07  Tolerance :   1.0000e-05
  Last Orbital Rotation      ...    5.2836e-05

             **** THE GBW FILE WAS UPDATED (3_16_orca.gbw) ****
             **** DENSITY 3_16_orca.scfp WAS UPDATED ****
             **** ENERGY FILE WAS UPDATED (3_16_orca.en.tmp) ****
             **** THE GBW FILE WAS UPDATED (3_16_orca.gbw) ****
             **** DENSITY 3_16_orca.scfp WAS UPDATED ****
----------------
ORBITAL ENERGIES
----------------

  NO   OCC          E(Eh)            E(eV) 
   0   2.0000     -19.487922      -530.2933 
   1   2.0000     -19.477064      -529.9979 
   2   2.0000     -19.475846      -529.9647 
   3   2.0000     -19.434083      -528.8283 
   4   2.0000     -14.723758      -400.6538 
   5   2.0000     -10.557483      -287.2837 
   6   2.0000     -10.533476      -286.6305 
   7   2.0000     -10.505902      -285.8801 
   8   2.0000     -10.485516      -285.3254 
   9   2.0000     -10.483532      -285.2714 
  10   2.0000     -10.479017      -285.1485 
  11   2.0000     -10.472524      -284.9719 
  12   2.0000     -10.469211      -284.8817 
  13   2.0000     -10.466192      -284.7996 
  14   2.0000     -10.463085      -284.7150 
  15   2.0000     -10.462256      -284.6925 
  16   2.0000     -10.431461      -283.8545 
  17   2.0000     -10.415310      -283.4150 
  18   2.0000      -3.659097       -99.5691 
  19   2.0000      -2.308632       -62.8211 
  20   2.0000      -2.302351       -62.6502 
  21   2.0000      -2.268262       -61.7226 
  22   2.0000      -1.185435       -32.2573 
  23   2.0000      -1.149080       -31.2680 
  24   2.0000      -1.079295       -29.3691 
  25   2.0000      -1.070659       -29.1341 
  26   2.0000      -1.050837       -28.5947 
  27   2.0000      -0.969379       -26.3781 
  28   2.0000      -0.876376       -23.8474 
  29   2.0000      -0.858953       -23.3733 
  30   2.0000      -0.822499       -22.3813 
  31   2.0000      -0.820275       -22.3208 
  32   2.0000      -0.799110       -21.7449 
  33   2.0000      -0.796086       -21.6626 
  34   2.0000      -0.722733       -19.6666 
  35   2.0000      -0.695276       -18.9194 
  36   2.0000      -0.678434       -18.4611 
  37   2.0000      -0.608709       -16.5638 
  38   2.0000      -0.600244       -16.3335 
  39   2.0000      -0.586199       -15.9513 
  40   2.0000      -0.575543       -15.6613 
  41   2.0000      -0.571320       -15.5464 
  42   2.0000      -0.563382       -15.3304 
  43   2.0000      -0.533217       -14.5096 
  44   2.0000      -0.530846       -14.4451 
  45   2.0000      -0.527194       -14.3457 
  46   2.0000      -0.523469       -14.2443 
  47   2.0000      -0.514331       -13.9956 
  48   2.0000      -0.509632       -13.8678 
  49   2.0000      -0.504725       -13.7343 
  50   2.0000      -0.495959       -13.4957 
  51   2.0000      -0.491992       -13.3878 
  52   2.0000      -0.485529       -13.2119 
  53   2.0000      -0.480065       -13.0632 
  54   2.0000      -0.457912       -12.4604 
  55   2.0000      -0.451491       -12.2857 
  56   2.0000      -0.450056       -12.2467 
  57   2.0000      -0.442528       -12.0418 
  58   2.0000      -0.436104       -11.8670 
  59   2.0000      -0.433598       -11.7988 
  60   2.0000      -0.428350       -11.6560 
  61   2.0000      -0.418404       -11.3854 
  62   2.0000      -0.415303       -11.3010 
  63   2.0000      -0.407907       -11.0997 
  64   2.0000      -0.397610       -10.8195 
  65   2.0000      -0.377371       -10.2688 
  66   2.0000      -0.370900       -10.0927 
  67   2.0000      -0.352003        -9.5785 
  68   2.0000      -0.349003        -9.4969 
  69   2.0000      -0.343186        -9.3386 
  70   2.0000      -0.318671        -8.6715 
  71   2.0000      -0.314418        -8.5557 
  72   2.0000      -0.308619        -8.3979 
  73   2.0000      -0.303608        -8.2616 
  74   2.0000      -0.292722        -7.9654 
  75   2.0000      -0.288745        -7.8572 
  76   2.0000      -0.273200        -7.4341 
  77   0.0000      -0.066315        -1.8045 
  78   0.0000      -0.014863        -0.4044 
  79   0.0000       0.001355         0.0369 
  80   0.0000       0.060778         1.6538 
  81   0.0000       0.066959         1.8221 
  82   0.0000       0.081739         2.2242 
  83   0.0000       0.090147         2.4530 
  84   0.0000       0.097895         2.6638 
  85   0.0000       0.108297         2.9469 
  86   0.0000       0.128638         3.5004 
  87   0.0000       0.132934         3.6173 
  88   0.0000       0.145065         3.9474 
  89   0.0000       0.158502         4.3131 
  90   0.0000       0.165981         4.5166 
  91   0.0000       0.169259         4.6058 
  92   0.0000       0.171508         4.6670 
  93   0.0000       0.187227         5.0947 
  94   0.0000       0.194336         5.2881 
  95   0.0000       0.196153         5.3376 
  96   0.0000       0.203958         5.5500 
  97   0.0000       0.210736         5.7344 
  98   0.0000       0.214937         5.8487 
  99   0.0000       0.222832         6.0636 
 100   0.0000       0.225569         6.1380 
 101   0.0000       0.230196         6.2640 
 102   0.0000       0.235932         6.4200 
 103   0.0000       0.240929         6.5560 
 104   0.0000       0.244714         6.6590 
 105   0.0000       0.247602         6.7376 
 106   0.0000       0.256324         6.9749 
 107   0.0000       0.260594         7.0911 
 108   0.0000       0.264495         7.1973 
 109   0.0000       0.272065         7.4033 
 110   0.0000       0.277294         7.5455 
 111   0.0000       0.291298         7.9266 
 112   0.0000       0.303177         8.2499 
 113   0.0000       0.315127         8.5751 
 114   0.0000       0.325336         8.8529 
 115   0.0000       0.343500         9.3471 
 116   0.0000       0.354046         9.6341 
 117   0.0000       0.371892        10.1197 
 118   0.0000       0.386997        10.5307 
 119   0.0000       0.415704        11.3119 
 120   0.0000       0.425830        11.5874 
 121   0.0000       0.434364        11.8196 
 122   0.0000       0.455250        12.3880 
 123   0.0000       0.464159        12.6304 
 124   0.0000       0.477065        12.9816 
 125   0.0000       0.485662        13.2155 
 126   0.0000       0.504685        13.7332 
 127   0.0000       0.508533        13.8379 
 128   0.0000       0.528231        14.3739 
 129   0.0000       0.537425        14.6241 
 130   0.0000       0.543610        14.7924 
 131   0.0000       0.546143        14.8613 
 132   0.0000       0.555843        15.1252 
 133   0.0000       0.560988        15.2652 
 134   0.0000       0.568889        15.4803 
 135   0.0000       0.579071        15.7573 
 136   0.0000       0.581157        15.8141 
 137   0.0000       0.585551        15.9337 
 138   0.0000       0.591049        16.0832 
 139   0.0000       0.593240        16.1429 
 140   0.0000       0.601173        16.3587 
 141   0.0000       0.609248        16.5785 
 142   0.0000       0.614031        16.7086 
 143   0.0000       0.622573        16.9411 
 144   0.0000       0.625096        17.0097 
 145   0.0000       0.631051        17.1718 
 146   0.0000       0.631996        17.1975 
 147   0.0000       0.642860        17.4931 
 148   0.0000       0.657693        17.8967 
 149   0.0000       0.658692        17.9239 
 150   0.0000       0.668576        18.1929 
 151   0.0000       0.682274        18.5656 
 152   0.0000       0.684614        18.6293 
 153   0.0000       0.700236        19.0544 
 154   0.0000       0.706354        19.2209 
 155   0.0000       0.720951        19.6181 
 156   0.0000       0.738054        20.0835 
 157   0.0000       0.766182        20.8489 
 158   0.0000       0.770196        20.9581 
 159   0.0000       0.783168        21.3111 
 160   0.0000       0.796668        21.6784 
 161   0.0000       0.839079        22.8325 
 162   0.0000       0.849448        23.1147 
 163   0.0000       0.862036        23.4572 
 164   0.0000       0.880129        23.9495 
 165   0.0000       0.892577        24.2883 
 166   0.0000       0.897229        24.4148 
 167   0.0000       0.912390        24.8274 
 168   0.0000       0.917202        24.9583 
 169   0.0000       0.925607        25.1871 
 170   0.0000       0.938372        25.5344 
 171   0.0000       0.948950        25.8222 
 172   0.0000       0.957616        26.0581 
 173   0.0000       0.963991        26.2315 
 174   0.0000       0.972718        26.4690 
 175   0.0000       0.999561        27.1994 
 176   0.0000       1.001959        27.2647 
 177   0.0000       1.006121        27.3780 
 178   0.0000       1.016013        27.6471 
 179   0.0000       1.020456        27.7680 
 180   0.0000       1.023867        27.8608 
 181   0.0000       1.034192        28.1418 
 182   0.0000       1.039796        28.2943 
 183   0.0000       1.044460        28.4212 
 184   0.0000       1.051694        28.6180 
 185   0.0000       1.055461        28.7205 
 186   0.0000       1.065872        29.0038 
 187   0.0000       1.071924        29.1685 
 188   0.0000       1.076238        29.2859 
 189   0.0000       1.078684        29.3525 
 190   0.0000       1.091490        29.7010 
 191   0.0000       1.096868        29.8473 
 192   0.0000       1.115463        30.3533 
 193   0.0000       1.119660        30.4675 
 194   0.0000       1.124639        30.6030 
 195   0.0000       1.140364        31.0309 
 196   0.0000       1.145934        31.1824 
 197   0.0000       1.170751        31.8577 
 198   0.0000       1.183520        32.2052 
 199   0.0000       1.189998        32.3815 
 200   0.0000       1.203801        32.7571 
 201   0.0000       1.228650        33.4333 
 202   0.0000       1.230506        33.4838 
 203   0.0000       1.247915        33.9575 
 204   0.0000       1.267799        34.4986 
 205   0.0000       1.278139        34.7799 
 206   0.0000       1.287052        35.0225 
 207   0.0000       1.290032        35.1036 
 208   0.0000       1.313353        35.7382 
 209   0.0000       1.335824        36.3496 
 210   0.0000       1.354603        36.8606 
 211   0.0000       1.361874        37.0585 
 212   0.0000       1.383163        37.6378 
 213   0.0000       1.419798        38.6347 
 214   0.0000       1.444158        39.2975 
 215   0.0000       1.451103        39.4865 
 216   0.0000       1.473625        40.0994 
 217   0.0000       1.495193        40.6863 
 218   0.0000       1.500421        40.8285 
 219   0.0000       1.527597        41.5680 
 220   0.0000       1.537747        41.8442 
 221   0.0000       1.549964        42.1767 
 222   0.0000       1.553475        42.2722 
 223   0.0000       1.563041        42.5325 
 224   0.0000       1.579824        42.9892 
 225   0.0000       1.604526        43.6614 
 226   0.0000       1.605283        43.6820 
 227   0.0000       1.632845        44.4320 
 228   0.0000       1.681199        45.7477 
 229   0.0000       1.735937        47.2373 
 230   0.0000       1.761875        47.9431 
 231   0.0000       1.771110        48.1944 
 232   0.0000       1.798201        48.9315 
 233   0.0000       1.806023        49.1444 
 234   0.0000       1.832533        49.8658 
 235   0.0000       1.839571        50.0573 
 236   0.0000       1.852921        50.4205 
 237   0.0000       1.884270        51.2736 
 238   0.0000       1.889584        51.4182 
 239   0.0000       1.895852        51.5888 
 240   0.0000       1.907711        51.9115 
 241   0.0000       1.916754        52.1575 
 242   0.0000       1.931295        52.5532 
 243   0.0000       1.934230        52.6331 
 244   0.0000       1.953361        53.1537 
 245   0.0000       1.976337        53.7789 
 246   0.0000       1.989996        54.1505 
 247   0.0000       2.006564        54.6014 
 248   0.0000       2.017431        54.8971 
 249   0.0000       2.030705        55.2583 
 250   0.0000       2.037624        55.4466 
 251   0.0000       2.041127        55.5419 
 252   0.0000       2.047211        55.7075 
 253   0.0000       2.054111        55.8952 
 254   0.0000       2.071055        56.3563 
 255   0.0000       2.086112        56.7660 
 256   0.0000       2.094212        56.9864 
 257   0.0000       2.097672        57.0806 
 258   0.0000       2.110490        57.4294 
 259   0.0000       2.119011        57.6612 
 260   0.0000       2.132166        58.0192 
 261   0.0000       2.137172        58.1554 
 262   0.0000       2.150844        58.5275 
 263   0.0000       2.159814        58.7715 
 264   0.0000       2.168694        59.0132 
 265   0.0000       2.176934        59.2374 
 266   0.0000       2.194795        59.7234 
 267   0.0000       2.205893        60.0254 
 268   0.0000       2.215551        60.2882 
 269   0.0000       2.229188        60.6593 
 270   0.0000       2.246482        61.1299 
 271   0.0000       2.272291        61.8322 
 272   0.0000       2.285543        62.1928 
 273   0.0000       2.311621        62.9024 
 274   0.0000       2.316391        63.0322 
 275   0.0000       2.322364        63.1947 
 276   0.0000       2.327983        63.3476 
 277   0.0000       2.341190        63.7070 
 278   0.0000       2.346843        63.8608 
 279   0.0000       2.351590        63.9900 
 280   0.0000       2.364203        64.3332 
 281   0.0000       2.386458        64.9388 
 282   0.0000       2.436693        66.3058 
 283   0.0000       2.455737        66.8240 
 284   0.0000       2.463109        67.0246 
 285   0.0000       2.470805        67.2340 
 286   0.0000       2.480818        67.5065 
 287   0.0000       2.492380        67.8211 
 288   0.0000       2.499315        68.0098 
 289   0.0000       2.502701        68.1020 
 290   0.0000       2.519820        68.5678 
 291   0.0000       2.572921        70.0127 
 292   0.0000       2.593098        70.5618 
 293   0.0000       2.603259        70.8383 
 294   0.0000       2.611230        71.0552 
 295   0.0000       2.618075        71.2414 
 296   0.0000       2.655997        72.2734 
 297   0.0000       2.678031        72.8729 
 298   0.0000       2.699941        73.4691 
 299   0.0000       2.731230        74.3205 
 300   0.0000       2.738605        74.5212 
 301   0.0000       2.743325        74.6497 
 302   0.0000       2.762952        75.1838 
 303   0.0000       2.780139        75.6514 
 304   0.0000       2.799168        76.1692 
 305   0.0000       2.804680        76.3192 
 306   0.0000       2.814811        76.5949 
 307   0.0000       2.835790        77.1658 
 308   0.0000       2.842919        77.3597 
 309   0.0000       2.875975        78.2593 
 310   0.0000       2.896750        78.8246 
 311   0.0000       2.905164        79.0535 
 312   0.0000       3.022633        82.2500 
 313   0.0000       3.045098        82.8613 
 314   0.0000       3.064030        83.3765 
 315   0.0000       3.088161        84.0331 
 316   0.0000       3.091704        84.1295 
 317   0.0000       3.230896        87.9171 
 318   0.0000       3.237238        88.0897 
 319   0.0000       3.391057        92.2754 
 320   0.0000      13.267603       361.0298 
 321   0.0000      13.622953       370.6994 
 322   0.0000      13.646835       371.3493 
 323   0.0000      13.690095       372.5264 
 324   0.0000      13.706556       372.9744 
 325   0.0000      13.744381       374.0036 
 326   0.0000      13.859891       377.1468 
 327   0.0000      13.949061       379.5732 
 328   0.0000      14.095885       383.5685 
 329   0.0000      14.104716       383.8088 
 330   0.0000      14.122349       384.2887 
 331   0.0000      14.124047       384.3349 
 332   0.0000      14.407658       392.0523 
 333   0.0000      19.368315       527.0387 
 334   0.0000      25.721229       699.9102 
 335   0.0000      25.739845       700.4168 
 336   0.0000      25.760469       700.9780 
 337   0.0000      25.814132       702.4382 
 338   0.0000      51.582707      1403.6368 

                    ********************************
                    * MULLIKEN POPULATION ANALYSIS *
                    ********************************

-----------------------
MULLIKEN ATOMIC CHARGES
-----------------------
   0 Pd:    0.546288
   1 O :   -0.494431
   2 C :    0.629318
   3 O :   -0.483413
   4 C :   -0.766192
   5 H :    0.244939
   6 H :    0.258526
   7 H :    0.256491
   8 N :   -0.480784
   9 C :   -0.542788
  10 H :    0.299844
  11 H :    0.218396
  12 H :    0.270631
  13 C :   -0.550046
  14 H :    0.269967
  15 H :    0.230272
  16 H :    0.292271
  17 C :    0.046651
  18 C :   -0.233495
  19 C :   -0.204253
  20 C :   -0.231367
  21 C :   -0.235351
  22 C :   -0.216316
  23 H :    0.226223
  24 H :    0.227530
  25 H :    0.226256
  26 H :    0.233320
  27 H :    0.246610
  28 C :   -0.342925
  29 H :    0.246044
  30 H :    0.259020
  31 O :   -0.538616
  32 C :    0.570573
  33 O :   -0.462879
  34 C :   -0.741090
  35 H :    0.234333
  36 H :    0.251012
  37 H :    0.239431
Sum of atomic charges:   -0.0000000

--------------------------------
MULLIKEN REDUCED ORBITAL CHARGES
--------------------------------
  0 Pds       :     2.451256  s :     2.451256
      pz      :     2.080397  p :     6.336990
      px      :     2.128558
      py      :     2.128036
      dz2     :     1.980796  d :     8.661324
      dxz     :     1.646063
      dyz     :     1.968220
      dx2y2   :     1.818606
      dxy     :     1.247639
      f0      :     0.000506  f :     0.004142
      f+1     :     0.000321
      f-1     :     0.000248
      f+2     :     0.000395
      f-2     :     0.000969
      f+3     :     0.000542
      f-3     :     0.001162
  1 O s       :     3.827046  s :     3.827046
      pz      :     1.634865  p :     4.638956
      px      :     1.661142
      py      :     1.342950
      dz2     :     0.003398  d :     0.028429
      dxz     :     0.003488
      dyz     :     0.006176
      dx2y2   :     0.007254
      dxy     :     0.008113
  2 C s       :     2.956324  s :     2.956324
      pz      :     0.711511  p :     2.271105
      px      :     0.785274
      py      :     0.774319
      dz2     :     0.009660  d :     0.143253
      dxz     :     0.022633
      dyz     :     0.018751
      dx2y2   :     0.041925
      dxy     :     0.050283
  3 O s       :     3.796442  s :     3.796442
      pz      :     1.546785  p :     4.659449
      px      :     1.371025
      py      :     1.741638
      dz2     :     0.003600  d :     0.027522
      dxz     :     0.008956
      dyz     :     0.001086
      dx2y2   :     0.008490
      dxy     :     0.005388
  4 C s       :     3.415698  s :     3.415698
      pz      :     1.158279  p :     3.316937
      px      :     1.095528
      py      :     1.063130
      dz2     :     0.005329  d :     0.033556
      dxz     :     0.008552
      dyz     :     0.005672
      dx2y2   :     0.004127
      dxy     :     0.009877
  5 H s       :     0.755061  s :     0.755061
  6 H s       :     0.741474  s :     0.741474
  7 H s       :     0.743509  s :     0.743509
  8 N s       :     3.606901  s :     3.606901
      pz      :     1.182554  p :     3.825811
      px      :     1.439191
      py      :     1.204067
      dz2     :     0.008488  d :     0.048071
      dxz     :     0.009362
      dyz     :     0.012990
      dx2y2   :     0.006643
      dxy     :     0.010588
  9 C s       :     3.360840  s :     3.360840
      pz      :     0.963384  p :     3.133858
      px      :     1.133210
      py      :     1.037264
      dz2     :     0.009988  d :     0.048090
      dxz     :     0.007129
      dyz     :     0.013538
      dx2y2   :     0.006044
      dxy     :     0.011390
 10 H s       :     0.700156  s :     0.700156
 11 H s       :     0.781604  s :     0.781604
 12 H s       :     0.729369  s :     0.729369
 13 C s       :     3.363940  s :     3.363940
      pz      :     1.174237  p :     3.136206
      px      :     1.011260
      py      :     0.950710
      dz2     :     0.006965  d :     0.049900
      dxz     :     0.006396
      dyz     :     0.014619
      dx2y2   :     0.010460
      dxy     :     0.011460
 14 H s       :     0.730033  s :     0.730033
 15 H s       :     0.769728  s :     0.769728
 16 H s       :     0.707729  s :     0.707729
 17 C s       :     3.188749  s :     3.188749
      pz      :     0.894633  p :     2.721030
      px      :     0.956270
      py      :     0.870127
      dz2     :     0.009912  d :     0.043570
      dxz     :     0.006365
      dyz     :     0.012573
      dx2y2   :     0.007384
      dxy     :     0.007337
 18 C s       :     3.264472  s :     3.264472
      pz      :     0.961215  p :     2.929549
      px      :     0.954153
      py      :     1.014181
      dz2     :     0.009988  d :     0.039473
      dxz     :     0.007396
      dyz     :     0.012496
      dx2y2   :     0.004974
      dxy     :     0.004618
 19 C s       :     3.249131  s :     3.249131
      pz      :     0.935752  p :     2.915743
      px      :     1.000022
      py      :     0.979969
      dz2     :     0.010527  d :     0.039379
      dxz     :     0.008190
      dyz     :     0.010463
      dx2y2   :     0.003721
      dxy     :     0.006478
 20 C s       :     3.267781  s :     3.267781
      pz      :     1.059960  p :     2.925543
      px      :     0.953925
      py      :     0.911658
      dz2     :     0.012573  d :     0.038043
      dxz     :     0.004373
      dyz     :     0.008528
      dx2y2   :     0.006323
      dxy     :     0.006246
 21 C s       :     3.274011  s :     3.274011
      pz      :     0.935635  p :     2.922409
      px      :     0.979741
      py      :     1.007032
      dz2     :     0.009593  d :     0.038931
      dxz     :     0.007897
      dyz     :     0.012440
      dx2y2   :     0.004062
      dxy     :     0.004938
 22 C s       :     3.232880  s :     3.232880
      pz      :     0.939897  p :     2.942901
      px      :     1.001411
      py      :     1.001593
      dz2     :     0.009317  d :     0.040535
      dxz     :     0.006595
      dyz     :     0.014742
      dx2y2   :     0.005993
      dxy     :     0.003888
 23 H s       :     0.773777  s :     0.773777
 24 H s       :     0.772470  s :     0.772470
 25 H s       :     0.773744  s :     0.773744
 26 H s       :     0.766680  s :     0.766680
 27 H s       :     0.753390  s :     0.753390
 28 C s       :     3.325671  s :     3.325671
      pz      :     0.831812  p :     2.961940
      px      :     1.068671
      py      :     1.061457
      dz2     :     0.016301  d :     0.055313
      dxz     :     0.010062
      dyz     :     0.010409
      dx2y2   :     0.014699
      dxy     :     0.003843
 29 H s       :     0.753956  s :     0.753956
 30 H s       :     0.740980  s :     0.740980
 31 O s       :     3.824833  s :     3.824833
      pz      :     1.413025  p :     4.687391
      px      :     1.621146
      py      :     1.653220
      dz2     :     0.009364  d :     0.026393
      dxz     :     0.004836
      dyz     :     0.006709
      dx2y2   :     0.002257
      dxy     :     0.003226
 32 C s       :     2.959401  s :     2.959401
      pz      :     0.751184  p :     2.328260
      px      :     0.819248
      py      :     0.757828
      dz2     :     0.045245  d :     0.141766
      dxz     :     0.034598
      dyz     :     0.027243
      dx2y2   :     0.017723
      dxy     :     0.016957
 33 O s       :     3.778150  s :     3.778150
      pz      :     1.615724  p :     4.656881
      px      :     1.598722
      py      :     1.442435
      dz2     :     0.005326  d :     0.027848
      dxz     :     0.006450
      dyz     :     0.005767
      dx2y2   :     0.005851
      dxy     :     0.004454
 34 C s       :     3.409283  s :     3.409283
      pz      :     1.153814  p :     3.297828
      px      :     1.013678
      py      :     1.130336
      dz2     :     0.008296  d :     0.033978
      dxz     :     0.008824
      dyz     :     0.003160
      dx2y2   :     0.009884
      dxy     :     0.003814
 35 H s       :     0.765667  s :     0.765667
 36 H s       :     0.748988  s :     0.748988
 37 H s       :     0.760569  s :     0.760569


                     *******************************
                     * LOEWDIN POPULATION ANALYSIS *
                     *******************************

----------------------
LOEWDIN ATOMIC CHARGES
----------------------
   0 Pd:   -0.230221
   1 O :   -0.161849
   2 C :    0.167916
   3 O :   -0.208214
   4 C :   -0.381878
   5 H :    0.147087
   6 H :    0.161308
   7 H :    0.153994
   8 N :   -0.057839
   9 C :   -0.240933
  10 H :    0.166148
  11 H :    0.119943
  12 H :    0.148145
  13 C :   -0.234914
  14 H :    0.148369
  15 H :    0.124511
  16 H :    0.160151
  17 C :   -0.045951
  18 C :   -0.107766
  19 C :   -0.133749
  20 C :   -0.122794
  21 C :   -0.120725
  22 C :   -0.112439
  23 H :    0.140048
  24 H :    0.143949
  25 H :    0.144753
  26 H :    0.144573
  27 H :    0.145987
  28 C :   -0.103575
  29 H :    0.138236
  30 H :    0.147915
  31 O :   -0.180722
  32 C :    0.137469
  33 O :   -0.258889
  34 C :   -0.380077
  35 H :    0.146511
  36 H :    0.151995
  37 H :    0.143528

-------------------------------
LOEWDIN REDUCED ORBITAL CHARGES
-------------------------------
  0 Pds       :     2.471898  s :     2.471898
      pz      :     2.165841  p :     6.701198
      px      :     2.288765
      py      :     2.246592
      dz2     :     2.032302  d :     9.051479
      dxz     :     1.723646
      dyz     :     2.009549
      dx2y2   :     1.909472
      dxy     :     1.376509
      f0      :     0.000722  f :     0.005646
      f+1     :     0.000413
      f-1     :     0.000307
      f+2     :     0.000510
      f-2     :     0.001363
      f+3     :     0.000674
      f-3     :     0.001657
  1 O s       :     3.471997  s :     3.471997
      pz      :     1.598337  p :     4.634139
      px      :     1.636834
      py      :     1.398968
      dz2     :     0.007353  d :     0.055713
      dxz     :     0.004498
      dyz     :     0.009541
      dx2y2   :     0.016821
      dxy     :     0.017499
  2 C s       :     2.805600  s :     2.805600
      pz      :     0.738999  p :     2.705508
      px      :     0.989177
      py      :     0.977332
      dz2     :     0.022712  d :     0.320976
      dxz     :     0.047806
      dyz     :     0.038265
      dx2y2   :     0.092475
      dxy     :     0.119718
  3 O s       :     3.483454  s :     3.483454
      pz      :     1.527727  p :     4.671104
      px      :     1.453378
      py      :     1.689999
      dz2     :     0.006606  d :     0.053656
      dxz     :     0.013988
      dyz     :     0.001901
      dx2y2   :     0.018847
      dxy     :     0.012314
  4 C s       :     2.955711  s :     2.955711
      pz      :     1.144842  p :     3.363610
      px      :     1.115775
      py      :     1.102993
      dz2     :     0.009149  d :     0.062557
      dxz     :     0.015040
      dyz     :     0.010379
      dx2y2   :     0.008265
      dxy     :     0.019724
  5 H s       :     0.852913  s :     0.852913
  6 H s       :     0.838692  s :     0.838692
  7 H s       :     0.846006  s :     0.846006
  8 N s       :     3.109994  s :     3.109994
      pz      :     1.207696  p :     3.841451
      px      :     1.402605
      py      :     1.231150
      dz2     :     0.019599  d :     0.106394
      dxz     :     0.019147
      dyz     :     0.030751
      dx2y2   :     0.014301
      dxy     :     0.022596
  9 C s       :     2.944498  s :     2.944498
      pz      :     1.011129  p :     3.204219
      px      :     1.134181
      py      :     1.058909
      dz2     :     0.019476  d :     0.092215
      dxz     :     0.013797
      dyz     :     0.027475
      dx2y2   :     0.011038
      dxy     :     0.020430
 10 H s       :     0.833852  s :     0.833852
 11 H s       :     0.880057  s :     0.880057
 12 H s       :     0.851855  s :     0.851855
 13 C s       :     2.938359  s :     2.938359
      pz      :     1.139524  p :     3.199983
      px      :     1.048923
      py      :     1.011536
      dz2     :     0.012493  d :     0.096572
      dxz     :     0.011995
      dyz     :     0.026619
      dx2y2   :     0.021776
      dxy     :     0.023690
 14 H s       :     0.851631  s :     0.851631
 15 H s       :     0.875489  s :     0.875489
 16 H s       :     0.839849  s :     0.839849
 17 C s       :     2.850499  s :     2.850499
      pz      :     1.025633  p :     3.093271
      px      :     0.993326
      py      :     1.074312
      dz2     :     0.024480  d :     0.102181
      dxz     :     0.013592
      dyz     :     0.031272
      dx2y2   :     0.015779
      dxy     :     0.017057
 18 C s       :     2.898124  s :     2.898124
      pz      :     1.085696  p :     3.121073
      px      :     0.987071
      py      :     1.048306
      dz2     :     0.025301  d :     0.088570
      dxz     :     0.016265
      dyz     :     0.029362
      dx2y2   :     0.008890
      dxy     :     0.008751
 19 C s       :     2.899498  s :     2.899498
      pz      :     1.089454  p :     3.145116
      px      :     1.004246
      py      :     1.051416
      dz2     :     0.026987  d :     0.089135
      dxz     :     0.017941
      dyz     :     0.025705
      dx2y2   :     0.006920
      dxy     :     0.011582
 20 C s       :     2.908413  s :     2.908413
      pz      :     1.078651  p :     3.130609
      px      :     1.000136
      py      :     1.051821
      dz2     :     0.025466  d :     0.083773
      dxz     :     0.009186
      dyz     :     0.021226
      dx2y2   :     0.013548
      dxy     :     0.014348
 21 C s       :     2.903655  s :     2.903655
      pz      :     1.081162  p :     3.130743
      px      :     1.000898
      py      :     1.048683
      dz2     :     0.024329  d :     0.086327
      dxz     :     0.016873
      dyz     :     0.029245
      dx2y2   :     0.006667
      dxy     :     0.009213
 22 C s       :     2.869699  s :     2.869699
      pz      :     1.094019  p :     3.150620
      px      :     0.981467
      py      :     1.075133
      dz2     :     0.025110  d :     0.092120
      dxz     :     0.013832
      dyz     :     0.034848
      dx2y2   :     0.011183
      dxy     :     0.007148
 23 H s       :     0.859952  s :     0.859952
 24 H s       :     0.856051  s :     0.856051
 25 H s       :     0.855247  s :     0.855247
 26 H s       :     0.855427  s :     0.855427
 27 H s       :     0.854013  s :     0.854013
 28 C s       :     2.897066  s :     2.897066
      pz      :     0.962972  p :     3.093218
      px      :     1.068475
      py      :     1.061771
      dz2     :     0.035442  d :     0.113291
      dxz     :     0.021780
      dyz     :     0.022283
      dx2y2   :     0.026182
      dxy     :     0.007604
 29 H s       :     0.861764  s :     0.861764
 30 H s       :     0.852085  s :     0.852085
 31 O s       :     3.462962  s :     3.462962
      pz      :     1.454143  p :     4.661619
      px      :     1.584424
      py      :     1.623053
      dz2     :     0.020002  d :     0.056140
      dxz     :     0.013143
      dyz     :     0.012581
      dx2y2   :     0.004784
      dxy     :     0.005630
 32 C s       :     2.809716  s :     2.809716
      pz      :     0.933380  p :     2.731663
      px      :     0.969649
      py      :     0.828634
      dz2     :     0.106763  d :     0.321152
      dxz     :     0.074639
      dyz     :     0.065029
      dx2y2   :     0.037087
      dxy     :     0.037633
 33 O s       :     3.505585  s :     3.505585
      pz      :     1.623978  p :     4.699842
      px      :     1.613334
      py      :     1.462530
      dz2     :     0.009785  d :     0.053462
      dxz     :     0.012864
      dyz     :     0.012352
      dx2y2   :     0.008109
      dxy     :     0.010353
 34 C s       :     2.960572  s :     2.960572
      pz      :     1.135677  p :     3.356424
      px      :     1.088099
      py      :     1.132648
      dz2     :     0.014591  d :     0.063082
      dxz     :     0.016269
      dyz     :     0.004957
      dx2y2   :     0.018905
      dxy     :     0.008359
 35 H s       :     0.853489  s :     0.853489
 36 H s       :     0.848005  s :     0.848005
 37 H s       :     0.856472  s :     0.856472


                      *****************************
                      * MAYER POPULATION ANALYSIS *
                      *****************************

  NA   - Mulliken gross atomic population
  ZA   - Total nuclear charge
  QA   - Mulliken gross atomic charge
  VA   - Mayer's total valence
  BVA  - Mayer's bonded valence
  FA   - Mayer's free valence

  ATOM       NA         ZA         QA         VA         BVA        FA
  0 Pd    17.4537    18.0000     0.5463     2.3423     2.3423    -0.0000
  1 O      8.4944     8.0000    -0.4944     2.1524     2.1524    -0.0000
  2 C      5.3707     6.0000     0.6293     3.9352     3.9352    -0.0000
  3 O      8.4834     8.0000    -0.4834     2.1498     2.1498    -0.0000
  4 C      6.7662     6.0000    -0.7662     3.6868     3.6868     0.0000
  5 H      0.7551     1.0000     0.2449     0.9027     0.9027     0.0000
  6 H      0.7415     1.0000     0.2585     0.8948     0.8948    -0.0000
  7 H      0.7435     1.0000     0.2565     0.8989     0.8989     0.0000
  8 N      7.4808     7.0000    -0.4808     3.1533     3.1533    -0.0000
  9 C      6.5428     6.0000    -0.5428     3.6017     3.6017     0.0000
 10 H      0.7002     1.0000     0.2998     0.8935     0.8935     0.0000
 11 H      0.7816     1.0000     0.2184     0.9070     0.9070     0.0000
 12 H      0.7294     1.0000     0.2706     0.8950     0.8950     0.0000
 13 C      6.5500     6.0000    -0.5500     3.6014     3.6014    -0.0000
 14 H      0.7300     1.0000     0.2700     0.8902     0.8902    -0.0000
 15 H      0.7697     1.0000     0.2303     0.9074     0.9074    -0.0000
 16 H      0.7077     1.0000     0.2923     0.8845     0.8845    -0.0000
 17 C      5.9533     6.0000     0.0467     3.7269     3.7269    -0.0000
 18 C      6.2335     6.0000    -0.2335     3.8234     3.8234    -0.0000
 19 C      6.2043     6.0000    -0.2043     3.8086     3.8086    -0.0000
 20 C      6.2314     6.0000    -0.2314     3.8074     3.8074     0.0000
 21 C      6.2354     6.0000    -0.2354     3.8189     3.8189     0.0000
 22 C      6.2163     6.0000    -0.2163     3.8115     3.8115    -0.0000
 23 H      0.7738     1.0000     0.2262     0.9131     0.9131     0.0000
 24 H      0.7725     1.0000     0.2275     0.9150     0.9150     0.0000
 25 H      0.7737     1.0000     0.2263     0.9164     0.9164    -0.0000
 26 H      0.7667     1.0000     0.2333     0.9094     0.9094    -0.0000
 27 H      0.7534     1.0000     0.2466     0.9013     0.9013     0.0000
 28 C      6.3429     6.0000    -0.3429     3.6121     3.6121    -0.0000
 29 H      0.7540     1.0000     0.2460     0.8964     0.8964     0.0000
 30 H      0.7410     1.0000     0.2590     0.8994     0.8994    -0.0000
 31 O      8.5386     8.0000    -0.5386     2.0862     2.0862    -0.0000
 32 C      5.4294     6.0000     0.5706     4.0334     4.0334     0.0000
 33 O      8.4629     8.0000    -0.4629     2.1238     2.1238     0.0000
 34 C      6.7411     6.0000    -0.7411     3.6947     3.6947    -0.0000
 35 H      0.7657     1.0000     0.2343     0.9053     0.9053     0.0000
 36 H      0.7490     1.0000     0.2510     0.8998     0.8998     0.0000
 37 H      0.7606     1.0000     0.2394     0.9080     0.9080    -0.0000

  Mayer bond orders larger than 0.100000
B(  0-Pd,  1-O ) :   0.6236 B(  0-Pd,  3-O ) :   0.3406 B(  0-Pd,  8-N ) :   0.4102 
B(  0-Pd, 31-O ) :   0.6763 B(  0-Pd, 33-O ) :   0.1115 B(  1-O ,  2-C ) :   1.3368 
B(  2-C ,  3-O ) :   1.6560 B(  2-C ,  4-C ) :   0.9475 B(  4-C ,  5-H ) :   0.9132 
B(  4-C ,  6-H ) :   0.9037 B(  4-C ,  7-H ) :   0.9089 B(  8-N ,  9-C ) :   0.9193 
B(  8-N , 13-C ) :   0.9243 B(  8-N , 28-C ) :   0.8799 B(  9-C , 10-H ) :   0.8810 
B(  9-C , 11-H ) :   0.9037 B(  9-C , 12-H ) :   0.9025 B( 13-C , 14-H ) :   0.8960 
B( 13-C , 15-H ) :   0.9013 B( 13-C , 16-H ) :   0.8942 B( 17-C , 18-C ) :   1.3982 
B( 17-C , 22-C ) :   1.3765 B( 17-C , 28-C ) :   0.9458 B( 18-C , 19-C ) :   1.4125 
B( 18-C , 25-H ) :   0.9131 B( 19-C , 20-C ) :   1.4406 B( 19-C , 26-H ) :   0.9128 
B( 20-C , 21-C ) :   1.3800 B( 20-C , 23-H ) :   0.9179 B( 21-C , 22-C ) :   1.4638 
B( 21-C , 24-H ) :   0.9180 B( 22-C , 27-H ) :   0.9076 B( 28-C , 29-H ) :   0.8934 
B( 28-C , 30-H ) :   0.9132 B( 31-O , 32-C ) :   1.2430 B( 32-C , 33-O ) :   1.8617 
B( 32-C , 34-C ) :   0.9339 B( 34-C , 35-H ) :   0.9137 B( 34-C , 36-H ) :   0.9092 
B( 34-C , 37-H ) :   0.9202 


------------------
HIRSHFELD ANALYSIS
------------------

Total integrated alpha density =     76.999688228
Total integrated beta density  =     76.999688228

  ATOM     CHARGE      SPIN    
   0 Pd   0.624712    0.000000
   1 O   -0.319705    0.000000
   2 C    0.205984    0.000000
   3 O   -0.358295    0.000000
   4 C   -0.072460    0.000000
   5 H    0.043877    0.000000
   6 H    0.051221    0.000000
   7 H    0.045951    0.000000
   8 N   -0.079344    0.000000
   9 C   -0.021124    0.000000
  10 H    0.049074    0.000000
  11 H    0.032909    0.000000
  12 H    0.043674    0.000000
  13 C   -0.027698    0.000000
  14 H    0.039804    0.000000
  15 H    0.036332    0.000000
  16 H    0.049322    0.000000
  17 C   -0.012790    0.000000
  18 C   -0.041912    0.000000
  19 C   -0.042218    0.000000
  20 C   -0.036821    0.000000
  21 C   -0.032002    0.000000
  22 C   -0.040079    0.000000
  23 H    0.045496    0.000000
  24 H    0.052514    0.000000
  25 H    0.045527    0.000000
  26 H    0.054630    0.000000
  27 H    0.040964    0.000000
  28 C    0.007707    0.000000
  29 H    0.036603    0.000000
  30 H    0.042389    0.000000
  31 O   -0.330968    0.000000
  32 C    0.196321    0.000000
  33 O   -0.371308    0.000000
  34 C   -0.079332    0.000000
  35 H    0.039063    0.000000
  36 H    0.043388    0.000000
  37 H    0.039219    0.000000

  TOTAL   0.000624    0.000000

-------
TIMINGS
-------

Total SCF time: 0 days 0 hours 16 min 2 sec 

Total time                  ....     962.799 sec
Sum of individual times     ....     959.668 sec  ( 99.7%)

Fock matrix formation       ....     951.727 sec  ( 98.9%)
  Split-RI-J                ....     149.491 sec  ( 15.7% of F)
  Chain of spheres X        ....     725.062 sec  ( 76.2% of F)
  XC integration            ....      77.088 sec  (  8.1% of F)
    Basis function eval.    ....      25.732 sec  ( 33.4% of XC)
    Density eval.           ....      19.343 sec  ( 25.1% of XC)
    XC-Functional eval.     ....       3.138 sec  (  4.1% of XC)
    XC-Potential eval.      ....      23.803 sec  ( 30.9% of XC)
Diagonalization             ....       0.405 sec  (  0.0%)
Density matrix formation    ....       0.098 sec  (  0.0%)
Population analysis         ....       1.180 sec  (  0.1%)
Initial guess               ....       0.054 sec  (  0.0%)
Orbital Transformation      ....       0.459 sec  (  0.0%)
Orbital Orthonormalization  ....       0.000 sec  (  0.0%)
DIIS solution               ....       0.131 sec  (  0.0%)
Grid generation             ....       5.612 sec  (  0.6%)

Maximum memory used throughout the entire SCF-calculation: 154.6 MB


-------------------------------------------------------------------------------
                          DFT DISPERSION CORRECTION                            
                                                                               
                              DFTD3 V3.1  Rev 1                                
                          USING Becke-Johnson damping                          
-------------------------------------------------------------------------------
The PBEh-3c composite method is recognized
Using three-body term ABC
Active option DFTDOPT                   ...         4   

molecular C6(AA) [au] = 16490.734543 


            DFT-D V3
 parameters
 s6 scaling factor         :     1.0000 
 a1 scaling factor         :     0.4860 
 s8 scaling factor         :     0.0000 
 a2 scaling factor         :     4.5000 
 Damping factor alpha9(ATM):    16.0000 
 ad hoc parameters k1-k3   :    16.0000     1.3333    -4.0000 

 Edisp/kcal,au: -16.353493369231  -0.026060947764 
 E6   /kcal   : -16.561500220 
 E8   /kcal   :  -0.000000000 
 E6(ABC)      :   0.208006850 
 % E8         :   0.000000000 
 % E6(ABC)    :  -1.271941387 

-------------------------   ----------------
Dispersion correction           -0.026060948
-------------------------   ----------------

 ** NOTE ** -> element pd will be treated as ni
------------------   -----------------
gCP correction             0.074208054
------------------   -----------------

-------------------------   --------------------
FINAL SINGLE POINT ENERGY      -988.504459903696
-------------------------   --------------------

------------------------------------------------------------------------------
                         ORCA SCF GRADIENT CALCULATION
------------------------------------------------------------------------------

 ... reading COSX grid (gridx3)
Gradient of the Kohn-Sham DFT energy:
Kohn-Sham wavefunction type      ... RKS
Hartree-Fock exchange scaling    ...    0.420
Number of operators              ...    1
Number of atoms                  ...   38
Basis set dimensions             ...  339
Integral neglect threshold       ... 2.5e-11
Integral primitive cutoff        ... 2.5e-12
SHARK Integral package           ... ON

Nuc. rep. gradient       (SHARK) ... done (  0.0 sec)
HCore & Overlap gradient (SHARK) ... done (  1.4 sec)
ECP gradient             (SHARK) ... done (  2.2 sec)
RI-J gradient            (SHARK) ... done (  6.4 sec)
COSX-gradient                    ... done ( 57.4 sec)
Exchange-correlation gradient    ... done
Dispersion correction            ... done
gCP correction                   ... done

------------------
CARTESIAN GRADIENT
------------------

   1   Pd  :   -0.015329593   -0.012799926   -0.008157619
   2   O   :    0.009788373    0.002720243    0.013136834
   3   C   :   -0.014887021    0.015417264   -0.008649386
   4   O   :    0.016625922   -0.003650689    0.000388800
   5   C   :    0.005543283    0.002756582    0.001329472
   6   H   :    0.003521816   -0.000659568   -0.000851337
   7   H   :   -0.001372011   -0.002387675    0.005784600
   8   H   :    0.000633337    0.002025238   -0.002338053
   9   N   :    0.010226062   -0.000258574    0.005909988
  10   C   :    0.001468327    0.000112780    0.003583046
  11   H   :    0.000096485   -0.002636164   -0.002325268
  12   H   :   -0.003687475   -0.005670598   -0.004871874
  13   H   :   -0.006084042    0.003557089   -0.005066428
  14   C   :    0.002861935   -0.002872071    0.007242577
  15   H   :   -0.000640102   -0.007646090   -0.005109455
  16   H   :   -0.005663236    0.001777776   -0.001246643
  17   H   :   -0.002696338   -0.003812843    0.001654930
  18   C   :   -0.027559291    0.031944395   -0.004254321
  19   C   :    0.013243473   -0.004518585    0.003993427
  20   C   :   -0.006111817   -0.015767285    0.001437802
  21   C   :    0.010150699   -0.000158899   -0.003086611
  22   C   :   -0.029662488    0.003720379   -0.036985088
  23   C   :   -0.009381324    0.102098906   -0.032115971
  24   H   :    0.006466582   -0.010249643    0.011827515
  25   H   :   -0.012095632    0.017952951    0.011898495
  26   H   :    0.004990701   -0.013984191   -0.005161243
  27   H   :    0.015181575   -0.011724956    0.003712306
  28   H   :    0.032347375   -0.079043808    0.047441021
  29   C   :   -0.001130982   -0.006256917    0.009731967
  30   H   :   -0.004232614   -0.001723530   -0.001252873
  31   H   :   -0.001891455   -0.004118845   -0.006427706
  32   O   :    0.001860080    0.007676888    0.001727350
  33   C   :    0.011747758   -0.006362830   -0.000799881
  34   O   :   -0.007231037    0.003158600   -0.002884811
  35   C   :    0.004548610   -0.000789395    0.003887188
  36   H   :   -0.000757539    0.004307972    0.001497795
  37   H   :   -0.001512069   -0.002721496   -0.001636111
  38   H   :   -0.000428029    0.001979183   -0.003442174

Difference to translation invariance:
           :   -0.0010517011    0.0013916687   -0.0004777416

Difference to rotation invariance:
           :   -0.0005068202    0.0015119174    0.0042676626

Norm of the cartesian gradient     ...    0.1735047236
RMS gradient                       ...    0.0162502062
MAX gradient                       ...    0.1020989061

-------
TIMINGS
-------

Total SCF gradient time            ...       78.579 sec

One electron gradient       ....       3.523 sec  (  4.5%)
RI-J Coulomb gradient       ....       6.445 sec  (  8.2%)
COSX gradient               ....      57.407 sec  ( 73.1%)
XC gradient                 ....       9.750 sec  ( 12.4%)

Maximum memory used throughout the entire SCFGRAD-calculation: 122.6 MB

                            ***************************************
                            *     ORCA property calculations      *
                            ***************************************

                                    ---------------------
                                    Active property flags
                                    ---------------------
   (+) Dipole Moment


------------------------------------------------------------------------------
                       ORCA ELECTRIC PROPERTIES CALCULATION
------------------------------------------------------------------------------

Dipole Moment Calculation                       ... on
Quadrupole Moment Calculation                   ... off
Polarizability Calculation                      ... off
GBWName                                         ... 3_16_orca.gbw
Electron density                                ... 3_16_orca.scfp
The origin for moment calculation is the CENTER OF MASS  = ( 0.476595,  0.329416 -0.156903)

-------------
DIPOLE MOMENT
-------------
                                X             Y             Z
Electronic contribution:     23.48007      17.56504     -24.00334
Nuclear contribution   :    -25.19953     -18.27168      24.79138
                        -----------------------------------------
Total Dipole Moment    :     -1.71946      -0.70664       0.78804
                        -----------------------------------------
Magnitude (a.u.)       :      2.01914
Magnitude (Debye)      :      5.13224



--------------------
Rotational spectrum 
--------------------
 
Rotational constants in cm-1:     0.013920     0.008377     0.006924 
Rotational constants in MHz :   417.306923   251.135930   207.583011 

 Dipole components along the rotational axes: 
x,y,z [a.u.] :     1.768013     0.889197    -0.400460 
x,y,z [Debye]:     4.493932     2.260159    -1.017887 

 

Timings for individual modules:

Sum of individual times         ...     1042.421 sec (=  17.374 min)
GTO integral calculation        ...        0.982 sec (=   0.016 min)   0.1 %
SCF iterations                  ...      962.828 sec (=  16.047 min)  92.4 %
SCF Gradient evaluation         ...       78.612 sec (=   1.310 min)   7.5 %
                             ****ORCA TERMINATED NORMALLY****
TOTAL RUN TIME: 0 days 0 hours 17 minutes 22 seconds 898 msec
