
                                 *****************
                                 * O   R   C   A *
                                 *****************

                                            #,                                       
                                            ###                                      
                                            ####                                     
                                            #####                                    
                                            ######                                   
                                           ########,                                 
                                     ,,################,,,,,                         
                               ,,#################################,,                 
                          ,,##########################################,,             
                       ,#########################################, ''#####,          
                    ,#############################################,,   '####,        
                  ,##################################################,,,,####,       
                ,###########''''           ''''###############################       
              ,#####''   ,,,,##########,,,,          '''####'''          '####       
            ,##' ,,,,###########################,,,                        '##       
           ' ,,###''''                  '''############,,,                           
         ,,##''                                '''############,,,,        ,,,,,,###''
      ,#''                                            '''#######################'''  
     '                                                          ''''####''''         
             ,#######,   #######,   ,#######,      ##                                
            ,#'     '#,  ##    ##  ,#'     '#,    #''#        ######   ,####,        
            ##       ##  ##   ,#'  ##            #'  '#       #        #'  '#        
            ##       ##  #######   ##           ,######,      #####,   #    #        
            '#,     ,#'  ##    ##  '#,     ,#' ,#      #,         ##   #,  ,#        
             '#######'   ##     ##  '#######'  #'      '#     #####' # '####'        



                  #######################################################
                  #                        -***-                        #
                  #          Department of theory and spectroscopy      #
                  #    Directorship and core code : Frank Neese         #
                  #        Max Planck Institute fuer Kohlenforschung    #
                  #                Kaiser Wilhelm Platz 1               #
                  #                 D-45470 Muelheim/Ruhr               #
                  #                      Germany                        #
                  #                                                     #
                  #                  All rights reserved                #
                  #                        -***-                        #
                  #######################################################


                         Program Version 5.0.3 -  RELEASE  -


 With contributions from (in alphabetic order):
   Daniel Aravena         : Magnetic Suceptibility
   Michael Atanasov       : Ab Initio Ligand Field Theory (pilot matlab implementation)
   Alexander A. Auer      : GIAO ZORA, VPT2 properties, NMR spectrum
   Ute Becker             : Parallelization
   Giovanni Bistoni       : ED, misc. LED, open-shell LED, HFLD
   Martin Brehm           : Molecular dynamics
   Dmytro Bykov           : SCF Hessian
   Vijay G. Chilkuri      : MRCI spin determinant printing, contributions to CSF-ICE
   Dipayan Datta          : RHF DLPNO-CCSD density
   Achintya Kumar Dutta   : EOM-CC, STEOM-CC
   Dmitry Ganyushin       : Spin-Orbit,Spin-Spin,Magnetic field MRCI
   Miquel Garcia          : C-PCM and meta-GGA Hessian, CC/C-PCM, Gaussian charge scheme
   Yang Guo               : DLPNO-NEVPT2, F12-NEVPT2, CIM, IAO-localization
   Andreas Hansen         : Spin unrestricted coupled pair/coupled cluster methods
   Benjamin Helmich-Paris : MC-RPA, TRAH-SCF, COSX integrals
   Lee Huntington         : MR-EOM, pCC
   Robert Izsak           : Overlap fitted RIJCOSX, COSX-SCS-MP3, EOM
   Marcus Kettner         : VPT2
   Christian Kollmar      : KDIIS, OOCD, Brueckner-CCSD(T), CCSD density, CASPT2, CASPT2-K
   Simone Kossmann        : Meta GGA functionals, TD-DFT gradient, OOMP2, MP2 Hessian
   Martin Krupicka        : Initial AUTO-CI
   Lucas Lang             : DCDCAS
   Marvin Lechner         : AUTO-CI (C++ implementation), FIC-MRCC
   Dagmar Lenk            : GEPOL surface, SMD
   Dimitrios Liakos       : Extrapolation schemes; Compound Job, initial MDCI parallelization
   Dimitrios Manganas     : Further ROCIS development; embedding schemes
   Dimitrios Pantazis     : SARC Basis sets
   Anastasios Papadopoulos: AUTO-CI, single reference methods and gradients
   Taras Petrenko         : DFT Hessian,TD-DFT gradient, ASA, ECA, R-Raman, ABS, FL, XAS/XES, NRVS
   Peter Pinski           : DLPNO-MP2, DLPNO-MP2 Gradient
   Christoph Reimann      : Effective Core Potentials
   Marius Retegan         : Local ZFS, SOC
   Christoph Riplinger    : Optimizer, TS searches, QM/MM, DLPNO-CCSD(T), (RO)-DLPNO pert. Triples
   Tobias Risthaus        : Range-separated hybrids, TD-DFT gradient, RPA, STAB
   Michael Roemelt        : Original ROCIS implementation
   Masaaki Saitow         : Open-shell DLPNO-CCSD energy and density
   Barbara Sandhoefer     : DKH picture change effects
   Avijit Sen             : IP-ROCIS
   Kantharuban Sivalingam : CASSCF convergence, NEVPT2, FIC-MRCI
   Bernardo de Souza      : ESD, SOC TD-DFT
   Georgi Stoychev        : AutoAux, RI-MP2 NMR, DLPNO-MP2 response
   Willem Van den Heuvel  : Paramagnetic NMR
   Boris Wezisla          : Elementary symmetry handling
   Frank Wennmohs         : Technical directorship


 We gratefully acknowledge several colleagues who have allowed us to
 interface, adapt or use parts of their codes:
   Stefan Grimme, W. Hujo, H. Kruse, P. Pracht,  : VdW corrections, initial TS optimization,
                  C. Bannwarth, S. Ehlert          DFT functionals, gCP, sTDA/sTD-DF
   Ed Valeev, F. Pavosevic, A. Kumar             : LibInt (2-el integral package), F12 methods
   Garnet Chan, S. Sharma, J. Yang, R. Olivares  : DMRG
   Ulf Ekstrom                                   : XCFun DFT Library
   Mihaly Kallay                                 : mrcc  (arbitrary order and MRCC methods)
   Jiri Pittner, Ondrej Demel                    : Mk-CCSD
   Frank Weinhold                                : gennbo (NPA and NBO analysis)
   Christopher J. Cramer and Donald G. Truhlar   : smd solvation model
   Lars Goerigk                                  : TD-DFT with DH, B97 family of functionals
   V. Asgeirsson, H. Jonsson                     : NEB implementation
   FAccTs GmbH                                   : IRC, NEB, NEB-TS, DLPNO-Multilevel, CI-OPT
                                                   MM, QMMM, 2- and 3-layer-ONIOM, Crystal-QMMM,
                                                   LR-CPCM, SF, NACMEs, symmetry and pop. for TD-DFT,
                                                   nearIR, NL-DFT gradient (VV10), updates on ESD,
                                                   ML-optimized integration grids
   S Lehtola, MJT Oliveira, MAL Marques          : LibXC Library
   Liviu Ungur et al                             : ANISO software


 Your calculation uses the libint2 library for the computation of 2-el integrals
 For citations please refer to: http://libint.valeyev.net

 Your ORCA version has been built with support for libXC version: 5.1.0
 For citations please refer to: https://tddft.org/programs/libxc/

 This ORCA versions uses:
   CBLAS   interface :  Fast vector & matrix operations
   LAPACKE interface :  Fast linear algebra routines
   SCALAPACK package :  Parallel linear algebra routines
   Shared memory     :  Shared parallel matrices
   BLAS/LAPACK       :  OpenBLAS 0.3.15  USE64BITINT DYNAMIC_ARCH NO_AFFINITY SkylakeX SINGLE_THREADED
        Core in use  :  SkylakeX
   Copyright (c) 2011-2014, The OpenBLAS Project


Your calculation utilizes the geometrical counterpoise correction gCP
Please cite in your paper:
H.Kruse, S. Grimme J.Chem.Phys., 136, (2012), 154101 
   

Your calculation utilizes the atom-pairwise dispersion correction
with the Becke-Johnson damping scheme (D3BJ)
Cite in your paper:
S.Grimme, S.Ehrlich, L.Goerigk, J Comput Chem, (2011), 32, 1456–1465 
S.Grimme, J.Antony, S.Ehrlich and H.Krieg, J.Chem.Phys., 132, (2010), 154104 
   

Your calculation employs the composite approach PBEh-3c.
Please cite in your paper:
S. Grimme, J. G. Brandenburg, C. Bannwarth, A. Hansen J.Chem.Phys., 143, (2015), 054107 
   

================================================================================

cite the ECPs for Pd [Def2-ECP] as follows:
Ce-Yb(ecp-28): M. Dolg, H. Stoll, H.Preuss, J. Chem. Phys., 1989, 90, 1730-1734.
Y-Cd(ecp-28), Hf-Hg(ecp-46): D. Andrae,U. Haeussermann, M. Dolg, H. Stoll, H. Preuss, Theor. Chim. Acta, 1990, 77, 123-141.
In-Sb(ecp-28), Tl-Bi(ecp-46): B. Metz, H. Stoll, M. Dolg, J. Chem. Phys., 2000, 113, 2563-2569.
Te-Xe(ecp-28), Po-Rn(ecp-46): K. A. Peterson, D. Figgen, E. Goll, H. Stoll, M. Dolg, J. Chem. Phys., 2003, 119, 11113-11123.
Rb(ecp-28), Cs(ecp-46): T. Leininger, A. Nicklass, W. Kuechle, H. Stoll, M. Dolg, A. Bergner, Chem. Phys. Lett., 1996, 255, 274-280.
Sr(ecp-28), Ba(ecp-46): M. Kaupp, P. V. Schleyer, H. Stoll and H. Preuss, J. Chem. Phys., 1991, 94, 1360-1366.
La(ecp-46): M. Dolg, H. Stoll, A. Savin, H. Preuss, Theor. Chim. Acta, 1989, 75, 173-194.
Lu(ecp-28): X. Cao, M. Dolg, J. Chem. Phys., 2001, 115, 7348-7355.

ECP parameters for Pd [Def2-ECP] have been obtained from:
TURBOMOLE (7.0.2)

----- Orbital basis set information -----
Your calculation utilizes the basis: def2-mSVP

----- AuxJ basis set information -----
Your calculation utilizes the auxiliary basis: def2/J
   F. Weigend, Phys. Chem. Chem. Phys. 8, 1057 (2006).

================================================================================
                                        WARNINGS
                       Please study these warnings very carefully!
================================================================================


INFO   : the flag for use of the SHARK integral package has been found!

================================================================================
                                       INPUT FILE
================================================================================
NAME = 3_30_orca.inp
|  1> ! EnGrad PBEh-3c
|  2> %output 
|  3> xyzfile=True 
|  4> end 
|  5> %scf 
|  6> maxiter 250 
|  7> end
|  8> %output
|  9> Print[P_Hirshfeld] = 1
| 10> end
| 11> % maxcore
| 12> 4000
| 13> *xyz 0 1
| 14> Pd   0.54846055   0.40438106  -0.50468826 
| 15> O    2.16077931   1.34665098   0.13814199 
| 16> C    1.61451222   2.48318116   0.28946082 
| 17> O    0.37726479   2.55883106   0.14241006 
| 18> C    2.51797175   3.64883629   0.56669054 
| 19> H    2.01027484   4.50224112   1.00616159 
| 20> H    2.98092482   3.96017672  -0.36977994 
| 21> H    3.33010583   3.32637158   1.21061209 
| 22> N   -1.27290136  -0.47229733  -1.11761748 
| 23> C   -1.16342628  -1.45743469  -2.21804360 
| 24> H   -0.73260610  -0.99784425  -3.10470719 
| 25> H   -2.16233554  -1.84783330  -2.45024614 
| 26> H   -0.53463560  -2.28591480  -1.90237240 
| 27> C   -2.14236810   0.62174695  -1.58548651 
| 28> H   -2.29888405   1.35277448  -0.79401250 
| 29> H   -3.12188390   0.22687329  -1.88409154 
| 30> H   -1.68728702   1.11811005  -2.43936933 
| 31> C   -1.49777393  -0.84265328   1.43767008 
| 32> C   -0.93137762  -1.88321102   2.17986721 
| 33> C   -0.77750874  -1.79133505   3.54287359 
| 34> C   -1.21718698  -0.63790698   4.17781560 
| 35> C   -1.69805762   0.44045854   3.46772075 
| 36> C   -1.83203875   0.32908565   2.10739082 
| 37> H   -1.16980229  -0.56983118   5.23689534 
| 38> H   -2.01635369   1.34366317   3.99135657 
| 39> H   -0.66041889  -2.78349700   1.64792272 
| 40> H   -0.36058322  -2.63606631   4.07678844 
| 41> H   -2.22983441   1.14617396   1.58450848 
| 42> C   -1.93714363  -1.17282814   0.03220514 
| 43> H   -3.02930699  -1.03842256  -0.08716356 
| 44> H   -1.77545658  -2.24283461  -0.13451935 
| 45> O    1.73695142  -1.00272572  -1.25502112 
| 46> C    2.18213996  -0.60382226  -2.41380267 
| 47> O    1.57681630   0.13870854  -3.15468732 
| 48> C    3.56535281  -1.10232378  -2.78448238 
| 49> H    3.61234155  -2.18721201  -2.80902843 
| 50> H    4.28750495  -0.77648174  -2.03959380 
| 51> H    3.85005849  -0.70263207  -3.75481368 
| 52> *
| 53> 
| 54>                          ****END OF INPUT****
================================================================================

                     *******************************
                     * Energy+Gradient Calculation *
                     *******************************

---------------------------------
CARTESIAN COORDINATES (ANGSTROEM)
---------------------------------
  Pd     0.548461    0.404381   -0.504688
  O      2.160779    1.346651    0.138142
  C      1.614512    2.483181    0.289461
  O      0.377265    2.558831    0.142410
  C      2.517972    3.648836    0.566691
  H      2.010275    4.502241    1.006162
  H      2.980925    3.960177   -0.369780
  H      3.330106    3.326372    1.210612
  N     -1.272901   -0.472297   -1.117617
  C     -1.163426   -1.457435   -2.218044
  H     -0.732606   -0.997844   -3.104707
  H     -2.162336   -1.847833   -2.450246
  H     -0.534636   -2.285915   -1.902372
  C     -2.142368    0.621747   -1.585487
  H     -2.298884    1.352774   -0.794012
  H     -3.121884    0.226873   -1.884092
  H     -1.687287    1.118110   -2.439369
  C     -1.497774   -0.842653    1.437670
  C     -0.931378   -1.883211    2.179867
  C     -0.777509   -1.791335    3.542874
  C     -1.217187   -0.637907    4.177816
  C     -1.698058    0.440459    3.467721
  C     -1.832039    0.329086    2.107391
  H     -1.169802   -0.569831    5.236895
  H     -2.016354    1.343663    3.991357
  H     -0.660419   -2.783497    1.647923
  H     -0.360583   -2.636066    4.076788
  H     -2.229834    1.146174    1.584508
  C     -1.937144   -1.172828    0.032205
  H     -3.029307   -1.038423   -0.087164
  H     -1.775457   -2.242835   -0.134519
  O      1.736951   -1.002726   -1.255021
  C      2.182140   -0.603822   -2.413803
  O      1.576816    0.138709   -3.154687
  C      3.565353   -1.102324   -2.784482
  H      3.612342   -2.187212   -2.809028
  H      4.287505   -0.776482   -2.039594
  H      3.850058   -0.702632   -3.754814

----------------------------
CARTESIAN COORDINATES (A.U.)
----------------------------
  NO LB      ZA    FRAG     MASS         X           Y           Z
   0 Pd   18.0000*   0   106.400    1.036440    0.764169   -0.953723
   1 O     8.0000    0    15.999    4.083281    2.544802    0.261051
   2 C     6.0000    0    12.011    3.050986    4.692532    0.547002
   3 O     8.0000    0    15.999    0.712927    4.835490    0.269116
   4 C     6.0000    0    12.011    4.758277    6.895301    1.070890
   5 H     1.0000    0     1.008    3.798869    8.508003    1.901370
   6 H     1.0000    0     1.008    5.633132    7.483649   -0.698783
   7 H     1.0000    0     1.008    6.292988    6.285931    2.287725
   8 N     7.0000    0    14.007   -2.405435   -0.892513   -2.111991
   9 C     6.0000    0    12.011   -2.198557   -2.754152   -4.191495
  10 H     1.0000    0     1.008   -1.384425   -1.885652   -5.867046
  11 H     1.0000    0     1.008   -4.086222   -3.491899   -4.630294
  12 H     1.0000    0     1.008   -1.010315   -4.319753   -3.594963
  13 C     6.0000    0    12.011   -4.048489    1.174931   -2.996135
  14 H     1.0000    0     1.008   -4.344261    2.556373   -1.500466
  15 H     1.0000    0     1.008   -5.899506    0.428728   -3.560417
  16 H     1.0000    0     1.008   -3.188510    2.112922   -4.609740
  17 C     6.0000    0    12.011   -2.830383   -1.592384    2.716803
  18 C     6.0000    0    12.011   -1.760049   -3.558753    4.119352
  19 C     6.0000    0    12.011   -1.469279   -3.385133    6.695061
  20 C     6.0000    0    12.011   -2.300150   -1.205469    7.894927
  21 C     6.0000    0    12.011   -3.208864    0.832346    6.553043
  22 C     6.0000    0    12.011   -3.462052    0.621882    3.982392
  23 H     1.0000    0     1.008   -2.210606   -1.076825    9.896298
  24 H     1.0000    0     1.008   -3.810356    2.539155    7.542571
  25 H     1.0000    0     1.008   -1.248011   -5.260047    3.114123
  26 H     1.0000    0     1.008   -0.681404   -4.981443    7.704014
  27 H     1.0000    0     1.008   -4.213776    2.165955    2.994287
  28 C     6.0000    0    12.011   -3.660671   -2.216324    0.060859
  29 H     1.0000    0     1.008   -5.724561   -1.962334   -0.164715
  30 H     1.0000    0     1.008   -3.355127   -4.238343   -0.254205
  31 O     8.0000    0    15.999    3.282362   -1.894877   -2.371646
  32 C     6.0000    0    12.011    4.123647   -1.141059   -4.561426
  33 O     8.0000    0    15.999    2.979751    0.262121   -5.961495
  34 C     6.0000    0    12.011    6.737540   -2.083090   -5.261909
  35 H     1.0000    0     1.008    6.826336   -4.133232   -5.308294
  36 H     1.0000    0     1.008    8.102210   -1.467338   -3.854274
  37 H     1.0000    0     1.008    7.275556   -1.327782   -7.095570
* core charge reduced due to ECP

--------------------------------
INTERNAL COORDINATES (ANGSTROEM)
--------------------------------
 Pd     0   0   0     0.000000000000     0.00000000     0.00000000
 O      1   0   0     1.975012687630     0.00000000     0.00000000
 C      2   1   0     1.270041720567    96.58002780     0.00000000
 O      3   2   1     1.248249989557   117.80890183     7.04311858
 C      3   2   1     1.500615647691   117.26980555   189.94930358
 H      5   3   2     1.085905502371   113.81301547   199.27676879
 H      5   3   2     1.090062093776   108.59317239    77.97439412
 H      5   3   2     1.085440102284   109.22587024   322.72641819
 N      1   2   3     2.112251508562   175.13485162   339.80959569
 C      9   1   2     1.481019262801   115.33730071   160.92297503
 H     10   9   1     1.087658826042   110.72735727   300.72106498
 H     10   9   1     1.097337142352   109.06176926   179.81964802
 H     10   9   1     1.086924706882   109.51068782    61.25592536
 C      9   1   2     1.473705102047   107.02221478    41.32769996
 H     14   9   1     1.088728432956   110.63961339   301.59898621
 H     14   9   1     1.097516001593   110.23264321   182.05515252
 H     14   9   1     1.087469993474   109.95228787    61.97293438
 C      9   1   2     2.591761122621    81.25888489   291.31623050
 C     18   9   1     1.398006355506   126.48655220   277.52845168
 C     19  18   9     1.374737508769   121.46442138   160.86035608
 C     20  19  18     1.388115493558   118.26759743     0.84473128
 C     21  20  19     1.377803855103   121.67835130   354.80688579
 C     22  21  20     1.371441716690   118.79928004     4.71307269
 H     21  20  19     1.062322700064   119.67871983   175.87569851
 H     22  21  20     1.091460243810   120.14545524   181.37889303
 H     19  18   9     1.080230725164   117.42061060   338.06771439
 H     20  19  18     1.082803240621   118.67474065   178.19021106
 H     23  22  21     1.048465848246   117.93369696   177.95648791
 C      9   1   2     1.501350480893   110.66631870   282.46788418
 H     29   9   1     1.106857963517   107.29569742   144.44713664
 H     29   9   1     1.094921733982   105.90429773   255.47113798
 O      1   2   3     1.988833688168    88.42422797   160.88067135
 C     32   1   2     1.303875564296   108.83683246   277.68723977
 O     33  32   1     1.211065145609   124.09761497   330.58183880
 C     33  32   1     1.516306367873   115.34985098   148.81545651
 H     35  33  32     1.086182729493   111.92276088    59.09720489
 H     35  33  32     1.087444593969   109.86640190   300.85095028
 H     35  33  32     1.087360850420   109.64281559   180.95520686

---------------------------
INTERNAL COORDINATES (A.U.)
---------------------------
 Pd     0   0   0     0.000000000000     0.00000000     0.00000000
 O      1   0   0     3.732233090641     0.00000000     0.00000000
 C      2   1   0     2.400031030526    96.58002780     0.00000000
 O      3   2   1     2.358850626932   117.80890183     7.04311858
 C      3   2   1     2.835752606412   117.26980555   189.94930358
 H      5   3   2     2.052064006799   113.81301547   199.27676879
 H      5   3   2     2.059918826205   108.59317239    77.97439412
 H      5   3   2     2.051184528093   109.22587024   322.72641819
 N      1   2   3     3.991576877144   175.13485162   339.80959569
 C      9   1   2     2.798720805755   115.33730071   160.92297503
 H     10   9   1     2.055377308361   110.72735727   300.72106498
 H     10   9   1     2.073666675626   109.06176926   179.81964802
 H     10   9   1     2.053990024199   109.51068782    61.25592536
 C      9   1   2     2.784899045032   107.02221478    41.32769996
 H     14   9   1     2.057398572501   110.63961339   301.59898621
 H     14   9   1     2.074004670607   110.23264321   182.05515252
 H     14   9   1     2.055020466523   109.95228787    61.97293438
 C      9   1   2     4.897718726298    81.25888489   291.31623050
 C     18   9   1     2.641849145388   126.48655220   277.52845168
 C     19  18   9     2.597877397603   121.46442138   160.86035608
 C     20  19  18     2.623158125078   118.26759743     0.84473128
 C     21  20  19     2.603671952405   121.67835130   354.80688579
 C     22  21  20     2.591649253178   118.79928004     4.71307269
 H     21  20  19     2.007498968968   119.67871983   175.87569851
 H     22  21  20     2.062560946864   120.14545524   181.37889303
 H     19  18   9     2.041340232008   117.42061060   338.06771439
 H     20  19  18     2.046201581696   118.67474065   178.19021106
 H     23  22  21     1.981313313954   117.93369696   177.95648791
 C      9   1   2     2.837141239919   110.66631870   282.46788418
 H     29   9   1     2.091658420197   107.29569742   144.44713664
 H     29   9   1     2.069102215303   105.90429773   255.47113798
 O      1   2   3     3.758350996554    88.42422797   160.88067135
 C     32   1   2     2.463967729231   108.83683246   277.68723977
 O     33  32   1     2.288581455539   124.09761497   330.58183880
 C     33  32   1     2.865403770401   115.34985098   148.81545651
 H     35  33  32     2.052587890138   111.92276088    59.09720489
 H     35  33  32     2.054972468415   109.86640190   300.85095028
 H     35  33  32     2.054814216042   109.64281559   180.95520686

---------------------
BASIS SET INFORMATION
---------------------
There are 5 groups of distinct atoms

 Group   1 Type Pd  : 7s6p5d1f contracted to 5s3p2d1f pattern {31111/411/41/1}
 Group   2 Type O   : 8s4p1d contracted to 4s2p1d pattern {5111/31/1}
 Group   3 Type C   : 8s4p1d contracted to 4s2p1d pattern {5111/31/1}
 Group   4 Type H   : 4s contracted to 2s pattern {31}
 Group   5 Type N   : 8s4p1d contracted to 4s2p1d pattern {5111/31/1}

Atom   0Pd   basis set group =>   1
Atom   1O    basis set group =>   2
Atom   2C    basis set group =>   3
Atom   3O    basis set group =>   2
Atom   4C    basis set group =>   3
Atom   5H    basis set group =>   4
Atom   6H    basis set group =>   4
Atom   7H    basis set group =>   4
Atom   8N    basis set group =>   5
Atom   9C    basis set group =>   3
Atom  10H    basis set group =>   4
Atom  11H    basis set group =>   4
Atom  12H    basis set group =>   4
Atom  13C    basis set group =>   3
Atom  14H    basis set group =>   4
Atom  15H    basis set group =>   4
Atom  16H    basis set group =>   4
Atom  17C    basis set group =>   3
Atom  18C    basis set group =>   3
Atom  19C    basis set group =>   3
Atom  20C    basis set group =>   3
Atom  21C    basis set group =>   3
Atom  22C    basis set group =>   3
Atom  23H    basis set group =>   4
Atom  24H    basis set group =>   4
Atom  25H    basis set group =>   4
Atom  26H    basis set group =>   4
Atom  27H    basis set group =>   4
Atom  28C    basis set group =>   3
Atom  29H    basis set group =>   4
Atom  30H    basis set group =>   4
Atom  31O    basis set group =>   2
Atom  32C    basis set group =>   3
Atom  33O    basis set group =>   2
Atom  34C    basis set group =>   3
Atom  35H    basis set group =>   4
Atom  36H    basis set group =>   4
Atom  37H    basis set group =>   4
---------------------------------
AUXILIARY/J BASIS SET INFORMATION
---------------------------------
There are 5 groups of distinct atoms

 Group   1 Type Pd  : 11s5p5d3f3g contracted to 8s5p5d2f3g pattern {41111111/11111/11111/21/111}
 Group   2 Type O   : 12s5p4d2f1g contracted to 6s4p3d1f1g pattern {711111/2111/211/2/1}
 Group   3 Type C   : 12s5p4d2f1g contracted to 6s4p3d1f1g pattern {711111/2111/211/2/1}
 Group   4 Type H   : 5s2p1d contracted to 3s1p1d pattern {311/2/1}
 Group   5 Type N   : 12s5p4d2f1g contracted to 6s4p3d1f1g pattern {711111/2111/211/2/1}

Atom   0Pd   basis set group =>   1
Atom   1O    basis set group =>   2
Atom   2C    basis set group =>   3
Atom   3O    basis set group =>   2
Atom   4C    basis set group =>   3
Atom   5H    basis set group =>   4
Atom   6H    basis set group =>   4
Atom   7H    basis set group =>   4
Atom   8N    basis set group =>   5
Atom   9C    basis set group =>   3
Atom  10H    basis set group =>   4
Atom  11H    basis set group =>   4
Atom  12H    basis set group =>   4
Atom  13C    basis set group =>   3
Atom  14H    basis set group =>   4
Atom  15H    basis set group =>   4
Atom  16H    basis set group =>   4
Atom  17C    basis set group =>   3
Atom  18C    basis set group =>   3
Atom  19C    basis set group =>   3
Atom  20C    basis set group =>   3
Atom  21C    basis set group =>   3
Atom  22C    basis set group =>   3
Atom  23H    basis set group =>   4
Atom  24H    basis set group =>   4
Atom  25H    basis set group =>   4
Atom  26H    basis set group =>   4
Atom  27H    basis set group =>   4
Atom  28C    basis set group =>   3
Atom  29H    basis set group =>   4
Atom  30H    basis set group =>   4
Atom  31O    basis set group =>   2
Atom  32C    basis set group =>   3
Atom  33O    basis set group =>   2
Atom  34C    basis set group =>   3
Atom  35H    basis set group =>   4
Atom  36H    basis set group =>   4
Atom  37H    basis set group =>   4
-------------------------
ECP PARAMETER INFORMATION
-------------------------

 Group 1, Type Pd ECP Def2-ECP (replacing 28 core electrons, lmax=3)

Atom   0Pd   ECP group =>   1

------------------------------------------------------------------------------
                           ORCA GTO INTEGRAL CALCULATION
                           -- RI-GTO INTEGRALS CHOSEN --
------------------------------------------------------------------------------
------------------------------------------------------------------------------
                   ___                                                        
                  /   \      - P O W E R E D   B Y -                         
                 /     \                                                     
                 |  |  |   _    _      __       _____    __    __             
                 |  |  |  | |  | |    /  \     |  _  \  |  |  /  |          
                  \  \/   | |  | |   /    \    | | | |  |  | /  /          
                 / \  \   | |__| |  /  /\  \   | |_| |  |  |/  /          
                |  |  |   |  __  | /  /__\  \  |    /   |      \           
                |  |  |   | |  | | |   __   |  |    \   |  |\   \          
                \     /   | |  | | |  |  |  |  | |\  \  |  | \   \       
                 \___/    |_|  |_| |__|  |__|  |_| \__\ |__|  \__/        
                                                                              
                      - O R C A' S   B I G   F R I E N D -                    
                                      &                                       
                       - I N T E G R A L  F E E D E R -                       
                                                                              
 v1 FN, 2020, v2 2021                                                         
------------------------------------------------------------------------------


Reading SHARK input file 3_30_orca.SHARKINP.tmp ... ok
----------------------
SHARK INTEGRAL PACKAGE
----------------------

Number of atoms                             ...     38
Number of basis functions                   ...    339
Number of shells                            ...    175
Maximum angular momentum                    ...      3
Integral batch strategy                     ... SHARK/LIBINT Hybrid
RI-J (if used) integral strategy            ... SPLIT-RIJ (Revised 2003 algorithm where possible)
Printlevel                                  ...      1
Contraction scheme used                     ... SEGMENTED contraction
Coulomb Range Separation                    ... NOT USED
Exchange Range Separation                   ... NOT USED
Finite Nucleus Model                        ... NOT USED
Auxiliary Coulomb fitting basis             ... AVAILABLE
   # of basis functions in Aux-J            ...   1180
   # of shells in Aux-J                     ...    388
   Maximum angular momentum in Aux-J        ...      4
Auxiliary J/K fitting basis                 ... NOT available
Auxiliary Correlation fitting basis         ... NOT available
Auxiliary 'external' fitting basis          ... NOT available
Integral threshold                          ...     2.500000e-11
Primitive cut-off                           ...     2.500000e-12
Primitive pair pre-selection threshold      ...     2.500000e-12

Calculating pre-screening integrals         ... done (  0.1 sec) Dimension = 175
Organizing shell pair data                  ... done (  0.1 sec)
Shell pair information
Total number of shell pairs                 ...     15400
Shell pairs after pre-screening             ...     10951
Total number of primitive shell pairs       ...     54591
Primitive shell pairs kept                  ...     24535
          la=0 lb=0:   4203 shell pairs
          la=1 lb=0:   3613 shell pairs
          la=1 lb=1:    714 shell pairs
          la=2 lb=0:   1475 shell pairs
          la=2 lb=1:    657 shell pairs
          la=2 lb=2:    145 shell pairs
          la=3 lb=0:     88 shell pairs
          la=3 lb=1:     38 shell pairs
          la=3 lb=2:     17 shell pairs
          la=3 lb=3:      1 shell pairs

Calculating one electron integrals          ... done (  0.1 sec)
Calculating ECP integrals                   ... done (  0.3 sec)
Calculating RI/J V-Matrix + Cholesky decomp.... done (  0.1 sec)
Calculating Nuclear repulsion               ... done (  0.0 sec) ENN=   1744.123624026859 Eh

SHARK setup successfully completed in   0.9 seconds

Maximum memory used throughout the entire GTOINT-calculation: 76.1 MB
-------------------------------------------------------------------------------
                                 ORCA SCF
-------------------------------------------------------------------------------

------------
SCF SETTINGS
------------
Hamiltonian:
 Density Functional     Method          .... DFT(GTOs)
 Exchange Functional    Exchange        .... PBE
   PBE kappa parameter   XKappa         ....  1.024500
   PBE mue parameter    XMuePBE         ....  0.123457
 Correlation Functional Correlation     .... PBE
   PBE beta parameter  CBetaPBE         ....  0.030000
 LDA part of GGA corr.  LDAOpt          .... PW91-LDA
 Gradients option       PostSCFGGA      .... off
 Hybrid DFT is turned on
   Fraction HF Exchange ScalHFX         ....  0.420000
   Scaling of DF-GGA-X  ScalDFX         ....  0.580000
   Scaling of DF-GGA-C  ScalDFC         ....  1.000000
   Scaling of DF-LDA-C  ScalLDAC        ....  1.000000
   Perturbative correction              ....  0.000000
   Density functional embedding theory  .... OFF
 RI-approximation to the Coulomb term is turned on
   Number of AuxJ basis functions       .... 1180
   RIJ-ON(X) (HFX calculated with O(N)) .... on
   Number of AuxJ basis functions       .... 1180
   RIJ-COSX (HFX calculated with COS-X)).... on


General Settings:
 Integral files         IntName         .... 3_30_orca
 Hartree-Fock type      HFTyp           .... RHF
 Total Charge           Charge          ....    0
 Multiplicity           Mult            ....    1
 Number of Electrons    NEL             ....  154
 Basis Dimension        Dim             ....  339
 Nuclear Repulsion      ENuc            ....   1744.1236240269 Eh

Convergence Acceleration:
 DIIS                   CNVDIIS         .... on
   Start iteration      DIISMaxIt       ....    12
   Startup error        DIISStart       ....  0.200000
   # of expansion vecs  DIISMaxEq       ....     5
   Bias factor          DIISBfac        ....   1.050
   Max. coefficient     DIISMaxC        ....  10.000
 Trust-Rad. Augm. Hess. CNVTRAH         .... auto
   Auto Start mean grad. ratio tolernc. ....  1.125000
   Auto Start start iteration           ....    20
   Auto Start num. interpolation iter.  ....    10
   Max. Number of Micro iterations      ....    16
   Max. Number of Macro iterations      .... Maxiter - #DIIS iter
   Number of Davidson start vectors     ....     2
   Converg. threshold I  (grad. norm)   ....   1.000e-05
   Converg. threshold II (energy diff.) ....   1.000e-08
   Grad. Scal. Fac. for Micro threshold ....   0.100
   Minimum threshold for Micro iter.    ....   0.010
   NR start threshold (gradient norm)   ....   0.001
   Initial trust radius                 ....   0.400
   Minimum AH scaling param. (alpha)    ....   1.000
   Maximum AH scaling param. (alpha)    .... 1000.000
   Orbital update algorithm             .... Taylor
   White noise on init. David. guess    .... on
   Maximum white noise                  ....   0.010
   Quad. conv. algorithm                .... NR
   COSX micro iterations for RIJONX calc.... off
 SOSCF                  CNVSOSCF        .... off
 Level Shifting         CNVShift        .... on
   Level shift para.    LevelShift      ....    0.2500
   Turn off err/grad.   ShiftErr        ....    0.0010
 Zerner damping         CNVZerner       .... off
 Static damping         CNVDamp         .... on
   Fraction old density DampFac         ....    0.7000
   Max. Damping (<1)    DampMax         ....    0.9800
   Min. Damping (>=0)   DampMin         ....    0.0000
   Turn off err/grad.   DampErr         ....    0.1000
 Fernandez-Rico         CNVRico         .... off

SCF Procedure:
 Maximum # iterations   MaxIter         ....   250
 SCF integral mode      SCFMode         .... Direct
   Integral package                     .... SHARK and LIBINT hybrid scheme
 Reset frequency        DirectResetFreq ....    20
 Integral Threshold     Thresh          ....  2.500e-11 Eh
 Primitive CutOff       TCut            ....  2.500e-12 Eh

Convergence Tolerance:
 Convergence Check Mode ConvCheckMode   .... Total+1el-Energy
 Convergence forced     ConvForced      .... 0
 Energy Change          TolE            ....  1.000e-08 Eh
 1-El. energy change                    ....  1.000e-05 Eh
 DIIS Error             TolErr          ....  5.000e-07


Diagonalization of the overlap matrix:
Smallest eigenvalue                        ... 4.190e-04
Time for diagonalization                   ...    0.032 sec
Threshold for overlap eigenvalues          ... 1.000e-08
Number of eigenvalues below threshold      ... 0
Time for construction of square roots      ...    0.010 sec
Total time needed                          ...    0.043 sec

--------------------------------
INITIAL GUESS: MINIMAL BASIS EHT
--------------------------------
The minimal basis has 122 functions
EHT matrix was diagonalized
Basis set overlap was calculated now projecting the orbitals
Using GuessMode=FMatrix for the initial guess
C*T matrix was formed
Effective Fockian was calculated
Effective Fockian was diagonalized
Initial density was built
                      ------------------
                      INITIAL GUESS DONE
                      ------------------
-------------------
DFT GRID GENERATION
-------------------

General Integration Accuracy     IntAcc      ... 4.159
Radial Grid Type                 RadialGrid  ... OptM3 with GC (2021)
Angular Grid (max. ang.)         AngularGrid ... 3 (Lebedev-194)
Angular grid pruning method      GridPruning ... 4 (adaptive)
Weight generation scheme         WeightScheme... Becke
Basis function cutoff            BFCut       ... 1.0000e-11
Integration weight cutoff        WCut        ... 1.0000e-14
Angular grids for H and He will be reduced by one unit
Partially contracted basis set               ... off
Rotationally invariant grid construction     ... off

Total number of grid points                  ...    89962
Total number of batches                      ...     1423
Average number of points per batch           ...       63
Average number of grid points per atom       ...     2367
Time for grid setup =    1.408 sec

--------------------
COSX GRID GENERATION
--------------------

GRIDX 1
-------
General Integration Accuracy     IntAcc      ... 3.816
Radial Grid Type                 RadialGrid  ... OptM3 with GC (2021)
Angular Grid (max. ang.)         AngularGrid ... 1 (Lebedev-50)
Angular grid pruning method      GridPruning ... 4 (adaptive)
Weight generation scheme         WeightScheme... Becke
Basis function cutoff            BFCut       ... 1.0000e-11
Integration weight cutoff        WCut        ... 1.0000e-14
Angular grids for H and He will be reduced by one unit
Partially contracted basis set               ... on
Rotationally invariant grid construction     ... off

Total number of grid points                  ...    22431
Total number of batches                      ...      369
Average number of points per batch           ...       60
Average number of grid points per atom       ...      590
UseSFitting                                  ... on

GRIDX 2
-------
General Integration Accuracy     IntAcc      ... 4.020
Radial Grid Type                 RadialGrid  ... OptM3 with GC (2021)
Angular Grid (max. ang.)         AngularGrid ... 2 (Lebedev-110)
Angular grid pruning method      GridPruning ... 4 (adaptive)
Weight generation scheme         WeightScheme... Becke
Basis function cutoff            BFCut       ... 1.0000e-11
Integration weight cutoff        WCut        ... 1.0000e-14
Angular grids for H and He will be reduced by one unit
Partially contracted basis set               ... on
Rotationally invariant grid construction     ... off

Total number of grid points                  ...    48195
Total number of batches                      ...      771
Average number of points per batch           ...       62
Average number of grid points per atom       ...     1268
UseSFitting                                  ... on

GRIDX 3
-------
General Integration Accuracy     IntAcc      ... 4.338
Radial Grid Type                 RadialGrid  ... OptM3 with GC (2021)
Angular Grid (max. ang.)         AngularGrid ... 3 (Lebedev-194)
Angular grid pruning method      GridPruning ... 4 (adaptive)
Weight generation scheme         WeightScheme... Becke
Basis function cutoff            BFCut       ... 1.0000e-11
Integration weight cutoff        WCut        ... 1.0000e-14
Angular grids for H and He will be reduced by one unit
Partially contracted basis set               ... on
Rotationally invariant grid construction     ... off

Total number of grid points                  ...   104343
Total number of batches                      ...     1652
Average number of points per batch           ...       63
Average number of grid points per atom       ...     2746
UseSFitting                                  ... on

Time for X-Grid setup             =    3.662 sec

--------------
SCF ITERATIONS
--------------
ITER       Energy         Delta-E        Max-DP      RMS-DP      [F,P]     Damp
               ***  Starting incremental Fock matrix formation  ***
  0   -974.4841869109   0.000000000000 3.40323679  0.02445396  5.1983072 0.7000
  1   -965.1658823284   9.318304582500 3.99210433  0.04726721  3.9562121 0.7000
  2   -959.0147889142   6.151093414216 2.42469712  0.02426181  2.6190898 0.7000
  3   -963.1411864740  -4.126397559812 4.30618071  0.03894750  1.9310493 0.7000
  4   -960.6905347689   2.450651705120 2.15885415  0.02769367  1.2324525 0.7000
  5   -961.8103500775  -1.119815308604 3.42164079  0.03727174  0.9649142 0.7000
  6   -955.5681067938   6.242243283657 2.29051045  0.03071181  0.5649110 0.7000
  7   -959.3812090986  -3.813102304801 2.94632731  0.03118039  0.4930312 0.7000
  8   -956.4411703952   2.940038703445 2.37006911  0.02934634  0.2619900 0.7000
  9   -956.5202915458  -0.079121150665 2.91544565  0.03847919  0.2692700 0.7000
 10   -947.9216463935   8.598645152315 2.45261604  0.03148157  0.2847170 0.7000
 11   -955.0604676253  -7.138821231756 2.92867127  0.03138487  0.2816245 0.7000
                               ***Turning on DIIS***
 12   -955.7974419528  -0.736974327505 2.58164986  0.03039798  0.2240337 0.7000
 13   -954.1883246956   1.609117257225 1.69295418  0.02201781  0.2859308 0.7000
 14   -964.3547884535 -10.166463757969 1.18661467  0.01555191  0.2716515 0.7000
 15   -971.3769362374  -7.022147783860 0.82918391  0.01094941  0.2818388 0.7000
 16   -976.4075798703  -5.030643632907 0.58104453  0.00771808  0.2703875 0.7000
 17   -980.0847720180  -3.677192147691 0.38048915  0.00664863  0.2509895 0.7000
 18   -982.4139088493  -2.329136831333 0.29476753  0.00440056  0.1118653 0.7000
 19   -983.9226184290  -1.508709579650 0.73177750  0.01032262  0.0816486 0.0000
               *** Restarting incremental Fock matrix formation ***
                                   *** Resetting DIIS ***

 WARNING: the maximum gradient error descreased on average only by a factor   1.1
          during the last 20 iterations

                      *** Initiating the TRAH-SCF procedure ***


TRAH GRIDX
----------

General Integration Accuracy     IntAcc      ... 3.067
Radial Grid Type                 RadialGrid  ... OptM3 with GC (2021)
Angular Grid (max. ang.)         AngularGrid ... 1 (Lebedev-50)
Angular grid pruning method      GridPruning ... 4 (adaptive)
Weight generation scheme         WeightScheme... Becke
Basis function cutoff            BFCut       ... 1.0000e-11
Integration weight cutoff        WCut        ... 1.0000e-14
Angular grids for H and He will be reduced by one unit
Partially contracted basis set               ... on
Rotationally invariant grid construction     ... off

Total number of grid points                  ...    11968
Total number of batches                      ...      210
Average number of points per batch           ...       56
Average number of grid points per atom       ...      315


TRAH GRID
---------

General Integration Accuracy     IntAcc      ... 3.467
Radial Grid Type                 RadialGrid  ... OptM3 with GC (2021)
Angular Grid (max. ang.)         AngularGrid ... 1 (Lebedev-50)
Angular grid pruning method      GridPruning ... 4 (adaptive)
Weight generation scheme         WeightScheme... Becke
Basis function cutoff            BFCut       ... 1.0000e-11
Integration weight cutoff        WCut        ... 1.0000e-14
Angular grids for H and He will be reduced by one unit
Partially contracted basis set               ... off
Rotationally invariant grid construction     ... off

Total number of grid points                  ...    28257
Total number of batches                      ...      461
Average number of points per batch           ...       61
Average number of grid points per atom       ...      744

 --------------------------------------------------------------------------------------------
   Iter.        energy            ||Error||_2        Shift      TRadius  Mac/Mic        Rej.
 --------------------------------------------------------------------------------------------
WARNING: 19 diagonal Hessian elements are negative!
    0       -987.927312134142     2.473366e+00                     0.400 (TRAH MAcro)   No
WARNING : negative HOMO - LUMO gap : -0.314832
    0     dE    -3.246066e-01     2.676278e+00    -6.1178e-01      0.247 (TRAH MIcro)
    0     dE    -5.554460e-01     5.784944e-01    -2.1262e+00      0.400 (TRAH MIcro)
    0     dE    -5.646663e-01     1.751375e-01    -2.2630e+00      0.400 (TRAH MIcro)
    0     dE    -5.657179e-01     3.647078e-02    -2.2747e+00      0.400 (TRAH MIcro)
    0     dE    -5.657960e-01     8.607800e-03    -2.2740e+00      0.400 (TRAH MIcro)
    1       -988.452235625123     7.000560e-01                     0.480 (TRAH MAcro)   No
    1     dE    -6.372658e-02     6.517444e-01    -1.2360e-01      0.177 (TRAH MIcro)
    1     dE    -1.182207e-01     2.629076e-01    -2.0936e-01      0.360 (TRAH MIcro)
    1     dE    -1.259198e-01     1.074361e-01    -2.1845e-01      0.391 (TRAH MIcro)
    1     dE    -1.278740e-01     4.500284e-02    -2.2002e-01      0.403 (TRAH MIcro)
    1     dE    -1.283567e-01     2.076265e-02    -2.2026e-01      0.407 (TRAH MIcro)
    1     dE    -1.285759e-01     1.090616e-02    -2.2033e-01      0.409 (TRAH MIcro)
    1     dE    -1.286492e-01     6.005568e-03    -2.2035e-01      0.410 (TRAH MIcro)
    2       -988.579318269595     2.272468e-01                     0.576 (TRAH MAcro)   No
    2     dE    -4.237936e-03     2.888599e-01    -8.4641e-03      0.037 (TRAH MIcro)
    2     dE    -1.249044e-02     7.452361e-02    -2.4486e-02      0.142 (TRAH MIcro)
    2     dE    -1.284554e-02     2.740826e-02    -2.5135e-02      0.149 (TRAH MIcro)
    2     dE    -1.291587e-02     1.344577e-02    -2.5256e-02      0.151 (TRAH MIcro)
    2     dE    -1.293704e-02     6.119175e-03    -2.5288e-02      0.152 (TRAH MIcro)
    3       -988.592422027558     2.563144e-02                     0.691 (TRAH MAcro)   No
    3     dE    -6.935998e-05     6.061121e-02    -1.3872e-04      0.005 (TRAH MIcro)
    3     dE    -2.408768e-04     1.664687e-02    -4.8152e-04      0.022 (TRAH MIcro)
    3     dE    -2.491333e-04     2.713519e-03    -4.9801e-04      0.023 (TRAH MIcro)
    3     dE    -2.499289e-04     2.261661e-03    -4.9959e-04      0.023 (TRAH MIcro)
    4       -988.592672261650     2.291841e-03                     0.829 (TRAH MAcro)   No
    4     dE    -3.259250e-08     2.405691e-03    -6.5247e-08      0.000 (TRAH MIcro)
    4     dE    -2.364609e-07     9.096046e-04    -4.7292e-07      0.000 (TRAH MIcro)
    4     dE    -4.221161e-07     8.535625e-04    -8.4423e-07      0.001 (TRAH MIcro)
    4     dE    -4.507440e-07     3.929076e-04    -9.0149e-07      0.001 (TRAH MIcro)
    4     dE    -4.580912e-07     1.155145e-04    -9.1618e-07      0.001 (TRAH MIcro)
    5       -988.592672706257     1.155251e-04                           (NR   MAcro)
    5     dE    -8.820673e-10     5.021825e-05                           (NR   MIcro)
    5     dE    -1.271433e-09     3.791493e-05                           (NR   MIcro)
    5     dE    -1.398701e-09     1.442305e-05                           (NR   MIcro)
    5     dE    -1.422948e-09     9.127866e-06                           (NR   MIcro)
    5     dE    -1.432517e-09     4.267725e-06                           (NR   MIcro)
    5     dE    -1.433950e-09     1.679562e-06                           (NR   MIcro)
    5     dE    -1.434223e-09     8.810516e-07                           (NR   MIcro)
    6       -988.592672709240     8.964423e-07                           (NR   MAcro)

               *****************************************************
               *                     SUCCESS                       *
               *           SCF CONVERGED AFTER  60 CYCLES          *
               *****************************************************

Old exchange energy                            =    -52.739765109 Eh
New exchange energy                            =    -52.739698493 Eh
Exchange energy change after final integration =      0.000066616 Eh
Total energy after final integration           =   -988.592606093 Eh
Final COS-X integration done in                =    43.192 sec

----------------
TOTAL SCF ENERGY
----------------

Total Energy       :         -988.59260609 Eh          -26900.97243 eV

Components:
Nuclear Repulsion  :         1744.12362403 Eh           47460.01663 eV
Electronic Energy  :        -2732.71623012 Eh          -74360.98906 eV
One Electron Energy:        -4869.57346394 Eh         -132507.83052 eV
Two Electron Energy:         2136.85723382 Eh           58146.84146 eV
Max COSX asymmetry :            0.00003593 Eh               0.00098 eV

Virial components:
Potential Energy   :        -1890.97167080 Eh          -51455.95513 eV
Kinetic Energy     :          902.37906471 Eh           24554.98270 eV
Virial Ratio       :            2.09554027


DFT components:
N(Alpha)           :       76.999605506122 electrons
N(Beta)            :       76.999605506122 electrons
N(Total)           :      153.999211012243 electrons
E(X)               :      -70.315746364672 Eh       
E(C)               :       -6.922049474886 Eh       
E(XC)              :      -77.237795839558 Eh       
DFET-embed. en.    :        0.000000000000 Eh       

---------------
SCF CONVERGENCE
---------------

  Last Energy change         ...   -2.9827e-09  Tolerance :   1.0000e-08
  Last Orbital Gradient      ...    8.9644e-07  Tolerance :   1.0000e-05
  Last Orbital Rotation      ...    5.6878e-05

             **** THE GBW FILE WAS UPDATED (3_30_orca.gbw) ****
             **** DENSITY 3_30_orca.scfp WAS UPDATED ****
             **** ENERGY FILE WAS UPDATED (3_30_orca.en.tmp) ****
             **** THE GBW FILE WAS UPDATED (3_30_orca.gbw) ****
             **** DENSITY 3_30_orca.scfp WAS UPDATED ****
----------------
ORBITAL ENERGIES
----------------

  NO   OCC          E(Eh)            E(eV) 
   0   2.0000     -19.497317      -530.5490 
   1   2.0000     -19.487030      -530.2690 
   2   2.0000     -19.471007      -529.8330 
   3   2.0000     -19.432360      -528.7814 
   4   2.0000     -14.719735      -400.5443 
   5   2.0000     -10.566115      -287.5186 
   6   2.0000     -10.529962      -286.5348 
   7   2.0000     -10.502630      -285.7911 
   8   2.0000     -10.484762      -285.3049 
   9   2.0000     -10.475594      -285.0554 
  10   2.0000     -10.472781      -284.9788 
  11   2.0000     -10.458059      -284.5783 
  12   2.0000     -10.456731      -284.5421 
  13   2.0000     -10.456424      -284.5338 
  14   2.0000     -10.455550      -284.5100 
  15   2.0000     -10.454656      -284.4857 
  16   2.0000     -10.438210      -284.0381 
  17   2.0000     -10.411429      -283.3094 
  18   2.0000      -3.656701       -99.5039 
  19   2.0000      -2.307018       -62.7772 
  20   2.0000      -2.299876       -62.5828 
  21   2.0000      -2.265655       -61.6516 
  22   2.0000      -1.199619       -32.6433 
  23   2.0000      -1.150115       -31.2962 
  24   2.0000      -1.082056       -29.4442 
  25   2.0000      -1.073612       -29.2145 
  26   2.0000      -1.051007       -28.5994 
  27   2.0000      -0.975796       -26.5528 
  28   2.0000      -0.880806       -23.9679 
  29   2.0000      -0.854827       -23.2610 
  30   2.0000      -0.829310       -22.5667 
  31   2.0000      -0.820154       -22.3175 
  32   2.0000      -0.798089       -21.7171 
  33   2.0000      -0.794280       -21.6134 
  34   2.0000      -0.719689       -19.5837 
  35   2.0000      -0.696495       -18.9526 
  36   2.0000      -0.677934       -18.4475 
  37   2.0000      -0.614179       -16.7127 
  38   2.0000      -0.605090       -16.4653 
  39   2.0000      -0.583183       -15.8692 
  40   2.0000      -0.571727       -15.5575 
  41   2.0000      -0.566284       -15.4094 
  42   2.0000      -0.560747       -15.2587 
  43   2.0000      -0.544831       -14.8256 
  44   2.0000      -0.540110       -14.6971 
  45   2.0000      -0.529416       -14.4061 
  46   2.0000      -0.525248       -14.2927 
  47   2.0000      -0.522948       -14.2301 
  48   2.0000      -0.508754       -13.8439 
  49   2.0000      -0.498143       -13.5552 
  50   2.0000      -0.494934       -13.4678 
  51   2.0000      -0.490818       -13.3558 
  52   2.0000      -0.488092       -13.2817 
  53   2.0000      -0.478595       -13.0232 
  54   2.0000      -0.459115       -12.4932 
  55   2.0000      -0.457446       -12.4477 
  56   2.0000      -0.446215       -12.1421 
  57   2.0000      -0.443662       -12.0727 
  58   2.0000      -0.438867       -11.9422 
  59   2.0000      -0.432240       -11.7618 
  60   2.0000      -0.430812       -11.7230 
  61   2.0000      -0.416843       -11.3429 
  62   2.0000      -0.414706       -11.2847 
  63   2.0000      -0.408776       -11.1234 
  64   2.0000      -0.403097       -10.9688 
  65   2.0000      -0.379429       -10.3248 
  66   2.0000      -0.369732       -10.0609 
  67   2.0000      -0.360621        -9.8130 
  68   2.0000      -0.351890        -9.5754 
  69   2.0000      -0.342475        -9.3192 
  70   2.0000      -0.316716        -8.6183 
  71   2.0000      -0.315999        -8.5988 
  72   2.0000      -0.308615        -8.3979 
  73   2.0000      -0.303277        -8.2526 
  74   2.0000      -0.294600        -8.0165 
  75   2.0000      -0.293227        -7.9791 
  76   2.0000      -0.270437        -7.3590 
  77   0.0000      -0.048002        -1.3062 
  78   0.0000      -0.003222        -0.0877 
  79   0.0000       0.009992         0.2719 
  80   0.0000       0.052300         1.4231 
  81   0.0000       0.072128         1.9627 
  82   0.0000       0.083283         2.2662 
  83   0.0000       0.089069         2.4237 
  84   0.0000       0.102438         2.7875 
  85   0.0000       0.110109         2.9962 
  86   0.0000       0.130241         3.5440 
  87   0.0000       0.139317         3.7910 
  88   0.0000       0.148423         4.0388 
  89   0.0000       0.164931         4.4880 
  90   0.0000       0.168042         4.5726 
  91   0.0000       0.170898         4.6504 
  92   0.0000       0.185890         5.0583 
  93   0.0000       0.194517         5.2931 
  94   0.0000       0.197194         5.3659 
  95   0.0000       0.206625         5.6226 
  96   0.0000       0.210059         5.7160 
  97   0.0000       0.213654         5.8138 
  98   0.0000       0.220690         6.0053 
  99   0.0000       0.227150         6.1811 
 100   0.0000       0.228508         6.2180 
 101   0.0000       0.231833         6.3085 
 102   0.0000       0.233998         6.3674 
 103   0.0000       0.241693         6.5768 
 104   0.0000       0.248345         6.7578 
 105   0.0000       0.251162         6.8345 
 106   0.0000       0.258355         7.0302 
 107   0.0000       0.265101         7.2138 
 108   0.0000       0.267862         7.2889 
 109   0.0000       0.277966         7.5639 
 110   0.0000       0.284551         7.7430 
 111   0.0000       0.288887         7.8610 
 112   0.0000       0.310805         8.4574 
 113   0.0000       0.322627         8.7791 
 114   0.0000       0.337573         9.1858 
 115   0.0000       0.348692         9.4884 
 116   0.0000       0.359009         9.7691 
 117   0.0000       0.373482        10.1630 
 118   0.0000       0.393513        10.7080 
 119   0.0000       0.413365        11.2482 
 120   0.0000       0.421046        11.4572 
 121   0.0000       0.436373        11.8743 
 122   0.0000       0.459161        12.4944 
 123   0.0000       0.477011        12.9801 
 124   0.0000       0.481152        13.0928 
 125   0.0000       0.485780        13.2187 
 126   0.0000       0.515163        14.0183 
 127   0.0000       0.523224        14.2377 
 128   0.0000       0.533137        14.5074 
 129   0.0000       0.540907        14.7188 
 130   0.0000       0.544876        14.8268 
 131   0.0000       0.550194        14.9715 
 132   0.0000       0.559650        15.2288 
 133   0.0000       0.567680        15.4474 
 134   0.0000       0.574136        15.6230 
 135   0.0000       0.579032        15.7563 
 136   0.0000       0.583783        15.8855 
 137   0.0000       0.590811        16.0768 
 138   0.0000       0.597770        16.2661 
 139   0.0000       0.605680        16.4814 
 140   0.0000       0.608332        16.5536 
 141   0.0000       0.618862        16.8401 
 142   0.0000       0.622004        16.9256 
 143   0.0000       0.627618        17.0784 
 144   0.0000       0.629208        17.1216 
 145   0.0000       0.632698        17.2166 
 146   0.0000       0.636323        17.3152 
 147   0.0000       0.653365        17.7790 
 148   0.0000       0.657871        17.9016 
 149   0.0000       0.662617        18.0307 
 150   0.0000       0.680305        18.5120 
 151   0.0000       0.684716        18.6321 
 152   0.0000       0.689372        18.7588 
 153   0.0000       0.704156        19.1611 
 154   0.0000       0.719280        19.5726 
 155   0.0000       0.730718        19.8838 
 156   0.0000       0.740525        20.1507 
 157   0.0000       0.766233        20.8502 
 158   0.0000       0.774792        21.0832 
 159   0.0000       0.782632        21.2965 
 160   0.0000       0.822233        22.3741 
 161   0.0000       0.837019        22.7764 
 162   0.0000       0.851853        23.1801 
 163   0.0000       0.866755        23.5856 
 164   0.0000       0.892206        24.2782 
 165   0.0000       0.899597        24.4793 
 166   0.0000       0.904398        24.6099 
 167   0.0000       0.925434        25.1823 
 168   0.0000       0.929381        25.2897 
 169   0.0000       0.946855        25.7652 
 170   0.0000       0.949970        25.8500 
 171   0.0000       0.961142        26.1540 
 172   0.0000       0.969535        26.3824 
 173   0.0000       0.976834        26.5810 
 174   0.0000       0.990628        26.9564 
 175   0.0000       0.994337        27.0573 
 176   0.0000       1.006244        27.3813 
 177   0.0000       1.015189        27.6247 
 178   0.0000       1.022018        27.8105 
 179   0.0000       1.022894        27.8344 
 180   0.0000       1.031865        28.0785 
 181   0.0000       1.037536        28.2328 
 182   0.0000       1.050496        28.5855 
 183   0.0000       1.054406        28.6919 
 184   0.0000       1.060828        28.8666 
 185   0.0000       1.065308        28.9885 
 186   0.0000       1.072982        29.1973 
 187   0.0000       1.080521        29.4025 
 188   0.0000       1.081970        29.4419 
 189   0.0000       1.092235        29.7212 
 190   0.0000       1.097164        29.8553 
 191   0.0000       1.106528        30.1102 
 192   0.0000       1.114611        30.3301 
 193   0.0000       1.131103        30.7789 
 194   0.0000       1.140194        31.0263 
 195   0.0000       1.147183        31.2164 
 196   0.0000       1.155618        31.4460 
 197   0.0000       1.174115        31.9493 
 198   0.0000       1.181048        32.1380 
 199   0.0000       1.191316        32.4174 
 200   0.0000       1.199510        32.6403 
 201   0.0000       1.227030        33.3892 
 202   0.0000       1.251671        34.0597 
 203   0.0000       1.267167        34.4814 
 204   0.0000       1.272364        34.6228 
 205   0.0000       1.281649        34.8755 
 206   0.0000       1.294649        35.2292 
 207   0.0000       1.307147        35.5693 
 208   0.0000       1.312773        35.7224 
 209   0.0000       1.321311        35.9547 
 210   0.0000       1.342495        36.5312 
 211   0.0000       1.393081        37.9077 
 212   0.0000       1.431394        38.9502 
 213   0.0000       1.443826        39.2885 
 214   0.0000       1.451471        39.4965 
 215   0.0000       1.470571        40.0163 
 216   0.0000       1.491725        40.5919 
 217   0.0000       1.492205        40.6050 
 218   0.0000       1.503249        40.9055 
 219   0.0000       1.525907        41.5221 
 220   0.0000       1.531818        41.6829 
 221   0.0000       1.538112        41.8541 
 222   0.0000       1.552611        42.2487 
 223   0.0000       1.555652        42.3314 
 224   0.0000       1.577265        42.9196 
 225   0.0000       1.601874        43.5892 
 226   0.0000       1.616047        43.9749 
 227   0.0000       1.624500        44.2049 
 228   0.0000       1.673158        45.5289 
 229   0.0000       1.738698        47.3124 
 230   0.0000       1.762959        47.9725 
 231   0.0000       1.771870        48.2150 
 232   0.0000       1.787062        48.6284 
 233   0.0000       1.802634        49.0522 
 234   0.0000       1.845793        50.2266 
 235   0.0000       1.855070        50.4790 
 236   0.0000       1.864888        50.7462 
 237   0.0000       1.882992        51.2388 
 238   0.0000       1.891535        51.4713 
 239   0.0000       1.903501        51.7969 
 240   0.0000       1.920155        52.2501 
 241   0.0000       1.930407        52.5290 
 242   0.0000       1.946044        52.9546 
 243   0.0000       1.961070        53.3634 
 244   0.0000       1.968588        53.5680 
 245   0.0000       1.987101        54.0718 
 246   0.0000       1.998412        54.3796 
 247   0.0000       2.009438        54.6796 
 248   0.0000       2.020060        54.9686 
 249   0.0000       2.038173        55.4615 
 250   0.0000       2.042309        55.5741 
 251   0.0000       2.049726        55.7759 
 252   0.0000       2.058652        56.0188 
 253   0.0000       2.065687        56.2102 
 254   0.0000       2.078734        56.5652 
 255   0.0000       2.087490        56.8035 
 256   0.0000       2.096694        57.0539 
 257   0.0000       2.112459        57.4829 
 258   0.0000       2.128256        57.9128 
 259   0.0000       2.142591        58.3029 
 260   0.0000       2.156504        58.6815 
 261   0.0000       2.161266        58.8110 
 262   0.0000       2.164796        58.9071 
 263   0.0000       2.181571        59.3636 
 264   0.0000       2.193768        59.6955 
 265   0.0000       2.200301        59.8732 
 266   0.0000       2.206454        60.0407 
 267   0.0000       2.215451        60.2855 
 268   0.0000       2.241107        60.9836 
 269   0.0000       2.253833        61.3299 
 270   0.0000       2.263333        61.5884 
 271   0.0000       2.270066        61.7716 
 272   0.0000       2.290572        62.3296 
 273   0.0000       2.307768        62.7976 
 274   0.0000       2.315125        62.9978 
 275   0.0000       2.321171        63.1623 
 276   0.0000       2.328099        63.3508 
 277   0.0000       2.340341        63.6839 
 278   0.0000       2.358428        64.1761 
 279   0.0000       2.379926        64.7611 
 280   0.0000       2.389601        65.0244 
 281   0.0000       2.405755        65.4639 
 282   0.0000       2.442643        66.4677 
 283   0.0000       2.457171        66.8630 
 284   0.0000       2.468733        67.1776 
 285   0.0000       2.478397        67.4406 
 286   0.0000       2.485217        67.6262 
 287   0.0000       2.499912        68.0261 
 288   0.0000       2.504023        68.1379 
 289   0.0000       2.517470        68.5038 
 290   0.0000       2.533970        68.9528 
 291   0.0000       2.592428        70.5436 
 292   0.0000       2.597227        70.6742 
 293   0.0000       2.606530        70.9273 
 294   0.0000       2.619048        71.2679 
 295   0.0000       2.653171        72.1965 
 296   0.0000       2.669606        72.6437 
 297   0.0000       2.711457        73.7825 
 298   0.0000       2.718749        73.9809 
 299   0.0000       2.738902        74.5293 
 300   0.0000       2.765196        75.2448 
 301   0.0000       2.776761        75.5595 
 302   0.0000       2.789895        75.9169 
 303   0.0000       2.816000        76.6273 
 304   0.0000       2.832032        77.0635 
 305   0.0000       2.837615        77.2154 
 306   0.0000       2.845474        77.4293 
 307   0.0000       2.847686        77.4895 
 308   0.0000       2.861147        77.8558 
 309   0.0000       2.897854        78.8546 
 310   0.0000       2.910168        79.1897 
 311   0.0000       2.938162        79.9515 
 312   0.0000       3.033530        82.5465 
 313   0.0000       3.046893        82.9102 
 314   0.0000       3.062860        83.3447 
 315   0.0000       3.098240        84.3074 
 316   0.0000       3.116958        84.8168 
 317   0.0000       3.232025        87.9479 
 318   0.0000       3.250157        88.4413 
 319   0.0000       3.487503        94.8998 
 320   0.0000      13.277037       361.2865 
 321   0.0000      13.636774       371.0755 
 322   0.0000      13.653355       371.5267 
 323   0.0000      13.686843       372.4379 
 324   0.0000      13.710919       373.0931 
 325   0.0000      13.743510       373.9799 
 326   0.0000      13.867464       377.3529 
 327   0.0000      13.959465       379.8563 
 328   0.0000      14.102162       383.7393 
 329   0.0000      14.130429       384.5085 
 330   0.0000      14.154675       385.1683 
 331   0.0000      14.161427       385.3520 
 332   0.0000      14.568548       396.4303 
 333   0.0000      19.393821       527.7327 
 334   0.0000      25.714534       699.7280 
 335   0.0000      25.770682       701.2559 
 336   0.0000      25.781844       701.5596 
 337   0.0000      25.834237       702.9853 
 338   0.0000      51.610947      1404.4053 

                    ********************************
                    * MULLIKEN POPULATION ANALYSIS *
                    ********************************

-----------------------
MULLIKEN ATOMIC CHARGES
-----------------------
   0 Pd:    0.541481
   1 O :   -0.492864
   2 C :    0.655227
   3 O :   -0.494595
   4 C :   -0.769381
   5 H :    0.248775
   6 H :    0.262841
   7 H :    0.257790
   8 N :   -0.485989
   9 C :   -0.541990
  10 H :    0.295300
  11 H :    0.218432
  12 H :    0.275383
  13 C :   -0.541132
  14 H :    0.270409
  15 H :    0.226327
  16 H :    0.290880
  17 C :    0.105583
  18 C :   -0.260545
  19 C :   -0.202144
  20 C :   -0.239457
  21 C :   -0.194980
  22 C :   -0.254078
  23 H :    0.225063
  24 H :    0.226791
  25 H :    0.222492
  26 H :    0.225730
  27 H :    0.226465
  28 C :   -0.339711
  29 H :    0.244110
  30 H :    0.253305
  31 O :   -0.550836
  32 C :    0.571354
  33 O :   -0.452415
  34 C :   -0.742570
  35 H :    0.231282
  36 H :    0.248474
  37 H :    0.239192
Sum of atomic charges:    0.0000000

--------------------------------
MULLIKEN REDUCED ORBITAL CHARGES
--------------------------------
  0 Pds       :     2.469563  s :     2.469563
      pz      :     2.081835  p :     6.345732
      px      :     2.131992
      py      :     2.131905
      dz2     :     1.966834  d :     8.638230
      dxz     :     1.719543
      dyz     :     1.946596
      dx2y2   :     1.704432
      dxy     :     1.300825
      f0      :     0.000583  f :     0.004994
      f+1     :     0.000395
      f-1     :     0.000285
      f+2     :     0.000546
      f-2     :     0.001005
      f+3     :     0.000691
      f-3     :     0.001489
  1 O s       :     3.823316  s :     3.823316
      pz      :     1.624981  p :     4.638469
      px      :     1.651273
      py      :     1.362215
      dz2     :     0.003691  d :     0.031079
      dxz     :     0.004390
      dyz     :     0.006183
      dx2y2   :     0.007871
      dxy     :     0.008944
  2 C s       :     2.954360  s :     2.954360
      pz      :     0.705553  p :     2.246839
      px      :     0.770702
      py      :     0.770584
      dz2     :     0.007764  d :     0.143574
      dxz     :     0.025264
      dyz     :     0.016542
      dx2y2   :     0.043168
      dxy     :     0.050836
  3 O s       :     3.807324  s :     3.807324
      pz      :     1.577989  p :     4.659496
      px      :     1.358856
      py      :     1.722651
      dz2     :     0.002979  d :     0.027775
      dxz     :     0.009010
      dyz     :     0.001014
      dx2y2   :     0.009273
      dxy     :     0.005499
  4 C s       :     3.420242  s :     3.420242
      pz      :     1.160415  p :     3.315569
      px      :     1.103664
      py      :     1.051491
      dz2     :     0.005246  d :     0.033570
      dxz     :     0.008717
      dyz     :     0.005549
      dx2y2   :     0.003940
      dxy     :     0.010118
  5 H s       :     0.751225  s :     0.751225
  6 H s       :     0.737159  s :     0.737159
  7 H s       :     0.742210  s :     0.742210
  8 N s       :     3.606787  s :     3.606787
      pz      :     1.187114  p :     3.831420
      px      :     1.442076
      py      :     1.202230
      dz2     :     0.007913  d :     0.047782
      dxz     :     0.009295
      dyz     :     0.013380
      dx2y2   :     0.006877
      dxy     :     0.010317
  9 C s       :     3.365630  s :     3.365630
      pz      :     0.987478  p :     3.127796
      px      :     1.130411
      py      :     1.009907
      dz2     :     0.009442  d :     0.048564
      dxz     :     0.007125
      dyz     :     0.014241
      dx2y2   :     0.006540
      dxy     :     0.011215
 10 H s       :     0.704700  s :     0.704700
 11 H s       :     0.781568  s :     0.781568
 12 H s       :     0.724617  s :     0.724617
 13 C s       :     3.366569  s :     3.366569
      pz      :     1.158547  p :     3.125450
      px      :     1.011988
      py      :     0.954916
      dz2     :     0.006180  d :     0.049113
      dxz     :     0.007408
      dyz     :     0.014138
      dx2y2   :     0.009758
      dxy     :     0.011628
 14 H s       :     0.729591  s :     0.729591
 15 H s       :     0.773673  s :     0.773673
 16 H s       :     0.709120  s :     0.709120
 17 C s       :     3.159608  s :     3.159608
      pz      :     0.856244  p :     2.689461
      px      :     0.957741
      py      :     0.875475
      dz2     :     0.010392  d :     0.045348
      dxz     :     0.007081
      dyz     :     0.013453
      dx2y2   :     0.007278
      dxy     :     0.007145
 18 C s       :     3.262220  s :     3.262220
      pz      :     0.951730  p :     2.957758
      px      :     0.970502
      py      :     1.035526
      dz2     :     0.009648  d :     0.040568
      dxz     :     0.007396
      dyz     :     0.013816
      dx2y2   :     0.005466
      dxy     :     0.004241
 19 C s       :     3.247267  s :     3.247267
      pz      :     0.942563  p :     2.914572
      px      :     0.986637
      py      :     0.985372
      dz2     :     0.010187  d :     0.040304
      dxz     :     0.007197
      dyz     :     0.012572
      dx2y2   :     0.004829
      dxy     :     0.005520
 20 C s       :     3.251661  s :     3.251661
      pz      :     1.068759  p :     2.947072
      px      :     0.965883
      py      :     0.912430
      dz2     :     0.013815  d :     0.040725
      dxz     :     0.003590
      dyz     :     0.009848
      dx2y2   :     0.006750
      dxy     :     0.006721
 21 C s       :     3.236823  s :     3.236823
      pz      :     0.935667  p :     2.917210
      px      :     0.985522
      py      :     0.996021
      dz2     :     0.010279  d :     0.040947
      dxz     :     0.007021
      dyz     :     0.013599
      dx2y2   :     0.005261
      dxy     :     0.004787
 22 C s       :     3.261635  s :     3.261635
      pz      :     0.949417  p :     2.951532
      px      :     1.002046
      py      :     1.000070
      dz2     :     0.009561  d :     0.040910
      dxz     :     0.007346
      dyz     :     0.013741
      dx2y2   :     0.004731
      dxy     :     0.005532
 23 H s       :     0.774937  s :     0.774937
 24 H s       :     0.773209  s :     0.773209
 25 H s       :     0.777508  s :     0.777508
 26 H s       :     0.774270  s :     0.774270
 27 H s       :     0.773535  s :     0.773535
 28 C s       :     3.323211  s :     3.323211
      pz      :     0.843569  p :     2.962384
      px      :     1.058153
      py      :     1.060662
      dz2     :     0.016378  d :     0.054115
      dxz     :     0.010071
      dyz     :     0.009762
      dx2y2   :     0.014344
      dxy     :     0.003561
 29 H s       :     0.755890  s :     0.755890
 30 H s       :     0.746695  s :     0.746695
 31 O s       :     3.824499  s :     3.824499
      pz      :     1.428970  p :     4.700154
      px      :     1.632725
      py      :     1.638459
      dz2     :     0.008624  d :     0.026184
      dxz     :     0.004646
      dyz     :     0.006667
      dx2y2   :     0.002629
      dxy     :     0.003617
 32 C s       :     2.957406  s :     2.957406
      pz      :     0.751322  p :     2.327295
      px      :     0.816580
      py      :     0.759394
      dz2     :     0.043164  d :     0.143945
      dxz     :     0.033216
      dyz     :     0.027422
      dx2y2   :     0.020200
      dxy     :     0.019944
 33 O s       :     3.772235  s :     3.772235
      pz      :     1.596778  p :     4.651844
      px      :     1.625609
      py      :     1.429456
      dz2     :     0.005692  d :     0.028336
      dxz     :     0.005892
      dyz     :     0.005961
      dx2y2   :     0.006273
      dxy     :     0.004519
 34 C s       :     3.409645  s :     3.409645
      pz      :     1.150574  p :     3.299032
      px      :     1.011443
      py      :     1.137015
      dz2     :     0.007763  d :     0.033893
      dxz     :     0.008651
      dyz     :     0.003884
      dx2y2   :     0.009844
      dxy     :     0.003749
 35 H s       :     0.768718  s :     0.768718
 36 H s       :     0.751526  s :     0.751526
 37 H s       :     0.760808  s :     0.760808


                     *******************************
                     * LOEWDIN POPULATION ANALYSIS *
                     *******************************

----------------------
LOEWDIN ATOMIC CHARGES
----------------------
   0 Pd:   -0.278245
   1 O :   -0.138446
   2 C :    0.180665
   3 O :   -0.197485
   4 C :   -0.378523
   5 H :    0.148932
   6 H :    0.164728
   7 H :    0.157577
   8 N :   -0.057322
   9 C :   -0.236295
  10 H :    0.163891
  11 H :    0.117967
  12 H :    0.152394
  13 C :   -0.233094
  14 H :    0.150291
  15 H :    0.122861
  16 H :    0.161439
  17 C :   -0.054013
  18 C :   -0.107399
  19 C :   -0.128437
  20 C :   -0.122033
  21 C :   -0.126279
  22 C :   -0.105510
  23 H :    0.136974
  24 H :    0.142168
  25 H :    0.140845
  26 H :    0.142234
  27 H :    0.144425
  28 C :   -0.099971
  29 H :    0.139818
  30 H :    0.147050
  31 O :   -0.194688
  32 C :    0.132197
  33 O :   -0.245271
  34 C :   -0.381126
  35 H :    0.143111
  36 H :    0.152320
  37 H :    0.142250

-------------------------------
LOEWDIN REDUCED ORBITAL CHARGES
-------------------------------
  0 Pds       :     2.484373  s :     2.484373
      pz      :     2.168686  p :     6.722525
      px      :     2.298841
      py      :     2.254999
      dz2     :     2.022899  d :     9.064462
      dxz     :     1.795746
      dyz     :     1.996584
      dx2y2   :     1.811216
      dxy     :     1.438018
      f0      :     0.000830  f :     0.006885
      f+1     :     0.000525
      f-1     :     0.000347
      f+2     :     0.000736
      f-2     :     0.001414
      f+3     :     0.000879
      f-3     :     0.002154
  1 O s       :     3.450328  s :     3.450328
      pz      :     1.585590  p :     4.626572
      px      :     1.629159
      py      :     1.411824
      dz2     :     0.007855  d :     0.061545
      dxz     :     0.006097
      dyz     :     0.010094
      dx2y2   :     0.017867
      dxy     :     0.019631
  2 C s       :     2.801450  s :     2.801450
      pz      :     0.727886  p :     2.697156
      px      :     0.989451
      py      :     0.979818
      dz2     :     0.019197  d :     0.320729
      dxz     :     0.052019
      dyz     :     0.033306
      dx2y2   :     0.095906
      dxy     :     0.120300
  3 O s       :     3.481397  s :     3.481397
      pz      :     1.547966  p :     4.662484
      px      :     1.442415
      py      :     1.672104
      dz2     :     0.006496  d :     0.053603
      dxz     :     0.012362
      dyz     :     0.001696
      dx2y2   :     0.020843
      dxy     :     0.012206
  4 C s       :     2.954358  s :     2.954358
      pz      :     1.144736  p :     3.361340
      px      :     1.118289
      py      :     1.098314
      dz2     :     0.009091  d :     0.062826
      dxz     :     0.015168
      dyz     :     0.010234
      dx2y2   :     0.008141
      dxy     :     0.020192
  5 H s       :     0.851068  s :     0.851068
  6 H s       :     0.835272  s :     0.835272
  7 H s       :     0.842423  s :     0.842423
  8 N s       :     3.106492  s :     3.106492
      pz      :     1.210345  p :     3.844872
      px      :     1.403870
      py      :     1.230657
      dz2     :     0.018069  d :     0.105959
      dxz     :     0.019293
      dyz     :     0.031446
      dx2y2   :     0.014750
      dxy     :     0.022400
  9 C s       :     2.947561  s :     2.947561
      pz      :     1.024951  p :     3.195725
      px      :     1.130781
      py      :     1.039993
      dz2     :     0.018168  d :     0.093009
      dxz     :     0.013624
      dyz     :     0.028755
      dx2y2   :     0.011974
      dxy     :     0.020489
 10 H s       :     0.836109  s :     0.836109
 11 H s       :     0.882033  s :     0.882033
 12 H s       :     0.847606  s :     0.847606
 13 C s       :     2.943100  s :     2.943100
      pz      :     1.132302  p :     3.195235
      px      :     1.049521
      py      :     1.013413
      dz2     :     0.011142  d :     0.094759
      dxz     :     0.013812
      dyz     :     0.025803
      dx2y2   :     0.020325
      dxy     :     0.023677
 14 H s       :     0.849709  s :     0.849709
 15 H s       :     0.877139  s :     0.877139
 16 H s       :     0.838561  s :     0.838561
 17 C s       :     2.840309  s :     2.840309
      pz      :     1.027637  p :     3.104797
      px      :     0.993823
      py      :     1.083337
      dz2     :     0.026277  d :     0.108907
      dxz     :     0.015192
      dyz     :     0.033786
      dx2y2   :     0.016842
      dxy     :     0.016811
 18 C s       :     2.883829  s :     2.883829
      pz      :     1.086490  p :     3.131133
      px      :     0.985144
      py      :     1.059499
      dz2     :     0.025246  d :     0.092437
      dxz     :     0.016322
      dyz     :     0.032960
      dx2y2   :     0.009771
      dxy     :     0.008138
 19 C s       :     2.886674  s :     2.886674
      pz      :     1.088421  p :     3.149874
      px      :     0.995146
      py      :     1.066306
      dz2     :     0.026477  d :     0.091889
      dxz     :     0.015381
      dyz     :     0.030857
      dx2y2   :     0.008972
      dxy     :     0.010201
 20 C s       :     2.885312  s :     2.885312
      pz      :     1.082426  p :     3.144214
      px      :     0.986917
      py      :     1.074871
      dz2     :     0.028783  d :     0.092507
      dxz     :     0.007141
      dyz     :     0.025389
      dx2y2   :     0.015619
      dxy     :     0.015575
 21 C s       :     2.883865  s :     2.883865
      pz      :     1.087560  p :     3.148542
      px      :     0.993361
      py      :     1.067620
      dz2     :     0.026979  d :     0.093871
      dxz     :     0.015668
      dyz     :     0.032841
      dx2y2   :     0.009648
      dxy     :     0.008735
 22 C s       :     2.872523  s :     2.872523
      pz      :     1.087192  p :     3.139113
      px      :     0.987643
      py      :     1.064278
      dz2     :     0.025277  d :     0.093875
      dxz     :     0.015293
      dyz     :     0.033874
      dx2y2   :     0.009222
      dxy     :     0.010209
 23 H s       :     0.863026  s :     0.863026
 24 H s       :     0.857832  s :     0.857832
 25 H s       :     0.859155  s :     0.859155
 26 H s       :     0.857766  s :     0.857766
 27 H s       :     0.855575  s :     0.855575
 28 C s       :     2.896022  s :     2.896022
      pz      :     0.970781  p :     3.092925
      px      :     1.063557
      py      :     1.058587
      dz2     :     0.035487  d :     0.111024
      dxz     :     0.021793
      dyz     :     0.021066
      dx2y2   :     0.025530
      dxy     :     0.007147
 29 H s       :     0.860182  s :     0.860182
 30 H s       :     0.852950  s :     0.852950
 31 O s       :     3.461572  s :     3.461572
      pz      :     1.463110  p :     4.677990
      px      :     1.601328
      py      :     1.613552
      dz2     :     0.017564  d :     0.055126
      dxz     :     0.012890
      dyz     :     0.013177
      dx2y2   :     0.005478
      dxy     :     0.006016
 32 C s       :     2.807114  s :     2.807114
      pz      :     0.920567  p :     2.733762
      px      :     0.967003
      py      :     0.846192
      dz2     :     0.100573  d :     0.326927
      dxz     :     0.071309
      dyz     :     0.067436
      dx2y2   :     0.043211
      dxy     :     0.044398
 33 O s       :     3.496383  s :     3.496383
      pz      :     1.603987  p :     4.694007
      px      :     1.631368
      py      :     1.458652
      dz2     :     0.010005  d :     0.054881
      dxz     :     0.011292
      dyz     :     0.013694
      dx2y2   :     0.008875
      dxy     :     0.011015
 34 C s       :     2.960962  s :     2.960962
      pz      :     1.136169  p :     3.357288
      px      :     1.087828
      py      :     1.133291
      dz2     :     0.013771  d :     0.062877
      dxz     :     0.015980
      dyz     :     0.006066
      dx2y2   :     0.018877
      dxy     :     0.008182
 35 H s       :     0.856889  s :     0.856889
 36 H s       :     0.847680  s :     0.847680
 37 H s       :     0.857750  s :     0.857750


                      *****************************
                      * MAYER POPULATION ANALYSIS *
                      *****************************

  NA   - Mulliken gross atomic population
  ZA   - Total nuclear charge
  QA   - Mulliken gross atomic charge
  VA   - Mayer's total valence
  BVA  - Mayer's bonded valence
  FA   - Mayer's free valence

  ATOM       NA         ZA         QA         VA         BVA        FA
  0 Pd    17.4585    18.0000     0.5415     2.3713     2.3713     0.0000
  1 O      8.4929     8.0000    -0.4929     2.1529     2.1529     0.0000
  2 C      5.3448     6.0000     0.6552     3.8903     3.8903     0.0000
  3 O      8.4946     8.0000    -0.4946     2.1534     2.1534     0.0000
  4 C      6.7694     6.0000    -0.7694     3.6841     3.6841    -0.0000
  5 H      0.7512     1.0000     0.2488     0.9024     0.9024     0.0000
  6 H      0.7372     1.0000     0.2628     0.8945     0.8945    -0.0000
  7 H      0.7422     1.0000     0.2578     0.8975     0.8975    -0.0000
  8 N      7.4860     7.0000    -0.4860     3.1473     3.1473    -0.0000
  9 C      6.5420     6.0000    -0.5420     3.6005     3.6005    -0.0000
 10 H      0.7047     1.0000     0.2953     0.8976     0.8976    -0.0000
 11 H      0.7816     1.0000     0.2184     0.9057     0.9057    -0.0000
 12 H      0.7246     1.0000     0.2754     0.8964     0.8964     0.0000
 13 C      6.5411     6.0000    -0.5411     3.6066     3.6066     0.0000
 14 H      0.7296     1.0000     0.2704     0.8920     0.8920    -0.0000
 15 H      0.7737     1.0000     0.2263     0.9089     0.9089     0.0000
 16 H      0.7091     1.0000     0.2909     0.8853     0.8853     0.0000
 17 C      5.8944     6.0000     0.1056     3.7131     3.7131     0.0000
 18 C      6.2605     6.0000    -0.2605     3.8574     3.8574     0.0000
 19 C      6.2021     6.0000    -0.2021     3.8085     3.8085     0.0000
 20 C      6.2395     6.0000    -0.2395     3.8262     3.8262    -0.0000
 21 C      6.1950     6.0000    -0.1950     3.8175     3.8175    -0.0000
 22 C      6.2541     6.0000    -0.2541     3.8227     3.8227     0.0000
 23 H      0.7749     1.0000     0.2251     0.9077     0.9077     0.0000
 24 H      0.7732     1.0000     0.2268     0.9095     0.9095    -0.0000
 25 H      0.7775     1.0000     0.2225     0.9142     0.9142    -0.0000
 26 H      0.7743     1.0000     0.2257     0.9100     0.9100    -0.0000
 27 H      0.7735     1.0000     0.2265     0.9114     0.9114    -0.0000
 28 C      6.3397     6.0000    -0.3397     3.6080     3.6080    -0.0000
 29 H      0.7559     1.0000     0.2441     0.8985     0.8985    -0.0000
 30 H      0.7467     1.0000     0.2533     0.9011     0.9011     0.0000
 31 O      8.5508     8.0000    -0.5508     2.0710     2.0710     0.0000
 32 C      5.4286     6.0000     0.5714     4.0340     4.0340    -0.0000
 33 O      8.4524     8.0000    -0.4524     2.1313     2.1313     0.0000
 34 C      6.7426     6.0000    -0.7426     3.6947     3.6947     0.0000
 35 H      0.7687     1.0000     0.2313     0.9072     0.9072     0.0000
 36 H      0.7515     1.0000     0.2485     0.9000     0.9000    -0.0000
 37 H      0.7608     1.0000     0.2392     0.9073     0.9073    -0.0000

  Mayer bond orders larger than 0.100000
B(  0-Pd,  1-O ) :   0.6088 B(  0-Pd,  3-O ) :   0.4100 B(  0-Pd,  8-N ) :   0.4170 
B(  0-Pd, 31-O ) :   0.6552 B(  0-Pd, 33-O ) :   0.1204 B(  1-O ,  2-C ) :   1.3560 
B(  1-O ,  3-O ) :   0.1009 B(  2-C ,  3-O ) :   1.5835 B(  2-C ,  4-C ) :   0.9556 
B(  4-C ,  5-H ) :   0.9127 B(  4-C ,  6-H ) :   0.9013 B(  4-C ,  7-H ) :   0.9060 
B(  8-N ,  9-C ) :   0.9141 B(  8-N , 13-C ) :   0.9212 B(  8-N , 28-C ) :   0.8776 
B(  9-C , 10-H ) :   0.8824 B(  9-C , 11-H ) :   0.9028 B(  9-C , 12-H ) :   0.8985 
B( 13-C , 14-H ) :   0.8972 B( 13-C , 15-H ) :   0.9025 B( 13-C , 16-H ) :   0.8933 
B( 17-C , 18-C ) :   1.4024 B( 17-C , 22-C ) :   1.3915 B( 17-C , 28-C ) :   0.9439 
B( 18-C , 19-C ) :   1.4388 B( 18-C , 25-H ) :   0.9148 B( 19-C , 20-C ) :   1.4166 
B( 19-C , 26-H ) :   0.9183 B( 20-C , 21-C ) :   1.4236 B( 20-C , 23-H ) :   0.9175 
B( 21-C , 22-C ) :   1.4393 B( 21-C , 24-H ) :   0.9172 B( 22-C , 27-H ) :   0.9155 
B( 28-C , 29-H ) :   0.8973 B( 28-C , 30-H ) :   0.9149 B( 31-O , 32-C ) :   1.2428 
B( 32-C , 33-O ) :   1.8644 B( 32-C , 34-C ) :   0.9341 B( 34-C , 35-H ) :   0.9154 
B( 34-C , 36-H ) :   0.9096 B( 34-C , 37-H ) :   0.9206 


------------------
HIRSHFELD ANALYSIS
------------------

Total integrated alpha density =     76.999605506
Total integrated beta density  =     76.999605506

  ATOM     CHARGE      SPIN    
   0 Pd   0.610050    0.000000
   1 O   -0.303719    0.000000
   2 C    0.209666    0.000000
   3 O   -0.349074    0.000000
   4 C   -0.070055    0.000000
   5 H    0.046141    0.000000
   6 H    0.054683    0.000000
   7 H    0.048060    0.000000
   8 N   -0.079490    0.000000
   9 C   -0.022540    0.000000
  10 H    0.048007    0.000000
  11 H    0.029870    0.000000
  12 H    0.043011    0.000000
  13 C   -0.026019    0.000000
  14 H    0.041316    0.000000
  15 H    0.034267    0.000000
  16 H    0.050082    0.000000
  17 C   -0.016520    0.000000
  18 C   -0.039098    0.000000
  19 C   -0.037417    0.000000
  20 C   -0.035869    0.000000
  21 C   -0.036011    0.000000
  22 C   -0.042575    0.000000
  23 H    0.043559    0.000000
  24 H    0.051827    0.000000
  25 H    0.043254    0.000000
  26 H    0.050921    0.000000
  27 H    0.039442    0.000000
  28 C    0.010482    0.000000
  29 H    0.037808    0.000000
  30 H    0.041533    0.000000
  31 O   -0.337973    0.000000
  32 C    0.195596    0.000000
  33 O   -0.367637    0.000000
  34 C   -0.081495    0.000000
  35 H    0.037397    0.000000
  36 H    0.042268    0.000000
  37 H    0.037044    0.000000

  TOTAL   0.000789    0.000000

-------
TIMINGS
-------

Total SCF time: 0 days 0 hours 12 min 35 sec 

Total time                  ....     755.836 sec
Sum of individual times     ....     753.763 sec  ( 99.7%)

Fock matrix formation       ....     746.908 sec  ( 98.8%)
  Split-RI-J                ....     112.547 sec  ( 15.1% of F)
  Chain of spheres X        ....     581.236 sec  ( 77.8% of F)
  XC integration            ....      52.900 sec  (  7.1% of F)
    Basis function eval.    ....      17.553 sec  ( 33.2% of XC)
    Density eval.           ....      13.345 sec  ( 25.2% of XC)
    XC-Functional eval.     ....       2.284 sec  (  4.3% of XC)
    XC-Potential eval.      ....      16.172 sec  ( 30.6% of XC)
Diagonalization             ....       0.309 sec  (  0.0%)
Density matrix formation    ....       0.067 sec  (  0.0%)
Population analysis         ....       0.971 sec  (  0.1%)
Initial guess               ....       0.048 sec  (  0.0%)
Orbital Transformation      ....       0.279 sec  (  0.0%)
Orbital Orthonormalization  ....       0.000 sec  (  0.0%)
DIIS solution               ....       0.111 sec  (  0.0%)
Grid generation             ....       5.070 sec  (  0.7%)

Maximum memory used throughout the entire SCF-calculation: 155.2 MB


-------------------------------------------------------------------------------
                          DFT DISPERSION CORRECTION                            
                                                                               
                              DFTD3 V3.1  Rev 1                                
                          USING Becke-Johnson damping                          
-------------------------------------------------------------------------------
The PBEh-3c composite method is recognized
Using three-body term ABC
Active option DFTDOPT                   ...         4   

molecular C6(AA) [au] = 16263.649640 


            DFT-D V3
 parameters
 s6 scaling factor         :     1.0000 
 a1 scaling factor         :     0.4860 
 s8 scaling factor         :     0.0000 
 a2 scaling factor         :     4.5000 
 Damping factor alpha9(ATM):    16.0000 
 ad hoc parameters k1-k3   :    16.0000     1.3333    -4.0000 

 Edisp/kcal,au: -16.380484778444  -0.026103961308 
 E6   /kcal   : -16.587759904 
 E8   /kcal   :  -0.000000000 
 E6(ABC)      :   0.207275125 
 % E8         :   0.000000000 
 % E6(ABC)    :  -1.265378455 

-------------------------   ----------------
Dispersion correction           -0.026103961
-------------------------   ----------------

 ** NOTE ** -> element pd will be treated as ni
------------------   -----------------
gCP correction             0.076348497
------------------   -----------------

-------------------------   --------------------
FINAL SINGLE POINT ENERGY      -988.542361557710
-------------------------   --------------------

------------------------------------------------------------------------------
                         ORCA SCF GRADIENT CALCULATION
------------------------------------------------------------------------------

 ... reading COSX grid (gridx3)
Gradient of the Kohn-Sham DFT energy:
Kohn-Sham wavefunction type      ... RKS
Hartree-Fock exchange scaling    ...    0.420
Number of operators              ...    1
Number of atoms                  ...   38
Basis set dimensions             ...  339
Integral neglect threshold       ... 2.5e-11
Integral primitive cutoff        ... 2.5e-12
SHARK Integral package           ... ON

Nuc. rep. gradient       (SHARK) ... done (  0.0 sec)
HCore & Overlap gradient (SHARK) ... done (  1.2 sec)
ECP gradient             (SHARK) ... done (  2.1 sec)
RI-J gradient            (SHARK) ... done (  6.0 sec)
COSX-gradient                    ... done ( 55.8 sec)
Exchange-correlation gradient    ... done
Dispersion correction            ... done
gCP correction                   ... done

------------------
CARTESIAN GRADIENT
------------------

   1   Pd  :   -0.005372316    0.000443233    0.001326950
   2   O   :   -0.005261697    0.001434197    0.001139513
   3   C   :    0.000902760   -0.000425804    0.000829578
   4   O   :    0.006222810    0.001235111   -0.002171470
   5   C   :    0.001558776    0.002315902    0.000491987
   6   H   :    0.002426826    0.000776065    0.000242920
   7   H   :    0.001284535   -0.001131520    0.001427695
   8   H   :   -0.001179560   -0.000350332   -0.002857986
   9   N   :    0.002733404   -0.000399679   -0.001813607
  10   C   :   -0.000538391   -0.001308402   -0.002368615
  11   H   :    0.000045486   -0.000495952   -0.001952783
  12   H   :   -0.001574118   -0.000801951    0.001119020
  13   H   :   -0.001473594   -0.001126028    0.001413260
  14   C   :   -0.000556563   -0.001039694   -0.001354138
  15   H   :   -0.000810900   -0.000802191    0.000512728
  16   H   :   -0.001462718   -0.001125376    0.000110192
  17   H   :   -0.000472515   -0.000896819   -0.000100618
  18   C   :    0.002978027    0.008455302   -0.002221499
  19   C   :    0.003582771   -0.002962225    0.014256350
  20   C   :    0.002773808   -0.002717040   -0.000852789
  21   C   :   -0.008384484    0.005826206   -0.003542241
  22   C   :    0.001099006   -0.001740944   -0.008302009
  23   C   :   -0.003326903    0.011227842    0.005567365
  24   H   :   -0.002338710   -0.000051883   -0.015724653
  25   H   :   -0.002895910    0.005163404    0.004547953
  26   H   :   -0.002342432    0.003260660   -0.001801044
  27   H   :    0.000945656   -0.003390578   -0.003612003
  28   H   :    0.011700355   -0.020006728    0.015786579
  29   C   :    0.001832408    0.001647004    0.007396000
  30   H   :   -0.006871451   -0.000839922   -0.003978951
  31   H   :   -0.001363093   -0.003467806   -0.004223877
  32   O   :    0.000375752    0.003722923    0.000511786
  33   C   :   -0.002740404    0.003843331   -0.005347471
  34   O   :    0.005642796   -0.008062823    0.007898660
  35   C   :    0.002739173    0.000590283   -0.001445837
  36   H   :    0.000537891    0.003067188    0.000183563
  37   H   :   -0.000801574   -0.001045480   -0.001725448
  38   H   :   -0.000065809    0.001443213   -0.000183037

Difference to translation invariance:
           :   -0.0004508998    0.0002626880   -0.0008179776

Difference to rotation invariance:
           :   -0.0000706582    0.0003902571    0.0008825153

Norm of the cartesian gradient     ...    0.0490939461
RMS gradient                       ...    0.0045980693
MAX gradient                       ...    0.0200067278

-------
TIMINGS
-------

Total SCF gradient time            ...       74.666 sec

One electron gradient       ....       3.278 sec  (  4.4%)
RI-J Coulomb gradient       ....       5.952 sec  (  8.0%)
COSX gradient               ....      55.772 sec  ( 74.7%)
XC gradient                 ....       8.291 sec  ( 11.1%)

Maximum memory used throughout the entire SCFGRAD-calculation: 123.1 MB

                            ***************************************
                            *     ORCA property calculations      *
                            ***************************************

                                    ---------------------
                                    Active property flags
                                    ---------------------
   (+) Dipole Moment


------------------------------------------------------------------------------
                       ORCA ELECTRIC PROPERTIES CALCULATION
------------------------------------------------------------------------------

Dipole Moment Calculation                       ... on
Quadrupole Moment Calculation                   ... off
Polarizability Calculation                      ... off
GBWName                                         ... 3_30_orca.gbw
Electron density                                ... 3_30_orca.scfp
The origin for moment calculation is the CENTER OF MASS  = ( 0.486428,  0.316953 -0.172109)

-------------
DIPOLE MOMENT
-------------
                                X             Y             Z
Electronic contribution:     23.84749      19.28297     -25.35715
Nuclear contribution   :    -25.46168     -19.70311      26.20782
                        -----------------------------------------
Total Dipole Moment    :     -1.61419      -0.42014       0.85068
                        -----------------------------------------
Magnitude (a.u.)       :      1.87237
Magnitude (Debye)      :      4.75920



--------------------
Rotational spectrum 
--------------------
 
Rotational constants in cm-1:     0.014387     0.008469     0.007017 
Rotational constants in MHz :   431.312872   253.895393   210.361333 

 Dipole components along the rotational axes: 
x,y,z [a.u.] :     1.689836    -0.625176     0.509311 
x,y,z [Debye]:     4.295221    -1.589070     1.294566 

 

Timings for individual modules:

Sum of individual times         ...      831.530 sec (=  13.859 min)
GTO integral calculation        ...        0.932 sec (=   0.016 min)   0.1 %
SCF iterations                  ...      755.875 sec (=  12.598 min)  90.9 %
SCF Gradient evaluation         ...       74.723 sec (=   1.245 min)   9.0 %
                             ****ORCA TERMINATED NORMALLY****
TOTAL RUN TIME: 0 days 0 hours 13 minutes 52 seconds 83 msec
