
                                 *****************
                                 * O   R   C   A *
                                 *****************

                                            #,                                       
                                            ###                                      
                                            ####                                     
                                            #####                                    
                                            ######                                   
                                           ########,                                 
                                     ,,################,,,,,                         
                               ,,#################################,,                 
                          ,,##########################################,,             
                       ,#########################################, ''#####,          
                    ,#############################################,,   '####,        
                  ,##################################################,,,,####,       
                ,###########''''           ''''###############################       
              ,#####''   ,,,,##########,,,,          '''####'''          '####       
            ,##' ,,,,###########################,,,                        '##       
           ' ,,###''''                  '''############,,,                           
         ,,##''                                '''############,,,,        ,,,,,,###''
      ,#''                                            '''#######################'''  
     '                                                          ''''####''''         
             ,#######,   #######,   ,#######,      ##                                
            ,#'     '#,  ##    ##  ,#'     '#,    #''#        ######   ,####,        
            ##       ##  ##   ,#'  ##            #'  '#       #        #'  '#        
            ##       ##  #######   ##           ,######,      #####,   #    #        
            '#,     ,#'  ##    ##  '#,     ,#' ,#      #,         ##   #,  ,#        
             '#######'   ##     ##  '#######'  #'      '#     #####' # '####'        



                  #######################################################
                  #                        -***-                        #
                  #          Department of theory and spectroscopy      #
                  #    Directorship and core code : Frank Neese         #
                  #        Max Planck Institute fuer Kohlenforschung    #
                  #                Kaiser Wilhelm Platz 1               #
                  #                 D-45470 Muelheim/Ruhr               #
                  #                      Germany                        #
                  #                                                     #
                  #                  All rights reserved                #
                  #                        -***-                        #
                  #######################################################


                         Program Version 5.0.4 -  RELEASE  -


 With contributions from (in alphabetic order):
   Daniel Aravena         : Magnetic Suceptibility
   Michael Atanasov       : Ab Initio Ligand Field Theory (pilot matlab implementation)
   Alexander A. Auer      : GIAO ZORA, VPT2 properties, NMR spectrum
   Ute Becker             : Parallelization
   Giovanni Bistoni       : ED, misc. LED, open-shell LED, HFLD
   Martin Brehm           : Molecular dynamics
   Dmytro Bykov           : SCF Hessian
   Vijay G. Chilkuri      : MRCI spin determinant printing, contributions to CSF-ICE
   Dipayan Datta          : RHF DLPNO-CCSD density
   Achintya Kumar Dutta   : EOM-CC, STEOM-CC
   Dmitry Ganyushin       : Spin-Orbit,Spin-Spin,Magnetic field MRCI
   Miquel Garcia          : C-PCM and meta-GGA Hessian, CC/C-PCM, Gaussian charge scheme
   Yang Guo               : DLPNO-NEVPT2, F12-NEVPT2, CIM, IAO-localization
   Andreas Hansen         : Spin unrestricted coupled pair/coupled cluster methods
   Benjamin Helmich-Paris : MC-RPA, TRAH-SCF, COSX integrals
   Lee Huntington         : MR-EOM, pCC
   Robert Izsak           : Overlap fitted RIJCOSX, COSX-SCS-MP3, EOM
   Marcus Kettner         : VPT2
   Christian Kollmar      : KDIIS, OOCD, Brueckner-CCSD(T), CCSD density, CASPT2, CASPT2-K
   Simone Kossmann        : Meta GGA functionals, TD-DFT gradient, OOMP2, MP2 Hessian
   Martin Krupicka        : Initial AUTO-CI
   Lucas Lang             : DCDCAS
   Marvin Lechner         : AUTO-CI (C++ implementation), FIC-MRCC
   Dagmar Lenk            : GEPOL surface, SMD
   Dimitrios Liakos       : Extrapolation schemes; Compound Job, initial MDCI parallelization
   Dimitrios Manganas     : Further ROCIS development; embedding schemes
   Dimitrios Pantazis     : SARC Basis sets
   Anastasios Papadopoulos: AUTO-CI, single reference methods and gradients
   Taras Petrenko         : DFT Hessian,TD-DFT gradient, ASA, ECA, R-Raman, ABS, FL, XAS/XES, NRVS
   Peter Pinski           : DLPNO-MP2, DLPNO-MP2 Gradient
   Christoph Reimann      : Effective Core Potentials
   Marius Retegan         : Local ZFS, SOC
   Christoph Riplinger    : Optimizer, TS searches, QM/MM, DLPNO-CCSD(T), (RO)-DLPNO pert. Triples
   Tobias Risthaus        : Range-separated hybrids, TD-DFT gradient, RPA, STAB
   Michael Roemelt        : Original ROCIS implementation
   Masaaki Saitow         : Open-shell DLPNO-CCSD energy and density
   Barbara Sandhoefer     : DKH picture change effects
   Avijit Sen             : IP-ROCIS
   Kantharuban Sivalingam : CASSCF convergence, NEVPT2, FIC-MRCI
   Bernardo de Souza      : ESD, SOC TD-DFT
   Georgi Stoychev        : AutoAux, RI-MP2 NMR, DLPNO-MP2 response
   Willem Van den Heuvel  : Paramagnetic NMR
   Boris Wezisla          : Elementary symmetry handling
   Frank Wennmohs         : Technical directorship


 We gratefully acknowledge several colleagues who have allowed us to
 interface, adapt or use parts of their codes:
   Stefan Grimme, W. Hujo, H. Kruse, P. Pracht,  : VdW corrections, initial TS optimization,
                  C. Bannwarth, S. Ehlert          DFT functionals, gCP, sTDA/sTD-DF
   Ed Valeev, F. Pavosevic, A. Kumar             : LibInt (2-el integral package), F12 methods
   Garnet Chan, S. Sharma, J. Yang, R. Olivares  : DMRG
   Ulf Ekstrom                                   : XCFun DFT Library
   Mihaly Kallay                                 : mrcc  (arbitrary order and MRCC methods)
   Jiri Pittner, Ondrej Demel                    : Mk-CCSD
   Frank Weinhold                                : gennbo (NPA and NBO analysis)
   Christopher J. Cramer and Donald G. Truhlar   : smd solvation model
   Lars Goerigk                                  : TD-DFT with DH, B97 family of functionals
   V. Asgeirsson, H. Jonsson                     : NEB implementation
   FAccTs GmbH                                   : IRC, NEB, NEB-TS, DLPNO-Multilevel, CI-OPT
                                                   MM, QMMM, 2- and 3-layer-ONIOM, Crystal-QMMM,
                                                   LR-CPCM, SF, NACMEs, symmetry and pop. for TD-DFT,
                                                   nearIR, NL-DFT gradient (VV10), updates on ESD,
                                                   ML-optimized integration grids
   S Lehtola, MJT Oliveira, MAL Marques          : LibXC Library
   Liviu Ungur et al                             : ANISO software


 Your calculation uses the libint2 library for the computation of 2-el integrals
 For citations please refer to: http://libint.valeyev.net

 Your ORCA version has been built with support for libXC version: 5.1.0
 For citations please refer to: https://tddft.org/programs/libxc/

 This ORCA versions uses:
   CBLAS   interface :  Fast vector & matrix operations
   LAPACKE interface :  Fast linear algebra routines
   SCALAPACK package :  Parallel linear algebra routines
   Shared memory     :  Shared parallel matrices
   BLAS/LAPACK       :  OpenBLAS 0.3.15  USE64BITINT DYNAMIC_ARCH NO_AFFINITY SkylakeX SINGLE_THREADED
        Core in use  :  SkylakeX
   Copyright (c) 2011-2014, The OpenBLAS Project




***************************************
The coordinates will be read from file: reaction-2-rct-xtb.xyz
***************************************


Your calculation utilizes the geometrical counterpoise correction gCP
Please cite in your paper:
H.Kruse, S. Grimme J.Chem.Phys., 136, (2012), 154101 
   

Your calculation utilizes the atom-pairwise dispersion correction
with the Becke-Johnson damping scheme (D3BJ)
Cite in your paper:
S.Grimme, S.Ehrlich, L.Goerigk, J Comput Chem, (2011), 32, 1456–1465 
S.Grimme, J.Antony, S.Ehrlich and H.Krieg, J.Chem.Phys., 132, (2010), 154104 
   

Your calculation employs the composite approach PBEh-3c.
Please cite in your paper:
S. Grimme, J. G. Brandenburg, C. Bannwarth, A. Hansen J.Chem.Phys., 143, (2015), 054107 
   

================================================================================

cite the ECPs for Pd [Def2-ECP] as follows:
Ce-Yb(ecp-28): M. Dolg, H. Stoll, H.Preuss, J. Chem. Phys., 1989, 90, 1730-1734.
Y-Cd(ecp-28), Hf-Hg(ecp-46): D. Andrae,U. Haeussermann, M. Dolg, H. Stoll, H. Preuss, Theor. Chim. Acta, 1990, 77, 123-141.
In-Sb(ecp-28), Tl-Bi(ecp-46): B. Metz, H. Stoll, M. Dolg, J. Chem. Phys., 2000, 113, 2563-2569.
Te-Xe(ecp-28), Po-Rn(ecp-46): K. A. Peterson, D. Figgen, E. Goll, H. Stoll, M. Dolg, J. Chem. Phys., 2003, 119, 11113-11123.
Rb(ecp-28), Cs(ecp-46): T. Leininger, A. Nicklass, W. Kuechle, H. Stoll, M. Dolg, A. Bergner, Chem. Phys. Lett., 1996, 255, 274-280.
Sr(ecp-28), Ba(ecp-46): M. Kaupp, P. V. Schleyer, H. Stoll and H. Preuss, J. Chem. Phys., 1991, 94, 1360-1366.
La(ecp-46): M. Dolg, H. Stoll, A. Savin, H. Preuss, Theor. Chim. Acta, 1989, 75, 173-194.
Lu(ecp-28): X. Cao, M. Dolg, J. Chem. Phys., 2001, 115, 7348-7355.

ECP parameters for Pd [Def2-ECP] have been obtained from:
TURBOMOLE (7.0.2)

----- Orbital basis set information -----
Your calculation utilizes the basis: def2-mSVP

----- AuxJ basis set information -----
Your calculation utilizes the auxiliary basis: def2/J
   F. Weigend, Phys. Chem. Chem. Phys. 8, 1057 (2006).

================================================================================
                                        WARNINGS
                       Please study these warnings very carefully!
================================================================================


WARNING: Geometry Optimization
  ===> : Switching off AutoStart
         For restart on a previous wavefunction, please use MOREAD

INFO   : the flag for use of the SHARK integral package has been found!

================================================================================
                                       INPUT FILE
================================================================================
NAME = reaction-2-rct-pbeh3c-orca_opt.inp
|  1> ! PBEh-3c OPT pal4
|  2> 
|  3> %geom
|  4>  maxiter 600
|  5> end 
|  6> 
|  7> *xyzfile -1 1 reaction-2-rct-xtb.xyz
|  8> 
|  9>                          ****END OF INPUT****
================================================================================

                       *****************************
                       * Geometry Optimization Run *
                       *****************************

Geometry optimization settings:
Update method            Update   .... BFGS
Choice of coordinates    CoordSys .... Z-matrix Internals
Initial Hessian          InHess   .... Almoef's Model

Convergence Tolerances:
Energy Change            TolE     ....  5.0000e-06 Eh
Max. Gradient            TolMAXG  ....  3.0000e-04 Eh/bohr
RMS Gradient             TolRMSG  ....  1.0000e-04 Eh/bohr
Max. Displacement        TolMAXD  ....  4.0000e-03 bohr
RMS Displacement         TolRMSD  ....  2.0000e-03 bohr
Strict Convergence                ....  False
------------------------------------------------------------------------------
                        ORCA OPTIMIZATION COORDINATE SETUP
------------------------------------------------------------------------------

The optimization will be done in new redundant internal coordinates
Making redundant internal coordinates   ...  (new redundants) done
Evaluating the initial hessian          ...  (Almloef) done
Evaluating the coordinates              ...  done
Calculating the B-matrix                .... done
Calculating the G-matrix                .... done
Diagonalizing the G-matrix              .... done
The first mode is                       ....  111
The number of degrees of freedom        ....   75

    -----------------------------------------------------------------
                    Redundant Internal Coordinates


    -----------------------------------------------------------------
         Definition                    Initial Value    Approx d2E/dq
    -----------------------------------------------------------------
      1. B(Cl  1,Pd  0)                  2.2313         0.645114   
      2. B(Cl  2,Pd  0)                  2.3098         0.483399   
      3. B(Cl  3,Pd  0)                  2.3100         0.483181   
      4. B(N   4,Pd  0)                  1.9550         0.710509   
      5. B(C   5,N   4)                  1.3307         0.695815   
      6. B(C   5,Pd  0)                  2.6953         0.052283   
      7. B(C   6,C   5)                  1.3857         0.634701   
      8. B(C   7,C   6)                  1.3763         0.657118   
      9. B(C   8,N   4)                  1.3562         0.633589   
     10. B(C   9,C   8)                  1.4204         0.558771   
     11. B(C   9,C   7)                  1.4023         0.597279   
     12. B(H  10,C   7)                  1.0808         0.372506   
     13. B(H  11,C   5)                  1.0927         0.356583   
     14. B(H  12,C   6)                  1.0791         0.374799   
     15. B(C  13,C   8)                  1.4464         0.507844   
     16. B(C  14,C   9)                  1.4220         0.555448   
     17. B(C  15,C  14)                  1.3506         0.722180   
     18. B(C  16,C  15)                  1.4208         0.557987   
     19. B(C  16,C  13)                  1.4212         0.557141   
     20. B(H  17,C  14)                  1.0814         0.371606   
     21. B(H  18,C  15)                  1.0816         0.371403   
     22. B(C  19,C  13)                  1.4098         0.581042   
     23. B(C  20,C  16)                  1.4046         0.592235   
     24. B(C  21,C  19)                  1.3729         0.665193   
     25. B(C  22,C  21)                  1.3959         0.611328   
     26. B(C  22,C  20)                  1.3695         0.673758   
     27. B(H  23,C  20)                  1.0820         0.370869   
     28. B(H  24,C  22)                  1.0808         0.372411   
     29. B(H  25,C  19)                  1.1036         0.342597   
     30. B(H  25,Pd  0)                  2.1129         0.085020   
     31. B(H  26,C  21)                  1.0798         0.373823   
     32. A(N   4,Pd  0,C   5)           27.8743         0.358633   
     33. A(Cl  1,Pd  0,Cl  3)           92.8699         0.565030   
     34. A(Cl  3,Pd  0,N   4)           87.0809         0.553485   
     35. A(Cl  3,Pd  0,C   5)           86.7245         0.347835   
     36. A(Cl  3,Pd  0,H  25)           90.9730         0.351075   
     37. A(Cl  1,Pd  0,C   5)          150.2864         0.365334   
     38. A(Cl  2,Pd  0,Cl  3)          173.6084         0.534930   
     39. A(Cl  1,Pd  0,Cl  2)           92.8199         0.565078   
     40. A(Cl  2,Pd  0,H  25)           90.9732         0.351102   
     41. A(Cl  2,Pd  0,C   5)           86.8906         0.347862   
     42. A(C   5,Pd  0,H  25)          110.3601         0.241134   
     43. A(Cl  1,Pd  0,H  25)           99.3534         0.368793   
     44. A(Cl  2,Pd  0,N   4)           87.1388         0.553532   
     45. A(N   4,Pd  0,H  25)           82.4859         0.362007   
     46. A(Pd  0,N   4,C   8)          131.5790         0.496243   
     47. A(Pd  0,N   4,C   5)          108.7420         0.504971   
     48. A(C   5,N   4,C   8)          119.6790         0.439104   
     49. A(C   6,C   5,H  11)          119.9752         0.353724   
     50. A(N   4,C   5,C   6)          123.7352         0.442148   
     51. A(Pd  0,C   5,C   6)          167.1189         0.317911   
     52. A(N   4,C   5,H  11)          116.2896         0.357065   
     53. A(Pd  0,C   5,H  11)           72.9059         0.262760   
     54. A(Pd  0,C   5,N   4)           43.3837         0.320801   
     55. A(C   7,C   6,H  12)          121.6135         0.358837   
     56. A(C   5,C   6,H  12)          119.9680         0.356726   
     57. A(C   5,C   6,C   7)          118.4184         0.440497   
     58. A(C   9,C   7,H  10)          119.5087         0.352702   
     59. A(C   6,C   7,H  10)          121.4487         0.358463   
     60. A(C   6,C   7,C   9)          119.0426         0.435695   
     61. A(C   9,C   8,C  13)          118.5263         0.411156   
     62. A(N   4,C   8,C  13)          121.9361         0.417723   
     63. A(N   4,C   8,C   9)          119.5376         0.424911   
     64. A(C   8,C   9,C  14)          120.5013         0.417756   
     65. A(C   7,C   9,C  14)          119.9115         0.422753   
     66. A(C   7,C   9,C   8)          119.5872         0.423204   
     67. A(C  16,C  13,C  19)          117.1195         0.420906   
     68. A(C   8,C  13,C  19)          124.1020         0.414019   
     69. A(C   8,C  13,C  16)          118.7785         0.410943   
     70. A(C   9,C  14,C  15)          120.9463         0.437410   
     71. A(C  15,C  14,H  17)          121.2122         0.364132   
     72. A(C   9,C  14,H  17)          117.8415         0.348262   
     73. A(C  16,C  15,H  18)          118.3060         0.348498   
     74. A(C  14,C  15,H  18)          120.9118         0.364098   
     75. A(C  14,C  15,C  16)          120.7821         0.437770   
     76. A(C  15,C  16,C  20)          119.4463         0.422457   
     77. A(C  13,C  16,C  20)          120.0883         0.422342   
     78. A(C  13,C  16,C  15)          120.4654         0.417878   
     79. A(C  21,C  19,H  25)          117.6864         0.354138   
     80. A(C  13,C  19,H  25)          120.7375         0.346144   
     81. A(C  13,C  19,C  21)          121.5761         0.434493   
     82. A(C  22,C  20,H  23)          120.4845         0.359723   
     83. A(C  16,C  20,H  23)          118.3565         0.351934   
     84. A(C  16,C  20,C  22)          121.1590         0.436994   
     85. A(C  22,C  21,H  26)          119.7753         0.354305   
     86. A(C  19,C  21,H  26)          119.4094         0.359425   
     87. A(C  19,C  21,C  22)          120.8152         0.438489   
     88. A(C  21,C  22,H  24)          120.1560         0.354078   
     89. A(C  20,C  22,H  24)          120.6021         0.359977   
     90. A(C  20,C  22,C  21)          119.2418         0.439503   
     91. A(Pd  0,H  25,C  19)          139.1585         0.263349   
     92. D(C   8,N   4,Pd  0,C   5)    179.9254         0.004163   
     93. D(C   8,N   4,Pd  0,Cl  3)    -91.5619         0.004163   
     94. D(C   5,N   4,Pd  0,Cl  3)     88.5127         0.004163   
     95. D(C   8,N   4,Pd  0,Cl  2)     91.1670         0.004163   
     96. D(C   5,N   4,Pd  0,H  25)    179.8809         0.004163   
     97. D(C   5,N   4,Pd  0,Cl  2)    -88.7585         0.004163   
     98. D(C   8,N   4,Pd  0,H  25)     -0.1937         0.004163   
     99. D(C   6,C   5,Pd  0,Cl  3)    -90.1274         0.001516   
    100. D(C   6,C   5,Pd  0,Cl  1)    179.8212         0.001516   
    101. D(H  11,C   5,N   4,C   8)   -179.9828         0.043555   
    102. D(H  11,C   5,N   4,Pd  0)     -0.0470         0.043555   
    103. D(C   6,C   5,Pd  0,Cl  2)     89.5797         0.001516   
    104. D(Pd  0,C   5,N   4,C   8)   -179.9358         0.043555   
    105. D(C   6,C   5,Pd  0,N   4)     -0.1788         0.001516   
    106. D(N   4,C   5,Pd  0,Cl  3)    -89.9487         0.001516   
    107. D(C   6,C   5,N   4,C   8)      0.0163         0.043555   
    108. D(N   4,C   5,Pd  0,Cl  2)     89.7585         0.001516   
    109. D(N   4,C   5,Pd  0,H  25)     -0.1260         0.001516   
    110. D(H  11,C   5,Pd  0,Cl  2)    -90.2856         0.001516   
    111. D(H  11,C   5,Pd  0,H  25)    179.8299         0.001516   
    112. D(H  11,C   5,Pd  0,Cl  3)     90.0073         0.001516   
    113. D(C   6,C   5,N   4,Pd  0)    179.9521         0.043555   
    114. D(C   6,C   5,Pd  0,H  25)     -0.3047         0.001516   
    115. D(H  11,C   5,Pd  0,N   4)    179.9559         0.001516   
    116. D(H  11,C   5,Pd  0,Cl  1)     -0.0441         0.001516   
    117. D(N   4,C   5,Pd  0,Cl  1)    180.0000         0.001516   
    118. D(H  12,C   6,C   5,Pd  0)   -179.8674         0.030388   
    119. D(C   7,C   6,C   5,H  11)    179.9833         0.030388   
    120. D(C   7,C   6,C   5,N   4)     -0.0157         0.030388   
    121. D(H  12,C   6,C   5,N   4)    179.9849         0.030388   
    122. D(C   7,C   6,C   5,Pd  0)      0.1319         0.030388   
    123. D(H  12,C   6,C   5,H  11)     -0.0160         0.030388   
    124. D(H  10,C   7,C   6,H  12)      0.0050         0.030112   
    125. D(H  10,C   7,C   6,C   5)   -179.9943         0.030112   
    126. D(C   9,C   7,C   6,H  12)    179.9956         0.030112   
    127. D(C   9,C   7,C   6,C   5)     -0.0037         0.030112   
    128. D(C  13,C   8,N   4,C   5)    179.9833         0.032619   
    129. D(C  13,C   8,N   4,Pd  0)      0.0646         0.032619   
    130. D(C   9,C   8,N   4,C   5)      0.0026         0.032619   
    131. D(C   9,C   8,N   4,Pd  0)   -179.9162         0.032619   
    132. D(C  14,C   9,C   8,C  13)     -0.0138         0.021384   
    133. D(C   7,C   9,C   8,C  13)    179.9975         0.021384   
    134. D(C   7,C   9,C   8,N   4)     -0.0211         0.021384   
    135. D(C  14,C   9,C   7,H  10)      0.0233         0.024581   
    136. D(C  14,C   9,C   7,C   6)   -179.9675         0.024581   
    137. D(C  14,C   9,C   8,N   4)    179.9677         0.021384   
    138. D(C   8,C   9,C   7,H  10)   -179.9879         0.024581   
    139. D(C   8,C   9,C   7,C   6)      0.0213         0.024581   
    140. D(C  19,C  13,C   8,C   9)   -179.9387         0.017574   
    141. D(C  19,C  13,C   8,N   4)      0.0803         0.017574   
    142. D(C  16,C  13,C   8,C   9)      0.0581         0.017574   
    143. D(C  16,C  13,C   8,N   4)   -179.9228         0.017574   
    144. D(H  17,C  14,C   9,C   8)    179.9879         0.021121   
    145. D(H  17,C  14,C   9,C   7)     -0.0233         0.021121   
    146. D(C  15,C  14,C   9,C   8)     -0.0317         0.021121   
    147. D(C  15,C  14,C   9,C   7)    179.9570         0.021121   
    148. D(H  18,C  15,C  14,H  17)      0.0042         0.036933   
    149. D(H  18,C  15,C  14,C   9)   -179.9755         0.036933   
    150. D(C  16,C  15,C  14,H  17)   -179.9892         0.036933   
    151. D(C  16,C  15,C  14,C   9)      0.0311         0.036933   
    152. D(C  20,C  16,C  13,C   8)    179.9506         0.021254   
    153. D(C  15,C  16,C  13,C  19)    179.9371         0.021254   
    154. D(C  15,C  16,C  13,C   8)     -0.0600         0.021254   
    155. D(C  20,C  16,C  15,H  18)      0.0113         0.021321   
    156. D(C  20,C  16,C  15,C  14)   -179.9951         0.021321   
    157. D(C  13,C  16,C  15,H  18)   -179.9782         0.021321   
    158. D(C  13,C  16,C  15,C  14)      0.0155         0.021321   
    159. D(C  20,C  16,C  13,C  19)     -0.0523         0.021254   
    160. D(H  25,C  19,C  13,C  16)   -179.9327         0.023199   
    161. D(H  25,C  19,C  13,C   8)      0.0642         0.023199   
    162. D(C  21,C  19,C  13,C  16)      0.0585         0.023199   
    163. D(C  21,C  19,C  13,C   8)   -179.9447         0.023199   
    164. D(H  23,C  20,C  16,C  15)      0.0191         0.024146   
    165. D(H  23,C  20,C  16,C  13)   -179.9914         0.024146   
    166. D(C  22,C  20,C  16,C  15)   -179.9819         0.024146   
    167. D(C  22,C  20,C  16,C  13)      0.0076         0.024146   
    168. D(H  26,C  21,C  19,H  25)     -0.0250         0.030912   
    169. D(H  26,C  21,C  19,C  13)    179.9835         0.030912   
    170. D(C  22,C  21,C  19,H  25)    179.9720         0.030912   
    171. D(C  22,C  21,C  19,C  13)     -0.0194         0.030912   
    172. D(H  24,C  22,C  21,H  26)     -0.0141         0.025817   
    173. D(H  24,C  22,C  21,C  19)    179.9888         0.025817   
    174. D(C  20,C  22,C  21,H  26)    179.9693         0.025817   
    175. D(C  20,C  22,C  21,C  19)     -0.0278         0.025817   
    176. D(H  24,C  22,C  20,H  23)      0.0156         0.031775   
    177. D(H  24,C  22,C  20,C  16)   -179.9834         0.031775   
    178. D(C  21,C  22,C  20,H  23)   -179.9678         0.031775   
    179. D(C  21,C  22,C  20,C  16)      0.0332         0.031775   
    180. D(Pd  0,H  25,C  19,C  13)     -0.3849         0.097160   
    181. D(C  19,H  25,Pd  0,C   5)      0.4634         0.001695   
    182. D(C  19,H  25,Pd  0,N   4)      0.4040         0.001695   
    183. D(C  19,H  25,Pd  0,Cl  3)     87.3307         0.001695   
    184. D(C  19,H  25,Pd  0,Cl  2)    -86.5810         0.001695   
    185. D(Pd  0,H  25,C  19,C  21)    179.6236         0.097160   
    186. D(C  19,H  25,Pd  0,Cl  1)   -179.5998         0.001695   
    -----------------------------------------------------------------

Number of atoms                         .... 27
Number of degrees of freedom            .... 186

         *************************************************************
         *                GEOMETRY OPTIMIZATION CYCLE   1            *
         *************************************************************
---------------------------------
CARTESIAN COORDINATES (ANGSTROEM)
---------------------------------
  Pd    -2.003520   -1.942080    1.161290
  Cl    -3.169090   -3.836620    0.985750
  Cl    -0.252630   -2.986080    2.247490
  Cl    -3.683510   -0.683020    0.197780
  N     -1.009040   -0.272020    1.370950
  C     -1.339380    0.278900    2.536330
  C     -0.813620    1.474690    2.998800
  C      0.103150    2.134670    2.212620
  C     -0.109180    0.346700    0.566770
  C      0.469690    1.576330    0.979640
  H      0.544250    3.070440    2.525430
  H     -2.068870   -0.266450    3.139960
  H     -1.125210    1.866640    3.954710
  C      0.285320   -0.208490   -0.709260
  C      1.415820    2.242260    0.152880
  C      1.784490    1.722920   -1.038090
  C      1.235340    0.495730   -1.497510
  H      1.829220    3.175860    0.509250
  H      2.504460    2.229700   -1.666300
  C     -0.214560   -1.417900   -1.233550
  C      1.638780   -0.018860   -2.740590
  C      0.197460   -1.897980   -2.452050
  C      1.131860   -1.198270   -3.217510
  H      2.363630    0.540190   -3.317420
  H      1.448870   -1.586130   -4.175270
  H     -0.955510   -2.012530   -0.672070
  H     -0.208230   -2.828580   -2.820030

----------------------------
CARTESIAN COORDINATES (A.U.)
----------------------------
  NO LB      ZA    FRAG     MASS         X           Y           Z
   0 Pd   18.0000*   0   106.400   -3.786104   -3.669999    2.194520
   1 Cl   17.0000    0    35.453   -5.988712   -7.250161    1.862798
   2 Cl   17.0000    0    35.453   -0.477402   -5.642873    4.247141
   3 Cl   17.0000    0    35.453   -6.960825   -1.290721    0.373750
   4 N     7.0000    0    14.007   -1.906809   -0.514043    2.590720
   5 C     6.0000    0    12.011   -2.531061    0.527045    4.792969
   6 C     6.0000    0    12.011   -1.537519    2.786760    5.666911
   7 C     6.0000    0    12.011    0.194925    4.033942    4.181246
   8 C     6.0000    0    12.011   -0.206320    0.655168    1.071040
   9 C     6.0000    0    12.011    0.887585    2.978832    1.851251
  10 H     1.0000    0     1.008    1.028483    5.802291    4.772371
  11 H     1.0000    0     1.008   -3.909598   -0.503518    5.933664
  12 H     1.0000    0     1.008   -2.126339    3.527438    7.473319
  13 C     6.0000    0    12.011    0.539177   -0.393989   -1.340307
  14 C     6.0000    0    12.011    2.675512    4.237257    0.288901
  15 C     6.0000    0    12.011    3.372197    3.255847   -1.961706
  16 C     6.0000    0    12.011    2.334454    0.936794   -2.829884
  17 H     1.0000    0     1.008    3.456725    6.001506    0.962343
  18 H     1.0000    0     1.008    4.732744    4.213522   -3.148851
  19 C     6.0000    0    12.011   -0.405460   -2.679443   -2.331072
  20 C     6.0000    0    12.011    3.096845   -0.035640   -5.178965
  21 C     6.0000    0    12.011    0.373145   -3.586662   -4.633703
  22 C     6.0000    0    12.011    2.138905   -2.264402   -6.080213
  23 H     1.0000    0     1.008    4.466613    1.020811   -6.269015
  24 H     1.0000    0     1.008    2.737968   -2.997351   -7.890117
  25 H     1.0000    0     1.008   -1.805652   -3.803131   -1.270028
  26 H     1.0000    0     1.008   -0.393498   -5.345242   -5.329084
* core charge reduced due to ECP

--------------------------------
INTERNAL COORDINATES (ANGSTROEM)
--------------------------------
 Pd     0   0   0     0.000000000000     0.00000000     0.00000000
 Cl     1   0   0     2.231288759462     0.00000000     0.00000000
 Cl     1   2   0     2.309844633758    92.81990467     0.00000000
 Cl     1   2   3     2.309967533062    92.86986636   182.91309114
 N      1   2   3     1.955005930835   178.16068665   271.33346905
 C      5   1   2     1.330694520316   108.74201547     0.00000000
 C      6   5   1     1.385718514923   123.73522542   179.95208287
 C      7   6   5     1.376270258961   118.41843973     0.00000000
 C      5   1   2     1.356196125345   131.57899168   179.92474208
 C      8   7   6     1.402260606164   119.04260353     0.00000000
 H      8   7   6     1.080779718074   121.44868854   180.00572279
 H      6   5   1     1.092671707101   116.28957839   359.95301267
 H      7   6   5     1.079109382176   119.96802158   179.98493236
 C      9   5   1     1.446415827831   121.93607460     0.06457465
 C     10   8   7     1.422025611373   119.91153364   180.03250475
 C     15  10   8     1.350570673975   120.94633503   179.95703212
 C     16  15  10     1.420784204234   120.78212482     0.03108106
 H     15  10   8     1.081437976446   117.84151163   359.97666086
 H     16  15  10     1.081587062330   120.91184354   180.02453648
 C     14   9   5     1.409763301622   124.10197684     0.08033958
 C     17  16  15     1.404569182383   119.44627865   180.00492486
 C     20  14   9     1.372945569496   121.57605038   180.05533548
 C     21  17  16     1.369462858532   121.15901371   180.01811541
 H     21  17  16     1.081978407317   118.35651621     0.00000000
 H     23  21  17     1.080849174168   120.60214986   180.01658517
 H     20  14   9     1.103563106397   120.73750738     0.06417698
 H     22  20  14     1.079819436989   119.40942771   179.98353379

---------------------------
INTERNAL COORDINATES (A.U.)
---------------------------
 Pd     0   0   0     0.000000000000     0.00000000     0.00000000
 Cl     1   0   0     4.216524681079     0.00000000     0.00000000
 Cl     1   2   0     4.364973769710    92.81990467     0.00000000
 Cl     1   2   3     4.365206015737    92.86986636   182.91309114
 N      1   2   3     3.694425799470   178.16068665   271.33346905
 C      5   1   2     2.514648211308   108.74201547     0.00000000
 C      6   5   1     2.618628491908   123.73522542   179.95208287
 C      7   6   5     2.600773875697   118.41843973     0.00000000
 C      5   1   2     2.562839260787   131.57899168   179.92474208
 C      8   7   6     2.649888514037   119.04260353     0.00000000
 H      8   7   6     2.042377678256   121.44868854   180.00572279
 H      6   5   1     2.064850280706   116.28957839   359.95301267
 H      7   6   5     2.039221200857   119.96802158   179.98493236
 C      9   5   1     2.733329790370   121.93607460     0.06457465
 C     10   8   7     2.687238960916   119.91153364   180.03250475
 C     15  10   8     2.552208698317   120.94633503   179.95703212
 C     16  15  10     2.684893041403   120.78212482     0.03108106
 H     15  10   8     2.043621606305   117.84151163   359.97666086
 H     16  15  10     2.043903337796   120.91184354   180.02453648
 C     14   9   5     2.664066553718   124.10197684     0.08033958
 C     17  16  15     2.654251090850   119.44627865   180.00492486
 C     20  14   9     2.594491123129   121.57605038   180.05533548
 C     21  17  16     2.587909753203   121.15901371   180.01811541
 H     21  17  16     2.044642872645   118.35651621     0.00000000
 H     23  21  17     2.042508931253   120.60214986   180.01658517
 H     20  14   9     2.085432042589   120.73750738     0.06417698
 H     22  20  14     2.040563009995   119.40942771   179.98353379

---------------------
BASIS SET INFORMATION
---------------------
There are 5 groups of distinct atoms

 Group   1 Type Pd  : 7s6p5d1f contracted to 5s3p2d1f pattern {31111/411/41/1}
 Group   2 Type Cl  : 10s7p1d contracted to 4s3p1d pattern {5311/511/1}
 Group   3 Type N   : 8s4p1d contracted to 4s2p1d pattern {5111/31/1}
 Group   4 Type C   : 8s4p1d contracted to 4s2p1d pattern {5111/31/1}
 Group   5 Type H   : 4s contracted to 2s pattern {31}

Atom   0Pd   basis set group =>   1
Atom   1Cl   basis set group =>   2
Atom   2Cl   basis set group =>   2
Atom   3Cl   basis set group =>   2
Atom   4N    basis set group =>   3
Atom   5C    basis set group =>   4
Atom   6C    basis set group =>   4
Atom   7C    basis set group =>   4
Atom   8C    basis set group =>   4
Atom   9C    basis set group =>   4
Atom  10H    basis set group =>   5
Atom  11H    basis set group =>   5
Atom  12H    basis set group =>   5
Atom  13C    basis set group =>   4
Atom  14C    basis set group =>   4
Atom  15C    basis set group =>   4
Atom  16C    basis set group =>   4
Atom  17H    basis set group =>   5
Atom  18H    basis set group =>   5
Atom  19C    basis set group =>   4
Atom  20C    basis set group =>   4
Atom  21C    basis set group =>   4
Atom  22C    basis set group =>   4
Atom  23H    basis set group =>   5
Atom  24H    basis set group =>   5
Atom  25H    basis set group =>   5
Atom  26H    basis set group =>   5
---------------------------------
AUXILIARY/J BASIS SET INFORMATION
---------------------------------
There are 5 groups of distinct atoms

 Group   1 Type Pd  : 11s5p5d3f3g contracted to 8s5p5d2f3g pattern {41111111/11111/11111/21/111}
 Group   2 Type Cl  : 14s5p5d2f1g contracted to 8s4p3d1f1g pattern {71111111/2111/311/2/1}
 Group   3 Type N   : 12s5p4d2f1g contracted to 6s4p3d1f1g pattern {711111/2111/211/2/1}
 Group   4 Type C   : 12s5p4d2f1g contracted to 6s4p3d1f1g pattern {711111/2111/211/2/1}
 Group   5 Type H   : 5s2p1d contracted to 3s1p1d pattern {311/2/1}

Atom   0Pd   basis set group =>   1
Atom   1Cl   basis set group =>   2
Atom   2Cl   basis set group =>   2
Atom   3Cl   basis set group =>   2
Atom   4N    basis set group =>   3
Atom   5C    basis set group =>   4
Atom   6C    basis set group =>   4
Atom   7C    basis set group =>   4
Atom   8C    basis set group =>   4
Atom   9C    basis set group =>   4
Atom  10H    basis set group =>   5
Atom  11H    basis set group =>   5
Atom  12H    basis set group =>   5
Atom  13C    basis set group =>   4
Atom  14C    basis set group =>   4
Atom  15C    basis set group =>   4
Atom  16C    basis set group =>   4
Atom  17H    basis set group =>   5
Atom  18H    basis set group =>   5
Atom  19C    basis set group =>   4
Atom  20C    basis set group =>   4
Atom  21C    basis set group =>   4
Atom  22C    basis set group =>   4
Atom  23H    basis set group =>   5
Atom  24H    basis set group =>   5
Atom  25H    basis set group =>   5
Atom  26H    basis set group =>   5
-------------------------
ECP PARAMETER INFORMATION
-------------------------

 Group 1, Type Pd ECP Def2-ECP (replacing 28 core electrons, lmax=3)

Atom   0Pd   ECP group =>   1



           ************************************************************
           *        Program running with 4 parallel MPI-processes     *
           *              working on a common directory               *
           ************************************************************
------------------------------------------------------------------------------
                           ORCA GTO INTEGRAL CALCULATION
                           -- RI-GTO INTEGRALS CHOSEN --
------------------------------------------------------------------------------
------------------------------------------------------------------------------
                   ___                                                        
                  /   \      - P O W E R E D   B Y -                         
                 /     \                                                     
                 |  |  |   _    _      __       _____    __    __             
                 |  |  |  | |  | |    /  \     |  _  \  |  |  /  |          
                  \  \/   | |  | |   /    \    | | | |  |  | /  /          
                 / \  \   | |__| |  /  /\  \   | |_| |  |  |/  /          
                |  |  |   |  __  | /  /__\  \  |    /   |      \           
                |  |  |   | |  | | |   __   |  |    \   |  |\   \          
                \     /   | |  | | |  |  |  |  | |\  \  |  | \   \       
                 \___/    |_|  |_| |__|  |__|  |_| \__\ |__|  \__/        
                                                                              
                      - O R C A' S   B I G   F R I E N D -                    
                                      &                                       
                       - I N T E G R A L  F E E D E R -                       
                                                                              
 v1 FN, 2020, v2 2021                                                         
------------------------------------------------------------------------------


Reading SHARK input file reaction-2-rct-pbeh3c-orca_opt.SHARKINP.tmp ... ok
----------------------
SHARK INTEGRAL PACKAGE
----------------------

Number of atoms                             ...     27
Number of basis functions                   ...    313
Number of shells                            ...    151
Maximum angular momentum                    ...      3
Integral batch strategy                     ... SHARK/LIBINT Hybrid
RI-J (if used) integral strategy            ... SPLIT-RIJ (Revised 2003 algorithm where possible)
Printlevel                                  ...      1
Contraction scheme used                     ... SEGMENTED contraction
Coulomb Range Separation                    ... NOT USED
Exchange Range Separation                   ... NOT USED
Finite Nucleus Model                        ... NOT USED
Auxiliary Coulomb fitting basis             ... AVAILABLE
   # of basis functions in Aux-J            ...   1027
   # of shells in Aux-J                     ...    329
   Maximum angular momentum in Aux-J        ...      4
Auxiliary J/K fitting basis                 ... NOT available
Auxiliary Correlation fitting basis         ... NOT available
Auxiliary 'external' fitting basis          ... NOT available
Integral threshold                          ...     2.500000e-11
Primitive cut-off                           ...     2.500000e-12
Primitive pair pre-selection threshold      ...     2.500000e-12

Calculating pre-screening integrals         ... done (  0.1 sec) Dimension = 151
Organizing shell pair data                  ... done (  0.1 sec)
Shell pair information
Total number of shell pairs                 ...     11476
Shell pairs after pre-screening             ...      8684
Total number of primitive shell pairs       ...     42779
Primitive shell pairs kept                  ...     20548
          la=0 lb=0:   2847 shell pairs
          la=1 lb=0:   2967 shell pairs
          la=1 lb=1:    744 shell pairs
          la=2 lb=0:   1223 shell pairs
          la=2 lb=1:    649 shell pairs
          la=2 lb=2:    147 shell pairs
          la=3 lb=0:     57 shell pairs
          la=3 lb=1:     36 shell pairs
          la=3 lb=2:     13 shell pairs
          la=3 lb=3:      1 shell pairs

Calculating one electron integrals          ... done (  0.0 sec)
Calculating ECP integrals                   ... done (  0.3 sec)
Calculating RI/J V-Matrix + Cholesky decomp.... done (  0.1 sec)
Calculating Nuclear repulsion               ... done (  0.0 sec) ENN=   1873.873033509813 Eh

SHARK setup successfully completed in   1.2 seconds

Maximum memory used throughout the entire GTOINT-calculation: 21.2 MB


           ************************************************************
           *        Program running with 4 parallel MPI-processes     *
           *              working on a common directory               *
           ************************************************************
-------------------------------------------------------------------------------
                                 ORCA SCF
-------------------------------------------------------------------------------

------------
SCF SETTINGS
------------
Hamiltonian:
 Density Functional     Method          .... DFT(GTOs)
 Exchange Functional    Exchange        .... PBE
   PBE kappa parameter   XKappa         ....  1.024500
   PBE mue parameter    XMuePBE         ....  0.123457
 Correlation Functional Correlation     .... PBE
   PBE beta parameter  CBetaPBE         ....  0.030000
 LDA part of GGA corr.  LDAOpt          .... PW91-LDA
 Gradients option       PostSCFGGA      .... off
 Hybrid DFT is turned on
   Fraction HF Exchange ScalHFX         ....  0.420000
   Scaling of DF-GGA-X  ScalDFX         ....  0.580000
   Scaling of DF-GGA-C  ScalDFC         ....  1.000000
   Scaling of DF-LDA-C  ScalLDAC        ....  1.000000
   Perturbative correction              ....  0.000000
   Density functional embedding theory  .... OFF
 RI-approximation to the Coulomb term is turned on
   Number of AuxJ basis functions       .... 1027
   RIJ-ON(X) (HFX calculated with O(N)) .... on
   Number of AuxJ basis functions       .... 1027
   RIJ-COSX (HFX calculated with COS-X)).... on


General Settings:
 Integral files         IntName         .... reaction-2-rct-pbeh3c-orca_opt
 Hartree-Fock type      HFTyp           .... RHF
 Total Charge           Charge          ....   -1
 Multiplicity           Mult            ....    1
 Number of Electrons    NEL             ....  164
 Basis Dimension        Dim             ....  313
 Nuclear Repulsion      ENuc            ....   1873.8730335098 Eh

Convergence Acceleration:
 DIIS                   CNVDIIS         .... on
   Start iteration      DIISMaxIt       ....    12
   Startup error        DIISStart       ....  0.200000
   # of expansion vecs  DIISMaxEq       ....     5
   Bias factor          DIISBfac        ....   1.050
   Max. coefficient     DIISMaxC        ....  10.000
 Trust-Rad. Augm. Hess. CNVTRAH         .... auto
   Auto Start mean grad. ratio tolernc. ....  1.125000
   Auto Start start iteration           ....    20
   Auto Start num. interpolation iter.  ....    10
   Max. Number of Micro iterations      ....    16
   Max. Number of Macro iterations      .... Maxiter - #DIIS iter
   Number of Davidson start vectors     ....     2
   Converg. threshold I  (grad. norm)   ....   1.000e-05
   Converg. threshold II (energy diff.) ....   1.000e-08
   Grad. Scal. Fac. for Micro threshold ....   0.100
   Minimum threshold for Micro iter.    ....   0.010
   NR start threshold (gradient norm)   ....   0.001
   Initial trust radius                 ....   0.400
   Minimum AH scaling param. (alpha)    ....   1.000
   Maximum AH scaling param. (alpha)    .... 1000.000
   Orbital update algorithm             .... Taylor
   White noise on init. David. guess    .... on
   Maximum white noise                  ....   0.010
   Quad. conv. algorithm                .... NR
   COSX micro iterations for RIJONX calc.... off
 SOSCF                  CNVSOSCF        .... off
 Level Shifting         CNVShift        .... on
   Level shift para.    LevelShift      ....    0.2500
   Turn off err/grad.   ShiftErr        ....    0.0010
 Zerner damping         CNVZerner       .... off
 Static damping         CNVDamp         .... on
   Fraction old density DampFac         ....    0.7000
   Max. Damping (<1)    DampMax         ....    0.9800
   Min. Damping (>=0)   DampMin         ....    0.0000
   Turn off err/grad.   DampErr         ....    0.1000
 Fernandez-Rico         CNVRico         .... off

SCF Procedure:
 Maximum # iterations   MaxIter         ....   125
 SCF integral mode      SCFMode         .... Direct
   Integral package                     .... SHARK and LIBINT hybrid scheme
 Reset frequency        DirectResetFreq ....    20
 Integral Threshold     Thresh          ....  2.500e-11 Eh
 Primitive CutOff       TCut            ....  2.500e-12 Eh

Convergence Tolerance:
 Convergence Check Mode ConvCheckMode   .... Total+1el-Energy
 Convergence forced     ConvForced      .... 0
 Energy Change          TolE            ....  1.000e-08 Eh
 1-El. energy change                    ....  1.000e-05 Eh
 DIIS Error             TolErr          ....  5.000e-07


Diagonalization of the overlap matrix:
Smallest eigenvalue                        ... 2.887e-04
Time for diagonalization                   ...    0.029 sec
Threshold for overlap eigenvalues          ... 1.000e-08
Number of eigenvalues below threshold      ... 0
Time for construction of square roots      ...    0.012 sec
Total time needed                          ...    0.043 sec

--------------------------------
INITIAL GUESS: MINIMAL BASIS EHT
--------------------------------
The minimal basis has 119 functions
EHT matrix was diagonalized
Basis set overlap was calculated now projecting the orbitals
Using GuessMode=FMatrix for the initial guess
C*T matrix was formed
Effective Fockian was calculated
Effective Fockian was diagonalized
Initial density was built
                      ------------------
                      INITIAL GUESS DONE
                      ------------------
-------------------
DFT GRID GENERATION
-------------------

General Integration Accuracy     IntAcc      ... 4.159
Radial Grid Type                 RadialGrid  ... OptM3 with GC (2021)
Angular Grid (max. ang.)         AngularGrid ... 3 (Lebedev-194)
Angular grid pruning method      GridPruning ... 4 (adaptive)
Weight generation scheme         WeightScheme... Becke
Basis function cutoff            BFCut       ... 1.0000e-11
Integration weight cutoff        WCut        ... 1.0000e-14
Angular grids for H and He will be reduced by one unit
Partially contracted basis set               ... off
Rotationally invariant grid construction     ... off

Total number of grid points                  ...    76236
Total number of batches                      ...     1204
Average number of points per batch           ...       63
Average number of grid points per atom       ...     2824
Time for grid setup =    0.398 sec

--------------------
COSX GRID GENERATION
--------------------

GRIDX 1
-------
General Integration Accuracy     IntAcc      ... 3.816
Radial Grid Type                 RadialGrid  ... OptM3 with GC (2021)
Angular Grid (max. ang.)         AngularGrid ... 1 (Lebedev-50)
Angular grid pruning method      GridPruning ... 4 (adaptive)
Weight generation scheme         WeightScheme... Becke
Basis function cutoff            BFCut       ... 1.0000e-11
Integration weight cutoff        WCut        ... 1.0000e-14
Angular grids for H and He will be reduced by one unit
Partially contracted basis set               ... on
Rotationally invariant grid construction     ... off

Total number of grid points                  ...    17832
Total number of batches                      ...      290
Average number of points per batch           ...       61
Average number of grid points per atom       ...      660
UseSFitting                                  ... on

GRIDX 2
-------
General Integration Accuracy     IntAcc      ... 4.020
Radial Grid Type                 RadialGrid  ... OptM3 with GC (2021)
Angular Grid (max. ang.)         AngularGrid ... 2 (Lebedev-110)
Angular grid pruning method      GridPruning ... 4 (adaptive)
Weight generation scheme         WeightScheme... Becke
Basis function cutoff            BFCut       ... 1.0000e-11
Integration weight cutoff        WCut        ... 1.0000e-14
Angular grids for H and He will be reduced by one unit
Partially contracted basis set               ... on
Rotationally invariant grid construction     ... off

Total number of grid points                  ...    39841
Total number of batches                      ...      635
Average number of points per batch           ...       62
Average number of grid points per atom       ...     1476
UseSFitting                                  ... on

GRIDX 3
-------
General Integration Accuracy     IntAcc      ... 4.338
Radial Grid Type                 RadialGrid  ... OptM3 with GC (2021)
Angular Grid (max. ang.)         AngularGrid ... 3 (Lebedev-194)
Angular grid pruning method      GridPruning ... 4 (adaptive)
Weight generation scheme         WeightScheme... Becke
Basis function cutoff            BFCut       ... 1.0000e-11
Integration weight cutoff        WCut        ... 1.0000e-14
Angular grids for H and He will be reduced by one unit
Partially contracted basis set               ... on
Rotationally invariant grid construction     ... off

Total number of grid points                  ...    88525
Total number of batches                      ...     1398
Average number of points per batch           ...       63
Average number of grid points per atom       ...     3279
UseSFitting                                  ... on

Time for X-Grid setup             =    0.984 sec

--------------
SCF ITERATIONS
--------------
ITER       Energy         Delta-E        Max-DP      RMS-DP      [F,P]     Damp
               ***  Starting incremental Fock matrix formation  ***
  0  -2049.7615593983   0.000000000000 4.23610718  0.05159861  5.3860161 0.7000
  1  -2038.8108164835  10.950742914837 4.95970372  0.07433404  4.0510863 0.7000
  2  -2033.8442707402   4.966545743256 3.25741687  0.03833972  2.6864277 0.7000
  3  -2036.4250774862  -2.580806746044 4.55062449  0.04779013  1.9910216 0.7000
  4  -2035.6371385260   0.787938960208 2.73297997  0.03568547  1.2646750 0.7000
  5  -2036.7566811579  -1.119542631825 3.22409913  0.04239366  0.9948903 0.7000
  6  -2034.1539859379   2.602695219992 2.70209730  0.03710756  0.5744159 0.7000
  7  -2036.6981433134  -2.544157375512 3.51754024  0.04252508  0.5085629 0.7000
  8  -2034.3013287786   2.396814534770 2.93104743  0.03830705  0.3407427 0.7000
  9  -2036.6849078415  -2.383579062931 3.21257508  0.04016442  0.3031904 0.7000
 10  -2034.3679381239   2.316969717687 3.01419752  0.03875813  0.3522061 0.7000
 11  -2036.7063325946  -2.338394470706 3.12976585  0.03955232  0.3088122 0.7000
                               ***Turning on DIIS***
 12  -2034.4124274606   2.293905133924 3.04717716  0.03896871  0.3581486 0.7000
 13  -2036.7248461208  -2.312418660188 2.20207373  0.03042033  0.3113616 0.7000
 14  -2043.1035051559  -6.378659035068 1.54654099  0.02157452  0.3021750 0.7000
 15  -2048.0522715514  -4.948766395494 1.08917767  0.01520289  0.2430545 0.7000
 16  -2051.7672402725  -3.714968721081 0.79332190  0.01092057  0.1849522 0.7000
 17  -2055.0314227483  -3.264182475828 0.52506326  0.00766955  0.1171169 0.7000
 18  -2057.1335262039  -2.102103455601 1.26057895  0.01796344  0.0717983 0.0000
 19  -2061.5081802870  -4.374654083120 0.02734791  0.00077127  0.0388471 0.0000
               *** Restarting incremental Fock matrix formation ***
                                   *** Resetting DIIS ***
 20  -2061.5370948677  -0.028914580631 0.06342155  0.00162807  0.0276328 0.0000
 21  -2061.5500920172  -0.012997149596 0.03872042  0.00058640  0.0347572 0.0000
 22  -2061.5588404916  -0.008748474393 0.01168920  0.00022773  0.0058129 0.0000
 23  -2061.5595641291  -0.000723637492 0.00729779  0.00010755  0.0056721 0.0000
 24  -2061.5598122071  -0.000248078000 0.00228329  0.00005475  0.0010417 0.0000
 25  -2061.5598769478  -0.000064740675 0.00229933  0.00005825  0.0005843 0.0000
               *** Restarting incremental Fock matrix formation ***
                                   *** Resetting DIIS ***
 26  -2061.5587536820   0.001123265790 0.00581359  0.00012420  0.0015709 0.0000
 27  -2061.5587732839  -0.000019601858 0.00169410  0.00003395  0.0002635 0.0000
 28  -2061.5587750564  -0.000001772487 0.00070407  0.00000851  0.0003512 0.0000
 29  -2061.5587767004  -0.000001644074 0.00029369  0.00000447  0.0001277 0.0000
 30  -2061.5587768689  -0.000000168437 0.00024387  0.00000210  0.0001082 0.0000
 31  -2061.5587769442  -0.000000075287 0.00005834  0.00000079  0.0000233 0.0000
 32  -2061.5587769603  -0.000000016099 0.00004484  0.00000041  0.0000101 0.0000
 33  -2061.5587769693  -0.000000009064 0.00001795  0.00000018  0.0000051 0.0000
 34  -2061.5587769632   0.000000006128 0.00000819  0.00000008  0.0000024 0.0000
 35  -2061.5587769703  -0.000000007142 0.00000471  0.00000004  0.0000012 0.0000
                            ***DIIS convergence achieved***

               *****************************************************
               *                     SUCCESS                       *
               *           SCF CONVERGED AFTER  36 CYCLES          *
               *****************************************************

Old exchange energy                            =    -72.259345035 Eh
New exchange energy                            =    -72.259249421 Eh
Exchange energy change after final integration =      0.000095614 Eh
Total energy after final integration           =  -2061.558681358 Eh
Final COS-X integration done in                =     9.218 sec

----------------
TOTAL SCF ENERGY
----------------

Total Energy       :        -2061.55868136 Eh          -56097.86368 eV

Components:
Nuclear Repulsion  :         1873.87303351 Eh           50990.67756 eV
Electronic Energy  :        -3935.43171487 Eh         -107088.54124 eV
One Electron Energy:        -6637.19713468 Eh         -180607.31593 eV
Two Electron Energy:         2701.76541981 Eh           73518.77470 eV
Max COSX asymmetry :            0.00001762 Eh               0.00048 eV

Virial components:
Potential Energy   :        -4037.13439345 Eh         -109856.01182 eV
Kinetic Energy     :         1975.57571209 Eh           53758.14814 eV
Virial Ratio       :            2.04352299


DFT components:
N(Alpha)           :       81.999741870436 electrons
N(Beta)            :       81.999741870436 electrons
N(Total)           :      163.999483740872 electrons
E(X)               :      -96.419653263333 Eh       
E(C)               :       -7.780141583091 Eh       
E(XC)              :     -104.199794846424 Eh       
DFET-embed. en.    :        0.000000000000 Eh       

---------------
SCF CONVERGENCE
---------------

  Last Energy change         ...   -1.5257e-09  Tolerance :   1.0000e-08
  Last MAX-Density change    ...    0.0000e+00  Tolerance :   1.0000e-07
  Last RMS-Density change    ...    0.0000e+00  Tolerance :   5.0000e-09
  Last DIIS Error            ...    8.5463e-07  Tolerance :   5.0000e-07

             **** THE GBW FILE WAS UPDATED (reaction-2-rct-pbeh3c-orca_opt.gbw) ****
             **** DENSITY reaction-2-rct-pbeh3c-orca_opt.scfp WAS UPDATED ****
             **** ENERGY FILE WAS UPDATED (reaction-2-rct-pbeh3c-orca_opt.en.tmp) ****
             **** THE GBW FILE WAS UPDATED (reaction-2-rct-pbeh3c-orca_opt.gbw) ****
             **** DENSITY reaction-2-rct-pbeh3c-orca_opt.scfp WAS UPDATED ****
----------------
ORBITAL ENERGIES
----------------

  NO   OCC          E(Eh)            E(eV) 
   0   2.0000    -102.073226     -2777.5537 
   1   2.0000    -102.073225     -2777.5537 
   2   2.0000    -102.065278     -2777.3374 
   3   2.0000     -14.600902      -397.3107 
   4   2.0000     -10.422380      -283.6074 
   5   2.0000     -10.408225      -283.2222 
   6   2.0000     -10.394324      -282.8439 
   7   2.0000     -10.391204      -282.7590 
   8   2.0000     -10.382637      -282.5259 
   9   2.0000     -10.380789      -282.4756 
  10   2.0000     -10.380655      -282.4720 
  11   2.0000     -10.379568      -282.4424 
  12   2.0000     -10.379472      -282.4398 
  13   2.0000     -10.369111      -282.1579 
  14   2.0000     -10.368422      -282.1391 
  15   2.0000     -10.357871      -281.8520 
  16   2.0000     -10.354468      -281.7594 
  17   2.0000      -9.537483      -259.5281 
  18   2.0000      -9.537465      -259.5276 
  19   2.0000      -9.530575      -259.3401 
  20   2.0000      -7.223277      -196.5553 
  21   2.0000      -7.223270      -196.5552 
  22   2.0000      -7.218568      -196.4272 
  23   2.0000      -7.218548      -196.4267 
  24   2.0000      -7.218327      -196.4207 
  25   2.0000      -7.218301      -196.4199 
  26   2.0000      -7.216491      -196.3707 
  27   2.0000      -7.211582      -196.2371 
  28   2.0000      -7.211087      -196.2236 
  29   2.0000      -3.510649       -95.5296 
  30   2.0000      -2.160746       -58.7969 
  31   2.0000      -2.151635       -58.5490 
  32   2.0000      -2.123190       -57.7750 
  33   2.0000      -0.990481       -26.9524 
  34   2.0000      -0.896729       -24.4012 
  35   2.0000      -0.856334       -23.3020 
  36   2.0000      -0.821876       -22.3644 
  37   2.0000      -0.790368       -21.5070 
  38   2.0000      -0.755340       -20.5538 
  39   2.0000      -0.737171       -20.0595 
  40   2.0000      -0.674565       -18.3559 
  41   2.0000      -0.661619       -18.0036 
  42   2.0000      -0.658722       -17.9247 
  43   2.0000      -0.656043       -17.8518 
  44   2.0000      -0.649681       -17.6787 
  45   2.0000      -0.620154       -16.8752 
  46   2.0000      -0.593307       -16.1447 
  47   2.0000      -0.542404       -14.7596 
  48   2.0000      -0.529397       -14.4056 
  49   2.0000      -0.504025       -13.7152 
  50   2.0000      -0.477198       -12.9852 
  51   2.0000      -0.470901       -12.8139 
  52   2.0000      -0.442742       -12.0476 
  53   2.0000      -0.422511       -11.4971 
  54   2.0000      -0.413717       -11.2578 
  55   2.0000      -0.409530       -11.1439 
  56   2.0000      -0.407494       -11.0885 
  57   2.0000      -0.400727       -10.9043 
  58   2.0000      -0.378971       -10.3123 
  59   2.0000      -0.354586        -9.6488 
  60   2.0000      -0.354417        -9.6442 
  61   2.0000      -0.334200        -9.0940 
  62   2.0000      -0.315310        -8.5800 
  63   2.0000      -0.314524        -8.5586 
  64   2.0000      -0.307594        -8.3700 
  65   2.0000      -0.276462        -7.5229 
  66   2.0000      -0.264824        -7.2062 
  67   2.0000      -0.254030        -6.9125 
  68   2.0000      -0.238101        -6.4791 
  69   2.0000      -0.224638        -6.1127 
  70   2.0000      -0.224017        -6.0958 
  71   2.0000      -0.210282        -5.7221 
  72   2.0000      -0.197807        -5.3826 
  73   2.0000      -0.183544        -4.9945 
  74   2.0000      -0.172393        -4.6910 
  75   2.0000      -0.168077        -4.5736 
  76   2.0000      -0.154136        -4.1942 
  77   2.0000      -0.146914        -3.9977 
  78   2.0000      -0.133465        -3.6318 
  79   2.0000      -0.129133        -3.5139 
  80   2.0000      -0.125460        -3.4139 
  81   2.0000      -0.123954        -3.3729 
  82   0.0000       0.041087         1.1180 
  83   0.0000       0.058464         1.5909 
  84   0.0000       0.101313         2.7569 
  85   0.0000       0.115099         3.1320 
  86   0.0000       0.132815         3.6141 
  87   0.0000       0.182136         4.9562 
  88   0.0000       0.191285         5.2051 
  89   0.0000       0.212886         5.7929 
  90   0.0000       0.218035         5.9330 
  91   0.0000       0.236767         6.4428 
  92   0.0000       0.243937         6.6379 
  93   0.0000       0.244556         6.6547 
  94   0.0000       0.253651         6.9022 
  95   0.0000       0.256241         6.9727 
  96   0.0000       0.278014         7.5651 
  97   0.0000       0.282563         7.6889 
  98   0.0000       0.308217         8.3870 
  99   0.0000       0.314634         8.5616 
 100   0.0000       0.327425         8.9097 
 101   0.0000       0.336485         9.1562 
 102   0.0000       0.340220         9.2578 
 103   0.0000       0.342233         9.3126 
 104   0.0000       0.353283         9.6133 
 105   0.0000       0.371804        10.1173 
 106   0.0000       0.389156        10.5895 
 107   0.0000       0.398121        10.8334 
 108   0.0000       0.407420        11.0865 
 109   0.0000       0.418022        11.3750 
 110   0.0000       0.426573        11.6076 
 111   0.0000       0.432149        11.7594 
 112   0.0000       0.480617        13.0782 
 113   0.0000       0.492500        13.4016 
 114   0.0000       0.527971        14.3668 
 115   0.0000       0.562344        15.3021 
 116   0.0000       0.574397        15.6302 
 117   0.0000       0.578529        15.7426 
 118   0.0000       0.589621        16.0444 
 119   0.0000       0.593947        16.1621 
 120   0.0000       0.600506        16.3406 
 121   0.0000       0.603165        16.4130 
 122   0.0000       0.612847        16.6764 
 123   0.0000       0.621121        16.9016 
 124   0.0000       0.626454        17.0467 
 125   0.0000       0.634532        17.2665 
 126   0.0000       0.636536        17.3210 
 127   0.0000       0.646306        17.5869 
 128   0.0000       0.662176        18.0187 
 129   0.0000       0.666365        18.1327 
 130   0.0000       0.677104        18.4249 
 131   0.0000       0.685123        18.6432 
 132   0.0000       0.688898        18.7459 
 133   0.0000       0.700995        19.0750 
 134   0.0000       0.703258        19.1366 
 135   0.0000       0.711270        19.3546 
 136   0.0000       0.714450        19.4412 
 137   0.0000       0.716134        19.4870 
 138   0.0000       0.720445        19.6043 
 139   0.0000       0.734643        19.9906 
 140   0.0000       0.745526        20.2868 
 141   0.0000       0.753427        20.5018 
 142   0.0000       0.764319        20.7982 
 143   0.0000       0.771140        20.9838 
 144   0.0000       0.773573        21.0500 
 145   0.0000       0.791504        21.5379 
 146   0.0000       0.807039        21.9607 
 147   0.0000       0.815007        22.1775 
 148   0.0000       0.825712        22.4688 
 149   0.0000       0.842450        22.9242 
 150   0.0000       0.855965        23.2920 
 151   0.0000       0.861204        23.4345 
 152   0.0000       0.871745        23.7214 
 153   0.0000       0.885752        24.1025 
 154   0.0000       0.913069        24.8459 
 155   0.0000       0.913355        24.8537 
 156   0.0000       0.920710        25.0538 
 157   0.0000       0.949140        25.8274 
 158   0.0000       0.953363        25.9423 
 159   0.0000       0.960002        26.1230 
 160   0.0000       0.974103        26.5067 
 161   0.0000       0.993885        27.0450 
 162   0.0000       1.011315        27.5193 
 163   0.0000       1.022711        27.8294 
 164   0.0000       1.034291        28.1445 
 165   0.0000       1.041181        28.3320 
 166   0.0000       1.044100        28.4114 
 167   0.0000       1.045119        28.4391 
 168   0.0000       1.054087        28.6832 
 169   0.0000       1.059415        28.8281 
 170   0.0000       1.060652        28.8618 
 171   0.0000       1.063156        28.9299 
 172   0.0000       1.069668        29.1071 
 173   0.0000       1.072491        29.1840 
 174   0.0000       1.074428        29.2367 
 175   0.0000       1.086092        29.5541 
 176   0.0000       1.088520        29.6201 
 177   0.0000       1.088679        29.6245 
 178   0.0000       1.102151        29.9910 
 179   0.0000       1.110833        30.2273 
 180   0.0000       1.116090        30.3704 
 181   0.0000       1.119059        30.4511 
 182   0.0000       1.127988        30.6941 
 183   0.0000       1.135561        30.9002 
 184   0.0000       1.147173        31.2162 
 185   0.0000       1.151978        31.3469 
 186   0.0000       1.158762        31.5315 
 187   0.0000       1.169161        31.8145 
 188   0.0000       1.190330        32.3905 
 189   0.0000       1.209713        32.9180 
 190   0.0000       1.214339        33.0438 
 191   0.0000       1.221992        33.2521 
 192   0.0000       1.224067        33.3086 
 193   0.0000       1.234818        33.6011 
 194   0.0000       1.243160        33.8281 
 195   0.0000       1.258217        34.2378 
 196   0.0000       1.286721        35.0135 
 197   0.0000       1.292316        35.1657 
 198   0.0000       1.298772        35.3414 
 199   0.0000       1.312389        35.7119 
 200   0.0000       1.318907        35.8893 
 201   0.0000       1.346756        36.6471 
 202   0.0000       1.347785        36.6751 
 203   0.0000       1.362281        37.0696 
 204   0.0000       1.369938        37.2779 
 205   0.0000       1.382477        37.6191 
 206   0.0000       1.387064        37.7439 
 207   0.0000       1.408555        38.3287 
 208   0.0000       1.449026        39.4300 
 209   0.0000       1.462567        39.7985 
 210   0.0000       1.464296        39.8455 
 211   0.0000       1.502806        40.8934 
 212   0.0000       1.504716        40.9454 
 213   0.0000       1.527275        41.5593 
 214   0.0000       1.542283        41.9676 
 215   0.0000       1.557593        42.3843 
 216   0.0000       1.567007        42.6404 
 217   0.0000       1.575444        42.8700 
 218   0.0000       1.589280        43.2465 
 219   0.0000       1.599641        43.5284 
 220   0.0000       1.603101        43.6226 
 221   0.0000       1.615107        43.9493 
 222   0.0000       1.624577        44.2070 
 223   0.0000       1.633730        44.4560 
 224   0.0000       1.648159        44.8487 
 225   0.0000       1.651069        44.9279 
 226   0.0000       1.669929        45.4411 
 227   0.0000       1.697858        46.2011 
 228   0.0000       1.727457        47.0065 
 229   0.0000       1.751102        47.6499 
 230   0.0000       1.764083        48.0031 
 231   0.0000       1.874578        51.0098 
 232   0.0000       1.895324        51.5744 
 233   0.0000       1.901236        51.7353 
 234   0.0000       1.911141        52.0048 
 235   0.0000       1.964374        53.4533 
 236   0.0000       1.974400        53.7262 
 237   0.0000       1.983008        53.9604 
 238   0.0000       2.032813        55.3156 
 239   0.0000       2.048599        55.7452 
 240   0.0000       2.079494        56.5859 
 241   0.0000       2.096384        57.0455 
 242   0.0000       2.100166        57.1484 
 243   0.0000       2.126043        57.8526 
 244   0.0000       2.135914        58.1212 
 245   0.0000       2.141362        58.2694 
 246   0.0000       2.185798        59.4786 
 247   0.0000       2.199974        59.8643 
 248   0.0000       2.244434        61.0742 
 249   0.0000       2.261126        61.5284 
 250   0.0000       2.272530        61.8387 
 251   0.0000       2.299541        62.5737 
 252   0.0000       2.339979        63.6741 
 253   0.0000       2.340663        63.6927 
 254   0.0000       2.352517        64.0152 
 255   0.0000       2.375647        64.6446 
 256   0.0000       2.385325        64.9080 
 257   0.0000       2.385523        64.9134 
 258   0.0000       2.399413        65.2914 
 259   0.0000       2.433258        66.2123 
 260   0.0000       2.438040        66.3424 
 261   0.0000       2.442631        66.4674 
 262   0.0000       2.462076        66.9965 
 263   0.0000       2.493752        67.8584 
 264   0.0000       2.500973        68.0549 
 265   0.0000       2.561038        69.6894 
 266   0.0000       2.577441        70.1357 
 267   0.0000       2.591619        70.5215 
 268   0.0000       2.612841        71.0990 
 269   0.0000       2.615116        71.1609 
 270   0.0000       2.625824        71.4523 
 271   0.0000       2.644778        71.9681 
 272   0.0000       2.669570        72.6427 
 273   0.0000       2.692993        73.2801 
 274   0.0000       2.710571        73.7584 
 275   0.0000       2.749339        74.8133 
 276   0.0000       2.775208        75.5172 
 277   0.0000       2.785238        75.7902 
 278   0.0000       2.792897        75.9986 
 279   0.0000       2.793045        76.0026 
 280   0.0000       2.831314        77.0440 
 281   0.0000       2.842466        77.3474 
 282   0.0000       2.863492        77.9196 
 283   0.0000       2.868943        78.0679 
 284   0.0000       2.877433        78.2989 
 285   0.0000       2.931523        79.7708 
 286   0.0000       2.940090        80.0039 
 287   0.0000       2.953254        80.3621 
 288   0.0000       2.988284        81.3154 
 289   0.0000       3.004904        81.7676 
 290   0.0000       3.040324        82.7314 
 291   0.0000       3.057171        83.1899 
 292   0.0000       3.118936        84.8706 
 293   0.0000       3.172481        86.3276 
 294   0.0000       3.237240        88.0898 
 295   0.0000       3.506641        95.4206 
 296   0.0000       3.580748        97.4371 
 297   0.0000       3.689161       100.3872 
 298   0.0000      13.304387       362.0308 
 299   0.0000      13.536909       368.3580 
 300   0.0000      13.630448       370.9033 
 301   0.0000      13.804259       375.6330 
 302   0.0000      13.861985       377.2038 
 303   0.0000      13.911153       378.5417 
 304   0.0000      14.120913       384.2496 
 305   0.0000      14.232957       387.2984 
 306   0.0000      14.244688       387.6177 
 307   0.0000      14.324059       389.7775 
 308   0.0000      14.428063       392.6076 
 309   0.0000      14.599339       397.2682 
 310   0.0000      14.652521       398.7154 
 311   0.0000      19.662759       535.0509 
 312   0.0000      51.824501      1410.2164 

                    ********************************
                    * MULLIKEN POPULATION ANALYSIS *
                    ********************************

-----------------------
MULLIKEN ATOMIC CHARGES
-----------------------
   0 Pd:    0.036130
   1 Cl:   -0.342870
   2 Cl:   -0.410177
   3 Cl:   -0.410488
   4 N :   -0.592536
   5 C :    0.068413
   6 C :   -0.302544
   7 C :   -0.165464
   8 C :    0.396478
   9 C :    0.024695
  10 H :    0.210974
  11 H :    0.297771
  12 H :    0.221414
  13 C :    0.108140
  14 C :   -0.294603
  15 C :   -0.294015
  16 C :    0.107249
  17 H :    0.197747
  18 H :    0.198540
  19 C :   -0.230941
  20 C :   -0.288686
  21 C :   -0.231545
  22 C :   -0.220938
  23 H :    0.192687
  24 H :    0.202411
  25 H :    0.291490
  26 H :    0.230669
Sum of atomic charges:   -1.0000000

--------------------------------
MULLIKEN REDUCED ORBITAL CHARGES
--------------------------------
  0 Pds       :     2.517576  s :     2.517576
      pz      :     2.174686  p :     6.555452
      px      :     2.191668
      py      :     2.189099
      dz2     :     1.913663  d :     8.885705
      dxz     :     1.908941
      dyz     :     1.924342
      dx2y2   :     1.837579
      dxy     :     1.301181
      f0      :     0.000363  f :     0.005136
      f+1     :     0.000457
      f-1     :     0.000671
      f+2     :     0.000297
      f-2     :     0.000731
      f+3     :     0.001720
      f-3     :     0.000898
  1 Cls       :     5.919953  s :     5.919953
      pz      :     3.923953  p :    11.406545
      px      :     3.832192
      py      :     3.650400
      dz2     :     0.002049  d :     0.016372
      dxz     :     0.001385
      dyz     :     0.003134
      dx2y2   :     0.004490
      dxy     :     0.005315
  2 Cls       :     5.934125  s :     5.934125
      pz      :     3.850323  p :    11.463251
      px      :     3.730602
      py      :     3.882325
      dz2     :     0.002032  d :     0.012801
      dxz     :     0.003127
      dyz     :     0.001846
      dx2y2   :     0.002479
      dxy     :     0.003317
  3 Cls       :     5.934182  s :     5.934182
      pz      :     3.878846  p :    11.463511
      px      :     3.763834
      py      :     3.820831
      dz2     :     0.001916  d :     0.012795
      dxz     :     0.002986
      dyz     :     0.001765
      dx2y2   :     0.002828
      dxy     :     0.003299
  4 N s       :     3.655271  s :     3.655271
      pz      :     1.184569  p :     3.889266
      px      :     1.257795
      py      :     1.446902
      dz2     :     0.009746  d :     0.047998
      dxz     :     0.008573
      dyz     :     0.012773
      dx2y2   :     0.008666
      dxy     :     0.008241
  5 C s       :     3.140969  s :     3.140969
      pz      :     0.879225  p :     2.731121
      px      :     0.949315
      py      :     0.902581
      dz2     :     0.013861  d :     0.059496
      dxz     :     0.012780
      dyz     :     0.015790
      dx2y2   :     0.007727
      dxy     :     0.009338
  6 C s       :     3.278125  s :     3.278125
      pz      :     1.070171  p :     2.985499
      px      :     0.966988
      py      :     0.948340
      dz2     :     0.008848  d :     0.038920
      dxz     :     0.006674
      dyz     :     0.009288
      dx2y2   :     0.007189
      dxy     :     0.006921
  7 C s       :     3.259359  s :     3.259359
      pz      :     0.928792  p :     2.865302
      px      :     0.954452
      py      :     0.982058
      dz2     :     0.010212  d :     0.040803
      dxz     :     0.007492
      dyz     :     0.009268
      dx2y2   :     0.006554
      dxy     :     0.007278
  8 C s       :     3.171647  s :     3.171647
      pz      :     0.774350  p :     2.369578
      px      :     0.832016
      py      :     0.763212
      dz2     :     0.014447  d :     0.062297
      dxz     :     0.012495
      dyz     :     0.013691
      dx2y2   :     0.010553
      dxy     :     0.011111
  9 C s       :     3.213513  s :     3.213513
      pz      :     0.878121  p :     2.716379
      px      :     0.965495
      py      :     0.872763
      dz2     :     0.010370  d :     0.045413
      dxz     :     0.008481
      dyz     :     0.010579
      dx2y2   :     0.008122
      dxy     :     0.007861
 10 H s       :     0.789026  s :     0.789026
 11 H s       :     0.702229  s :     0.702229
 12 H s       :     0.778586  s :     0.778586
 13 C s       :     3.250555  s :     3.250555
      pz      :     0.826918  p :     2.597605
      px      :     0.925456
      py      :     0.845232
      dz2     :     0.009797  d :     0.043700
      dxz     :     0.007576
      dyz     :     0.011042
      dx2y2   :     0.007360
      dxy     :     0.007925
 14 C s       :     3.281487  s :     3.281487
      pz      :     0.967710  p :     2.972574
      px      :     0.987182
      py      :     1.017682
      dz2     :     0.009573  d :     0.040543
      dxz     :     0.008320
      dyz     :     0.009959
      dx2y2   :     0.006032
      dxy     :     0.006659
 15 C s       :     3.293360  s :     3.293360
      pz      :     0.985027  p :     2.959741
      px      :     1.005492
      py      :     0.969222
      dz2     :     0.008499  d :     0.040914
      dxz     :     0.009286
      dyz     :     0.009989
      dx2y2   :     0.005453
      dxy     :     0.007688
 16 C s       :     3.225029  s :     3.225029
      pz      :     0.858536  p :     2.621040
      px      :     0.903286
      py      :     0.859218
      dz2     :     0.010672  d :     0.046681
      dxz     :     0.008753
      dyz     :     0.010872
      dx2y2   :     0.008125
      dxy     :     0.008259
 17 H s       :     0.802253  s :     0.802253
 18 H s       :     0.801460  s :     0.801460
 19 C s       :     3.325568  s :     3.325568
      pz      :     0.957740  p :     2.866315
      px      :     0.985895
      py      :     0.922679
      dz2     :     0.008476  d :     0.039059
      dxz     :     0.008020
      dyz     :     0.009463
      dx2y2   :     0.005498
      dxy     :     0.007601
 20 C s       :     3.281130  s :     3.281130
      pz      :     0.961827  p :     2.967624
      px      :     1.024180
      py      :     0.981618
      dz2     :     0.008108  d :     0.039932
      dxz     :     0.008068
      dyz     :     0.010151
      dx2y2   :     0.005446
      dxy     :     0.008159
 21 C s       :     3.250291  s :     3.250291
      pz      :     0.952265  p :     2.940896
      px      :     0.959462
      py      :     1.029169
      dz2     :     0.009089  d :     0.040358
      dxz     :     0.008006
      dyz     :     0.010029
      dx2y2   :     0.006529
      dxy     :     0.006705
 22 C s       :     3.250547  s :     3.250547
      pz      :     1.017676  p :     2.929399
      px      :     0.967290
      py      :     0.944433
      dz2     :     0.009024  d :     0.040992
      dxz     :     0.006673
      dyz     :     0.009748
      dx2y2   :     0.008161
      dxy     :     0.007386
 23 H s       :     0.807313  s :     0.807313
 24 H s       :     0.797589  s :     0.797589
 25 H s       :     0.708510  s :     0.708510
 26 H s       :     0.769331  s :     0.769331


                     *******************************
                     * LOEWDIN POPULATION ANALYSIS *
                     *******************************

----------------------
LOEWDIN ATOMIC CHARGES
----------------------
   0 Pd:   -1.113789
   1 Cl:   -0.072132
   2 Cl:   -0.148637
   3 Cl:   -0.148873
   4 N :    0.057202
   5 C :    0.033755
   6 C :   -0.155811
   7 C :   -0.088337
   8 C :    0.098244
   9 C :   -0.046857
  10 H :    0.135506
  11 H :    0.181506
  12 H :    0.142752
  13 C :   -0.014292
  14 C :   -0.132469
  15 C :   -0.120725
  16 C :   -0.028088
  17 H :    0.131657
  18 H :    0.132208
  19 C :   -0.055485
  20 C :   -0.140043
  21 C :   -0.127257
  22 C :   -0.129371
  23 H :    0.127397
  24 H :    0.129534
  25 H :    0.208966
  26 H :    0.143440

-------------------------------
LOEWDIN REDUCED ORBITAL CHARGES
-------------------------------
  0 Pds       :     2.583253  s :     2.583253
      pz      :     2.275115  p :     7.097797
      px      :     2.399109
      py      :     2.423573
      dz2     :     1.997040  d :     9.425425
      dxz     :     1.995129
      dyz     :     1.999608
      dx2y2   :     1.954459
      dxy     :     1.479190
      f0      :     0.000499  f :     0.007314
      f+1     :     0.000633
      f-1     :     0.000991
      f+2     :     0.000390
      f-2     :     0.001037
      f+3     :     0.002543
      f-3     :     0.001221
  1 Cls       :     5.740915  s :     5.740915
      pz      :     3.879487  p :    11.313386
      px      :     3.799212
      py      :     3.634687
      dz2     :     0.002162  d :     0.017831
      dxz     :     0.001530
      dyz     :     0.003494
      dx2y2   :     0.004995
      dxy     :     0.005650
  2 Cls       :     5.767392  s :     5.767392
      pz      :     3.816685  p :    11.367295
      px      :     3.704919
      py      :     3.845691
      dz2     :     0.002234  d :     0.013951
      dxz     :     0.003386
      dyz     :     0.002016
      dx2y2   :     0.002652
      dxy     :     0.003662
  3 Cls       :     5.767460  s :     5.767460
      pz      :     3.842733  p :    11.367467
      px      :     3.728203
      py      :     3.796531
      dz2     :     0.002080  d :     0.013945
      dxz     :     0.003261
      dyz     :     0.001927
      dx2y2   :     0.003163
[...]
      px      :     0.992293
      py      :     0.929491
      dz2     :     0.011076  d :     0.038738
      dxz     :     0.005148
      dyz     :     0.010158
      dx2y2   :     0.006300
      dxy     :     0.006056
  7 C s       :     3.258205  s :     3.258205
      pz      :     0.921907  p :     2.859778
      px      :     0.950005
      py      :     0.987866
      dz2     :     0.011236  d :     0.041247
      dxz     :     0.007314
      dyz     :     0.010690
      dx2y2   :     0.006671
      dxy     :     0.005335
  8 C s       :     3.154307  s :     3.154307
      pz      :     0.780080  p :     2.433904
      px      :     0.856653
      py      :     0.797172
      dz2     :     0.014720  d :     0.063787
      dxz     :     0.011659
      dyz     :     0.015483
      dx2y2   :     0.010711
      dxy     :     0.011214
  9 C s       :     3.204968  s :     3.204968
      pz      :     0.861098  p :     2.698369
      px      :     0.982276
      py      :     0.854995
      dz2     :     0.011482  d :     0.045430
      dxz     :     0.007632
      dyz     :     0.012235
      dx2y2   :     0.007187
      dxy     :     0.006894
 10 H s       :     0.789491  s :     0.789491
 11 H s       :     0.710340  s :     0.710340
 12 H s       :     0.780014  s :     0.780014
 13 C s       :     3.235948  s :     3.235948
      pz      :     0.845508  p :     2.619855
      px      :     0.961501
      py      :     0.812845
      dz2     :     0.009772  d :     0.044257
      dxz     :     0.005815
      dyz     :     0.013188
      dx2y2   :     0.007318
      dxy     :     0.008164
 14 C s       :     3.280218  s :     3.280218
      pz      :     0.950270  p :     2.969631
      px      :     1.008210
      py      :     1.011151
      dz2     :     0.010388  d :     0.040410
      dxz     :     0.007909
      dyz     :     0.011194
      dx2y2   :     0.006477
      dxy     :     0.004442
 15 C s       :     3.291753  s :     3.291753
      pz      :     0.987976  p :     2.954277
      px      :     0.998888
      py      :     0.967412
      dz2     :     0.008887  d :     0.040707
      dxz     :     0.007512
      dyz     :     0.012682
      dx2y2   :     0.005226
      dxy     :     0.006401
 16 C s       :     3.223616  s :     3.223616
      pz      :     0.844903  p :     2.610408
      px      :     0.939463
      py      :     0.826042
      dz2     :     0.010795  d :     0.046585
      dxz     :     0.007507
      dyz     :     0.012796
      dx2y2   :     0.007856
      dxy     :     0.007632
 17 H s       :     0.802063  s :     0.802063
 18 H s       :     0.801871  s :     0.801871
 19 C s       :     3.307523  s :     3.307523
      pz      :     1.000812  p :     2.915728
      px      :     0.947624
      py      :     0.967293
      dz2     :     0.008577  d :     0.039705
      dxz     :     0.005630
      dyz     :     0.012777
      dx2y2   :     0.006575
      dxy     :     0.006146
 20 C s       :     3.285004  s :     3.285004
      pz      :     0.970026  p :     2.965776
      px      :     1.025595
      py      :     0.970155
      dz2     :     0.007884  d :     0.039857
      dxz     :     0.005781
      dyz     :     0.013225
      dx2y2   :     0.005417
      dxy     :     0.007550
 21 C s       :     3.248306  s :     3.248306
      pz      :     0.924349  p :     2.940431
      px      :     0.978824
      py      :     1.037257
      dz2     :     0.010545  d :     0.040085
      dxz     :     0.006497
      dyz     :     0.010771
      dx2y2   :     0.008335
      dxy     :     0.003936
 22 C s       :     3.246684  s :     3.246684
      pz      :     1.013062  p :     2.926162
      px      :     0.985236
      py      :     0.927864
      dz2     :     0.009511  d :     0.040753
      dxz     :     0.004646
      dyz     :     0.012240
      dx2y2   :     0.006742
      dxy     :     0.007615
 23 H s       :     0.806123  s :     0.806123
 24 H s       :     0.798550  s :     0.798550
 25 H s       :     0.702799  s :     0.702799
 26 H s       :     0.775105  s :     0.775105


                     *******************************
                     * LOEWDIN POPULATION ANALYSIS *
                     *******************************

----------------------
LOEWDIN ATOMIC CHARGES
----------------------
   0 Pd:   -1.020865
   1 Cl:   -0.075226
   2 Cl:   -0.166064
   3 Cl:   -0.147252
   4 N :    0.035044
   5 C :    0.021208
   6 C :   -0.161042
   7 C :   -0.082501
   8 C :    0.094175
   9 C :   -0.047712
  10 H :    0.135336
  11 H :    0.172247
  12 H :    0.141224
  13 C :   -0.012146
  14 C :   -0.130811
  15 C :   -0.118275
  16 C :   -0.026541
  17 H :    0.131837
  18 H :    0.132189
  19 C :   -0.071212
  20 C :   -0.136629
  21 C :   -0.127977
  22 C :   -0.130006
  23 H :    0.128114
  24 H :    0.129437
  25 H :    0.192703
  26 H :    0.140742

-------------------------------
LOEWDIN REDUCED ORBITAL CHARGES
-------------------------------
  0 Pds       :     2.594545  s :     2.594545
      pz      :     2.261550  p :     7.032072
      px      :     2.373651
      py      :     2.396871
      dz2     :     2.020824  d :     9.388981
      dxz     :     2.037906
      dyz     :     1.850870
      dx2y2   :     1.971497
      dxy     :     1.507884
      f0      :     0.000561  f :     0.005266
      f+1     :     0.000393
      f-1     :     0.000403
      f+2     :     0.000448
      f-2     :     0.001123
      f+3     :     0.001033
      f-3     :     0.001304
  1 Cls       :     5.755482  s :     5.755482
      pz      :     3.872725  p :    11.304270
      px      :     3.658736
      py      :     3.772809
      dz2     :     0.001980  d :     0.015474
      dxz     :     0.002929
      dyz     :     0.001693
      dx2y2   :     0.004009
      dxy     :     0.004863
  2 Cls       :     5.772341  s :     5.772341
      pz      :     3.819830  p :    11.380827
      px      :     3.827191
      py      :     3.733806
      dz2     :     0.002062  d :     0.012896
      dxz     :     0.001644
      dyz     :     0.003308
      dx2y2   :     0.002886
      dxy     :     0.002995
  3 Cls       :     5.770210  s :     5.770210
      pz      :     3.840379  p :    11.363700
      px      :     3.855478
      py      :     3.667843
      dz2     :     0.001965  d :     0.013341
      dxz     :     0.001592
      dyz     :     0.003515
      dx2y2   :     0.002699
      dxy     :     0.003570
  4 N s       :     3.103804  s :     3.103804
      pz      :     1.187343  p :     3.760765
      px      :     1.199482
      py      :     1.373940
      dz2     :     0.026535  d :     0.100386
      dxz     :     0.022669
      dyz     :     0.027662
      dx2y2   :     0.011951
      dxy     :     0.011569
  5 C s       :     2.866049  s :     2.866049
      pz      :     1.004617  p :     2.977786
      px      :     0.938383
      py      :     1.034786
      dz2     :     0.035486  d :     0.134958
      dxz     :     0.025626
      dyz     :     0.045453
      dx2y2   :     0.013443
      dxy     :     0.014951
  6 C s       :     2.888859  s :     2.888859
      pz      :     1.075676  p :     3.182407
      px      :     1.030876
      py      :     1.075855
      dz2     :     0.024041  d :     0.089775
      dxz     :     0.010789
      dyz     :     0.025199
      dx2y2   :     0.014443
      dxy     :     0.015304
  7 C s       :     2.886236  s :     2.886236
      pz      :     1.069672  p :     3.103141
      px      :     0.973716
      py      :     1.059753
      dz2     :     0.027639  d :     0.093123
      dxz     :     0.017092
      dyz     :     0.025964
      dx2y2   :     0.012195
      dxy     :     0.010234
  8 C s       :     2.808342  s :     2.808342
      pz      :     0.990177  p :     2.947804
      px      :     0.941390
      py      :     1.016237
      dz2     :     0.035239  d :     0.149679
      dxz     :     0.026445
      dyz     :     0.037035
      dx2y2   :     0.023635
      dxy     :     0.027325
  9 C s       :     2.831237  s :     2.831237
      pz      :     1.051327  p :     3.104628
      px      :     0.995940
      py      :     1.057362
      dz2     :     0.028969  d :     0.111846
      dxz     :     0.016809
      dyz     :     0.033516
      dx2y2   :     0.016563
      dxy     :     0.015989
 10 H s       :     0.864664  s :     0.864664
 11 H s       :     0.827753  s :     0.827753
 12 H s       :     0.858776  s :     0.858776
 13 C s       :     2.828600  s :     2.828600
      pz      :     1.021242  p :     3.075278
      px      :     0.985563
      py      :     1.068473
      dz2     :     0.024883  d :     0.108268
      dxz     :     0.012611
      dyz     :     0.034889
      dx2y2   :     0.017750
      dxy     :     0.018135
 14 C s       :     2.882363  s :     2.882363
      pz      :     1.078975  p :     3.156484
      px      :     1.017754
      py      :     1.059755
      dz2     :     0.026118  d :     0.091965
      dxz     :     0.017876
      dyz     :     0.027773
      dx2y2   :     0.011929
      dxy     :     0.008269
 15 C s       :     2.884801  s :     2.884801
      pz      :     1.082216  p :     3.141344
      px      :     1.001299
      py      :     1.057829
      dz2     :     0.022052  d :     0.092130
      dxz     :     0.014512
      dyz     :     0.031060
      dx2y2   :     0.011805
      dxy     :     0.012701
 16 C s       :     2.830774  s :     2.830774
      pz      :     1.053272  p :     3.082789
      px      :     0.981999
      py      :     1.047518
      dz2     :     0.027637  d :     0.112978
      dxz     :     0.016920
      dyz     :     0.033068
      dx2y2   :     0.018074
      dxy     :     0.017280
 17 H s       :     0.868163  s :     0.868163
 18 H s       :     0.867811  s :     0.867811
 19 C s       :     2.885159  s :     2.885159
      pz      :     1.077955  p :     3.096502
      px      :     0.945328
      py      :     1.073219
      dz2     :     0.020346  d :     0.089551
      dxz     :     0.010793
      dyz     :     0.030934
      dx2y2   :     0.014626
      dxy     :     0.012852
 20 C s       :     2.883918  s :     2.883918
      pz      :     1.056067  p :     3.162089
      px      :     1.022436
      py      :     1.083586
      dz2     :     0.019052  d :     0.090622
      dxz     :     0.011065
      dyz     :     0.032130
      dx2y2   :     0.013038
      dxy     :     0.015337
 21 C s       :     2.886613  s :     2.886613
      pz      :     1.075781  p :     3.149851
      px      :     0.998267
      py      :     1.075803
      dz2     :     0.025887  d :     0.091513
      dxz     :     0.015263
      dyz     :     0.027245
      dx2y2   :     0.015130
      dxy     :     0.007988
 22 C s       :     2.888950  s :     2.888950
      pz      :     1.061766  p :     3.148416
      px      :     0.995685
      py      :     1.090965
      dz2     :     0.020767  d :     0.092639
      dxz     :     0.008322
      dyz     :     0.029630
      dx2y2   :     0.016777
      dxy     :     0.017142
 23 H s       :     0.871886  s :     0.871886
 24 H s       :     0.870563  s :     0.870563
 25 H s       :     0.807297  s :     0.807297
 26 H s       :     0.859258  s :     0.859258


                      *****************************
                      * MAYER POPULATION ANALYSIS *
                      *****************************

  NA   - Mulliken gross atomic population
  ZA   - Total nuclear charge
  QA   - Mulliken gross atomic charge
  VA   - Mayer's total valence
  BVA  - Mayer's bonded valence
  FA   - Mayer's free valence

  ATOM       NA         ZA         QA         VA         BVA        FA
  0 Pd    17.9446    18.0000     0.0554     2.9319     2.9319     0.0000
  1 Cl    17.3391    17.0000    -0.3391     1.0668     1.0668    -0.0000
  2 Cl    17.4266    17.0000    -0.4266     0.9652     0.9652    -0.0000
  3 Cl    17.4106    17.0000    -0.4106     0.9814     0.9814    -0.0000
  4 N      7.5279     7.0000    -0.5279     3.2434     3.2434     0.0000
  5 C      5.9625     6.0000     0.0375     3.7789     3.7789     0.0000
  6 C      6.3086     6.0000    -0.3086     3.8063     3.8063    -0.0000
  7 C      6.1592     6.0000    -0.1592     3.7192     3.7192     0.0000
  8 C      5.6520     6.0000     0.3480     3.6076     3.6076     0.0000
  9 C      5.9488     6.0000     0.0512     3.7171     3.7171    -0.0000
 10 H      0.7895     1.0000     0.2105     0.9151     0.9151     0.0000
 11 H      0.7103     1.0000     0.2897     0.8801     0.8801    -0.0000
 12 H      0.7800     1.0000     0.2200     0.9180     0.9180    -0.0000
 13 C      5.9001     6.0000     0.0999     3.6504     3.6504    -0.0000
 14 C      6.2903     6.0000    -0.2903     3.8206     3.8206    -0.0000
 15 C      6.2867     6.0000    -0.2867     3.8044     3.8044     0.0000
 16 C      5.8806     6.0000     0.1194     3.7366     3.7366    -0.0000
 17 H      0.8021     1.0000     0.1979     0.9206     0.9206     0.0000
 18 H      0.8019     1.0000     0.1981     0.9202     0.9202    -0.0000
 19 C      6.2630     6.0000    -0.2630     3.7050     3.7050    -0.0000
 20 C      6.2906     6.0000    -0.2906     3.7884     3.7884     0.0000
 21 C      6.2288     6.0000    -0.2288     3.8271     3.8271    -0.0000
 22 C      6.2136     6.0000    -0.2136     3.8182     3.8182     0.0000
 23 H      0.8061     1.0000     0.1939     0.9212     0.9212     0.0000
 24 H      0.7985     1.0000     0.2015     0.9166     0.9166     0.0000
 25 H      0.7028     1.0000     0.2972     0.9108     0.9108     0.0000
 26 H      0.7751     1.0000     0.2249     0.9102     0.9102    -0.0000

  Mayer bond orders larger than 0.100000
B(  0-Pd,  1-Cl) :   0.9486 B(  0-Pd,  2-Cl) :   0.7640 B(  0-Pd,  3-Cl) :   0.8321 
B(  0-Pd,  4-N ) :   0.3391 B(  4-N ,  5-C ) :   1.4767 B(  4-N ,  8-C ) :   1.2394 
B(  5-C ,  6-C ) :   1.3110 B(  5-C , 11-H ) :   0.8859 B(  6-C ,  7-C ) :   1.4685 
B(  6-C , 12-H ) :   0.9195 B(  7-C ,  9-C ) :   1.2794 B(  7-C , 10-H ) :   0.9287 
B(  8-C ,  9-C ) :   1.2443 B(  8-C , 13-C ) :   1.0993 B(  9-C , 14-C ) :   1.1602 
B( 13-C , 16-C ) :   1.3051 B( 13-C , 19-C ) :   1.2814 B( 14-C , 15-C ) :   1.6537 
B( 14-C , 17-H ) :   0.9291 B( 15-C , 16-C ) :   1.1573 B( 15-C , 18-H ) :   0.9279 
B( 16-C , 20-C ) :   1.2731 B( 19-C , 21-C ) :   1.4982 B( 19-C , 25-H ) :   0.8501 
B( 20-C , 22-C ) :   1.4961 B( 20-C , 23-H ) :   0.9307 B( 21-C , 22-C ) :   1.3406 
B( 21-C , 26-H ) :   0.9181 B( 22-C , 24-H ) :   0.9248 

-------
TIMINGS
-------

Total SCF time: 0 days 0 hours 0 min 47 sec 

Total time                  ....      47.164 sec
Sum of individual times     ....      46.670 sec  ( 99.0%)

Fock matrix formation       ....      44.890 sec  ( 95.2%)
  Split-RI-J                ....       3.625 sec  (  8.1% of F)
  Chain of spheres X        ....      38.422 sec  ( 85.6% of F)
  XC integration            ....       2.473 sec  (  5.5% of F)
    Basis function eval.    ....       1.098 sec  ( 44.4% of XC)
    Density eval.           ....       0.616 sec  ( 24.9% of XC)
    XC-Functional eval.     ....       0.207 sec  (  8.4% of XC)
    XC-Potential eval.      ....       0.368 sec  ( 14.9% of XC)
Diagonalization             ....       0.199 sec  (  0.4%)
Density matrix formation    ....       0.013 sec  (  0.0%)
Population analysis         ....       0.057 sec  (  0.1%)
Initial guess               ....       0.024 sec  (  0.1%)
Orbital Transformation      ....       0.000 sec  (  0.0%)
Orbital Orthonormalization  ....       0.016 sec  (  0.0%)
DIIS solution               ....       0.115 sec  (  0.2%)
Grid generation             ....       1.373 sec  (  2.9%)

Maximum memory used throughout the entire SCF-calculation: 85.6 MB


-------------------------------------------------------------------------------
                          DFT DISPERSION CORRECTION                            
                                                                               
                              DFTD3 V3.1  Rev 1                                
                          USING Becke-Johnson damping                          
-------------------------------------------------------------------------------
The PBEh-3c composite method is recognized
Using three-body term ABC
Active option DFTDOPT                   ...         4   

molecular C6(AA) [au] = 16702.381907 


            DFT-D V3
 parameters
 s6 scaling factor         :     1.0000 
 a1 scaling factor         :     0.4860 
 s8 scaling factor         :     0.0000 
 a2 scaling factor         :     4.5000 
 Damping factor alpha9(ATM):    16.0000 
 ad hoc parameters k1-k3   :    16.0000     1.3333    -4.0000 

 Edisp/kcal,au: -15.475787521633  -0.024662234612 
 E6   /kcal   : -15.578154233 
 E8   /kcal   :  -0.000000000 
 E6(ABC)      :   0.102366712 
 % E8         :   0.000000000 
 % E6(ABC)    :  -0.661463667 

-------------------------   ----------------
Dispersion correction           -0.024662235
-------------------------   ----------------

 ** NOTE ** -> element pd will be treated as ni
------------------   -----------------
gCP correction             0.042160083
------------------   -----------------

-------------------------   --------------------
FINAL SINGLE POINT ENERGY     -2061.545778387850
-------------------------   --------------------

                                *** OPTIMIZATION RUN DONE ***

                            ***************************************
                            *     ORCA property calculations      *
                            ***************************************

                                    ---------------------
                                    Active property flags
                                    ---------------------
   (+) Dipole Moment


------------------------------------------------------------------------------
                       ORCA ELECTRIC PROPERTIES CALCULATION
------------------------------------------------------------------------------

Dipole Moment Calculation                       ... on
Quadrupole Moment Calculation                   ... off
Polarizability Calculation                      ... off
GBWName                                         ... reaction-2-rct-pbeh3c-orca_opt.gbw
Electron density                                ... reaction-2-rct-pbeh3c-orca_opt.scfp
The origin for moment calculation is the CENTER OF MASS  = (-2.358930, -1.669907  0.774466)

-------------
DIPOLE MOMENT
-------------
                                X             Y             Z
Electronic contribution:    -92.69020     -66.41487      38.75549
Nuclear contribution   :     96.70408      69.62076     -38.85131
                        -----------------------------------------
Total Dipole Moment    :      4.01388       3.20589      -0.09582
                        -----------------------------------------
Magnitude (a.u.)       :      5.13792
Magnitude (Debye)      :     13.05954



--------------------
Rotational spectrum 
--------------------
 
Rotational constants in cm-1:     0.012991     0.007307     0.006073 
Rotational constants in MHz :   389.470584   219.068318   182.052220 

 Dipole components along the rotational axes: 
x,y,z [a.u.] :    -4.867408     1.319556    -0.982490 
x,y,z [Debye]:   -12.371968     3.354045    -2.497291 

 

Timings for individual modules:

Sum of individual times         ...     4901.918 sec (=  81.699 min)
GTO integral calculation        ...       60.610 sec (=   1.010 min)   1.2 %
SCF iterations                  ...     3776.207 sec (=  62.937 min)  77.0 %
SCF Gradient evaluation         ...     1054.858 sec (=  17.581 min)  21.5 %
Geometry relaxation             ...       10.243 sec (=   0.171 min)   0.2 %
                             ****ORCA TERMINATED NORMALLY****
TOTAL RUN TIME: 0 days 1 hours 22 minutes 13 seconds 661 msec
