
                                 *****************
                                 * O   R   C   A *
                                 *****************

                                            #,                                       
                                            ###                                      
                                            ####                                     
                                            #####                                    
                                            ######                                   
                                           ########,                                 
                                     ,,################,,,,,                         
                               ,,#################################,,                 
                          ,,##########################################,,             
                       ,#########################################, ''#####,          
                    ,#############################################,,   '####,        
                  ,##################################################,,,,####,       
                ,###########''''           ''''###############################       
              ,#####''   ,,,,##########,,,,          '''####'''          '####       
            ,##' ,,,,###########################,,,                        '##       
           ' ,,###''''                  '''############,,,                           
         ,,##''                                '''############,,,,        ,,,,,,###''
      ,#''                                            '''#######################'''  
     '                                                          ''''####''''         
             ,#######,   #######,   ,#######,      ##                                
            ,#'     '#,  ##    ##  ,#'     '#,    #''#        ######   ,####,        
            ##       ##  ##   ,#'  ##            #'  '#       #        #'  '#        
            ##       ##  #######   ##           ,######,      #####,   #    #        
            '#,     ,#'  ##    ##  '#,     ,#' ,#      #,         ##   #,  ,#        
             '#######'   ##     ##  '#######'  #'      '#     #####' # '####'        



                  #######################################################
                  #                        -***-                        #
                  #          Department of theory and spectroscopy      #
                  #    Directorship and core code : Frank Neese         #
                  #        Max Planck Institute fuer Kohlenforschung    #
                  #                Kaiser Wilhelm Platz 1               #
                  #                 D-45470 Muelheim/Ruhr               #
                  #                      Germany                        #
                  #                                                     #
                  #                  All rights reserved                #
                  #                        -***-                        #
                  #######################################################


                         Program Version 5.0.4 -  RELEASE  -


 With contributions from (in alphabetic order):
   Daniel Aravena         : Magnetic Suceptibility
   Michael Atanasov       : Ab Initio Ligand Field Theory (pilot matlab implementation)
   Alexander A. Auer      : GIAO ZORA, VPT2 properties, NMR spectrum
   Ute Becker             : Parallelization
   Giovanni Bistoni       : ED, misc. LED, open-shell LED, HFLD
   Martin Brehm           : Molecular dynamics
   Dmytro Bykov           : SCF Hessian
   Vijay G. Chilkuri      : MRCI spin determinant printing, contributions to CSF-ICE
   Dipayan Datta          : RHF DLPNO-CCSD density
   Achintya Kumar Dutta   : EOM-CC, STEOM-CC
   Dmitry Ganyushin       : Spin-Orbit,Spin-Spin,Magnetic field MRCI
   Miquel Garcia          : C-PCM and meta-GGA Hessian, CC/C-PCM, Gaussian charge scheme
   Yang Guo               : DLPNO-NEVPT2, F12-NEVPT2, CIM, IAO-localization
   Andreas Hansen         : Spin unrestricted coupled pair/coupled cluster methods
   Benjamin Helmich-Paris : MC-RPA, TRAH-SCF, COSX integrals
   Lee Huntington         : MR-EOM, pCC
   Robert Izsak           : Overlap fitted RIJCOSX, COSX-SCS-MP3, EOM
   Marcus Kettner         : VPT2
   Christian Kollmar      : KDIIS, OOCD, Brueckner-CCSD(T), CCSD density, CASPT2, CASPT2-K
   Simone Kossmann        : Meta GGA functionals, TD-DFT gradient, OOMP2, MP2 Hessian
   Martin Krupicka        : Initial AUTO-CI
   Lucas Lang             : DCDCAS
   Marvin Lechner         : AUTO-CI (C++ implementation), FIC-MRCC
   Dagmar Lenk            : GEPOL surface, SMD
   Dimitrios Liakos       : Extrapolation schemes; Compound Job, initial MDCI parallelization
   Dimitrios Manganas     : Further ROCIS development; embedding schemes
   Dimitrios Pantazis     : SARC Basis sets
   Anastasios Papadopoulos: AUTO-CI, single reference methods and gradients
   Taras Petrenko         : DFT Hessian,TD-DFT gradient, ASA, ECA, R-Raman, ABS, FL, XAS/XES, NRVS
   Peter Pinski           : DLPNO-MP2, DLPNO-MP2 Gradient
   Christoph Reimann      : Effective Core Potentials
   Marius Retegan         : Local ZFS, SOC
   Christoph Riplinger    : Optimizer, TS searches, QM/MM, DLPNO-CCSD(T), (RO)-DLPNO pert. Triples
   Tobias Risthaus        : Range-separated hybrids, TD-DFT gradient, RPA, STAB
   Michael Roemelt        : Original ROCIS implementation
   Masaaki Saitow         : Open-shell DLPNO-CCSD energy and density
   Barbara Sandhoefer     : DKH picture change effects
   Avijit Sen             : IP-ROCIS
   Kantharuban Sivalingam : CASSCF convergence, NEVPT2, FIC-MRCI
   Bernardo de Souza      : ESD, SOC TD-DFT
   Georgi Stoychev        : AutoAux, RI-MP2 NMR, DLPNO-MP2 response
   Willem Van den Heuvel  : Paramagnetic NMR
   Boris Wezisla          : Elementary symmetry handling
   Frank Wennmohs         : Technical directorship


 We gratefully acknowledge several colleagues who have allowed us to
 interface, adapt or use parts of their codes:
   Stefan Grimme, W. Hujo, H. Kruse, P. Pracht,  : VdW corrections, initial TS optimization,
                  C. Bannwarth, S. Ehlert          DFT functionals, gCP, sTDA/sTD-DF
   Ed Valeev, F. Pavosevic, A. Kumar             : LibInt (2-el integral package), F12 methods
   Garnet Chan, S. Sharma, J. Yang, R. Olivares  : DMRG
   Ulf Ekstrom                                   : XCFun DFT Library
   Mihaly Kallay                                 : mrcc  (arbitrary order and MRCC methods)
   Jiri Pittner, Ondrej Demel                    : Mk-CCSD
   Frank Weinhold                                : gennbo (NPA and NBO analysis)
   Christopher J. Cramer and Donald G. Truhlar   : smd solvation model
   Lars Goerigk                                  : TD-DFT with DH, B97 family of functionals
   V. Asgeirsson, H. Jonsson                     : NEB implementation
   FAccTs GmbH                                   : IRC, NEB, NEB-TS, DLPNO-Multilevel, CI-OPT
                                                   MM, QMMM, 2- and 3-layer-ONIOM, Crystal-QMMM,
                                                   LR-CPCM, SF, NACMEs, symmetry and pop. for TD-DFT,
                                                   nearIR, NL-DFT gradient (VV10), updates on ESD,
                                                   ML-optimized integration grids
   S Lehtola, MJT Oliveira, MAL Marques          : LibXC Library
   Liviu Ungur et al                             : ANISO software


 Your calculation uses the libint2 library for the computation of 2-el integrals
 For citations please refer to: http://libint.valeyev.net

 Your ORCA version has been built with support for libXC version: 5.1.0
 For citations please refer to: https://tddft.org/programs/libxc/

 This ORCA versions uses:
   CBLAS   interface :  Fast vector & matrix operations
   LAPACKE interface :  Fast linear algebra routines
   SCALAPACK package :  Parallel linear algebra routines
   Shared memory     :  Shared parallel matrices
   BLAS/LAPACK       :  OpenBLAS 0.3.15  USE64BITINT DYNAMIC_ARCH NO_AFFINITY SkylakeX SINGLE_THREADED
        Core in use  :  SkylakeX
   Copyright (c) 2011-2014, The OpenBLAS Project




***************************************
The coordinates will be read from file: reaction-2-prod-xtb.xyz
***************************************


Your calculation utilizes the geometrical counterpoise correction gCP
Please cite in your paper:
H.Kruse, S. Grimme J.Chem.Phys., 136, (2012), 154101 
   

Your calculation utilizes the atom-pairwise dispersion correction
with the Becke-Johnson damping scheme (D3BJ)
Cite in your paper:
S.Grimme, S.Ehrlich, L.Goerigk, J Comput Chem, (2011), 32, 1456–1465 
S.Grimme, J.Antony, S.Ehrlich and H.Krieg, J.Chem.Phys., 132, (2010), 154104 
   

Your calculation employs the composite approach PBEh-3c.
Please cite in your paper:
S. Grimme, J. G. Brandenburg, C. Bannwarth, A. Hansen J.Chem.Phys., 143, (2015), 054107 
   

================================================================================

cite the ECPs for Pd [Def2-ECP] as follows:
Ce-Yb(ecp-28): M. Dolg, H. Stoll, H.Preuss, J. Chem. Phys., 1989, 90, 1730-1734.
Y-Cd(ecp-28), Hf-Hg(ecp-46): D. Andrae,U. Haeussermann, M. Dolg, H. Stoll, H. Preuss, Theor. Chim. Acta, 1990, 77, 123-141.
In-Sb(ecp-28), Tl-Bi(ecp-46): B. Metz, H. Stoll, M. Dolg, J. Chem. Phys., 2000, 113, 2563-2569.
Te-Xe(ecp-28), Po-Rn(ecp-46): K. A. Peterson, D. Figgen, E. Goll, H. Stoll, M. Dolg, J. Chem. Phys., 2003, 119, 11113-11123.
Rb(ecp-28), Cs(ecp-46): T. Leininger, A. Nicklass, W. Kuechle, H. Stoll, M. Dolg, A. Bergner, Chem. Phys. Lett., 1996, 255, 274-280.
Sr(ecp-28), Ba(ecp-46): M. Kaupp, P. V. Schleyer, H. Stoll and H. Preuss, J. Chem. Phys., 1991, 94, 1360-1366.
La(ecp-46): M. Dolg, H. Stoll, A. Savin, H. Preuss, Theor. Chim. Acta, 1989, 75, 173-194.
Lu(ecp-28): X. Cao, M. Dolg, J. Chem. Phys., 2001, 115, 7348-7355.

ECP parameters for Pd [Def2-ECP] have been obtained from:
TURBOMOLE (7.0.2)

----- Orbital basis set information -----
Your calculation utilizes the basis: def2-mSVP

----- AuxJ basis set information -----
Your calculation utilizes the auxiliary basis: def2/J
   F. Weigend, Phys. Chem. Chem. Phys. 8, 1057 (2006).

================================================================================
                                        WARNINGS
                       Please study these warnings very carefully!
================================================================================


WARNING: Geometry Optimization
  ===> : Switching off AutoStart
         For restart on a previous wavefunction, please use MOREAD

INFO   : the flag for use of the SHARK integral package has been found!

================================================================================
                                       INPUT FILE
================================================================================
NAME = reaction-2-prod-pbeh3c-orca_opt.inp
|  1> ! PBEh-3c OPT pal4
|  2> 
|  3> %geom
|  4>  maxiter 600
|  5> end 
|  6> 
|  7> *xyzfile -1 1 reaction-2-prod-xtb.xyz
|  8> 
|  9>                          ****END OF INPUT****
================================================================================

                       *****************************
                       * Geometry Optimization Run *
                       *****************************

Geometry optimization settings:
Update method            Update   .... BFGS
Choice of coordinates    CoordSys .... Z-matrix Internals
Initial Hessian          InHess   .... Almoef's Model

Convergence Tolerances:
Energy Change            TolE     ....  5.0000e-06 Eh
Max. Gradient            TolMAXG  ....  3.0000e-04 Eh/bohr
RMS Gradient             TolRMSG  ....  1.0000e-04 Eh/bohr
Max. Displacement        TolMAXD  ....  4.0000e-03 bohr
RMS Displacement         TolRMSD  ....  2.0000e-03 bohr
Strict Convergence                ....  False
------------------------------------------------------------------------------
                        ORCA OPTIMIZATION COORDINATE SETUP
------------------------------------------------------------------------------

The optimization will be done in new redundant internal coordinates
Making redundant internal coordinates   ...  (new redundants) done
Evaluating the initial hessian          ...  (Almloef) done
Evaluating the coordinates              ...  done
Calculating the B-matrix                .... done
Calculating the G-matrix                .... done
Diagonalizing the G-matrix              .... done
The first mode is                       ....  118
The number of degrees of freedom        ....   75

    -----------------------------------------------------------------
                    Redundant Internal Coordinates


    -----------------------------------------------------------------
         Definition                    Initial Value    Approx d2E/dq
    -----------------------------------------------------------------
      1. B(Cl  1,Pd  0)                  2.2969         0.507007   
      2. B(Cl  2,Pd  0)                  2.7934         0.081808   
      3. B(Cl  3,Pd  0)                  2.3592         0.403179   
      4. B(N   4,Pd  0)                  1.9946         0.614388   
      5. B(C   5,N   4)                  1.3213         0.720160   
      6. B(C   6,C   5)                  1.3953         0.612825   
      7. B(C   7,C   6)                  1.3774         0.654456   
      8. B(C   8,N   4)                  1.3534         0.640070   
      9. B(C   8,Pd  0)                  2.8196         0.033120   
     10. B(C   9,C   8)                  1.4107         0.579078   
     11. B(C   9,C   7)                  1.4022         0.597393   
     12. B(H  10,C   7)                  1.0820         0.370782   
     13. B(H  11,C   5)                  1.0844         0.367538   
     14. B(H  12,C   6)                  1.0799         0.373696   
     15. B(C  13,C   8)                  1.4198         0.560027   
     16. B(C  14,C   9)                  1.4244         0.550596   
     17. B(C  15,C  14)                  1.3573         0.704499   
     18. B(C  16,C  15)                  1.4242         0.551112   
     19. B(C  16,C  13)                  1.4122         0.575857   
     20. B(H  17,C  14)                  1.0824         0.370299   
     21. B(H  18,C  15)                  1.0830         0.369432   
     22. B(C  19,C  13)                  1.4156         0.568736   
     23. B(C  19,Pd  0)                  2.0080         0.653043   
     24. B(C  20,C  16)                  1.4009         0.600341   
     25. B(C  21,C  19)                  1.3860         0.634024   
     26. B(C  22,C  21)                  1.3982         0.606177   
     27. B(C  22,C  20)                  1.3766         0.656320   
     28. B(H  23,C  20)                  1.0829         0.369658   
     29. B(H  24,C  22)                  1.0834         0.368927   
     30. B(H  25,Cl  2)                  1.3179         0.349809   
     31. B(H  26,C  21)                  1.0826         0.370008   
     32. A(Cl  1,Pd  0,C   8)          150.2728         0.324982   
     33. A(C   8,Pd  0,C  19)           57.1590         0.328963   
     34. A(Cl  3,Pd  0,N   4)           92.3763         0.520411   
     35. A(Cl  1,Pd  0,Cl  3)           91.1565         0.521674   
     36. A(Cl  2,Pd  0,C   8)          103.2391         0.245160   
     37. A(N   4,Pd  0,C  19)           83.2935         0.551042   
     38. A(Cl  2,Pd  0,N   4)          105.7913         0.389681   
     39. A(Cl  2,Pd  0,C  19)           91.5360         0.395650   
     40. A(N   4,Pd  0,C   8)           26.1486         0.324292   
     41. A(Cl  2,Pd  0,Cl  3)           91.3168         0.375320   
     42. A(Cl  1,Pd  0,Cl  2)           75.8442         0.390562   
     43. A(Cl  1,Pd  0,C  19)           93.1210         0.552396   
     44. A(Cl  3,Pd  0,C   8)          118.5249         0.313055   
     45. A(Pd  0,Cl  2,H  25)           69.0132         0.304388   
     46. A(C   5,N   4,C   8)          118.6345         0.442653   
     47. A(Pd  0,N   4,C   5)          127.9775         0.494654   
     48. A(Pd  0,N   4,C   8)          113.3496         0.483972   
     49. A(N   4,C   5,C   6)          122.3986         0.442094   
     50. A(C   6,C   5,H  11)          121.3120         0.353435   
     51. A(N   4,C   5,H  11)          116.2894         0.361017   
     52. A(C   7,C   6,H  12)          120.9279         0.358410   
     53. A(C   5,C   6,H  12)          119.1139         0.354432   
     54. A(C   5,C   6,C   7)          119.9582         0.437397   
     55. A(C   9,C   7,H  10)          119.9889         0.352437   
     56. A(C   6,C   7,H  10)          121.2426         0.357933   
     57. A(C   6,C   7,C   9)          118.7683         0.435392   
     58. A(Pd  0,C   8,N   4)           40.5017         0.294130   
     59. A(C   9,C   8,C  13)          121.0616         0.421040   
     60. A(N   4,C   8,C  13)          116.2288         0.425857   
     61. A(Pd  0,C   8,C  13)           75.7407         0.289672   
     62. A(N   4,C   8,C   9)          122.7078         0.428417   
     63. A(Pd  0,C   8,C   9)          163.1366         0.291197   
     64. A(C   8,C   9,C  14)          117.9004         0.419766   
     65. A(C   7,C   9,C  14)          124.5675         0.422105   
     66. A(C   7,C   9,C   8)          117.5321         0.425929   
     67. A(C  16,C  13,C  19)          123.3601         0.421781   
     68. A(C   8,C  13,C  19)          116.9455         0.419688   
     69. A(C   8,C  13,C  16)          119.6906         0.420621   
     70. A(C   9,C  14,C  15)          121.2584         0.434773   
     71. A(C  15,C  14,H  17)          120.7824         0.362375   
     72. A(C   9,C  14,H  17)          117.9591         0.347541   
     73. A(C  16,C  15,H  18)          118.0680         0.347459   
     74. A(C  14,C  15,H  18)          120.1190         0.362230   
     75. A(C  14,C  15,C  16)          121.8127         0.434847   
     76. A(C  15,C  16,C  20)          123.9625         0.422547   
     77. A(C  13,C  16,C  20)          117.7611         0.425880   
     78. A(C  13,C  16,C  15)          118.2757         0.419418   
     79. A(C  13,C  19,C  21)          116.1752         0.429108   
     80. A(Pd  0,C  19,C  21)          133.6229         0.494284   
     81. A(Pd  0,C  19,C  13)          110.1450         0.484437   
     82. A(C  22,C  20,H  23)          120.8036         0.357921   
     83. A(C  16,C  20,H  23)          119.5971         0.352549   
     84. A(C  16,C  20,C  22)          119.5985         0.436001   
     85. A(C  22,C  21,H  26)          118.8126         0.353184   
     86. A(C  19,C  21,H  26)          119.8337         0.355883   
     87. A(C  19,C  21,C  22)          121.3537         0.434052   
     88. A(C  21,C  22,H  24)          118.9477         0.353009   
     89. A(C  20,C  22,H  24)          119.3084         0.357801   
     90. A(C  20,C  22,C  21)          121.7438         0.436762   
     91. D(H  25,Cl  2,Pd  0,N   4)   -179.5185         0.001516   
     92. D(H  25,Cl  2,Pd  0,Cl  1)     -3.2223         0.001516   
     93. D(H  25,Cl  2,Pd  0,C   8)   -152.6182         0.001516   
     94. D(H  25,Cl  2,Pd  0,C  19)    -96.0543         0.001516   
     95. D(H  25,Cl  2,Pd  0,Cl  3)     87.6384         0.001516   
     96. D(C   5,N   4,Pd  0,C   8)   -177.6902         0.003486   
     97. D(C   5,N   4,Pd  0,Cl  2)    -89.7533         0.003486   
     98. D(C   8,N   4,Pd  0,Cl  3)    179.9793         0.003486   
     99. D(C   8,N   4,Pd  0,C  19)     -1.7648         0.003486   
    100. D(C   5,N   4,Pd  0,C  19)   -179.4549         0.003486   
    101. D(C   8,N   4,Pd  0,Cl  2)     87.9369         0.003486   
    102. D(C   5,N   4,Pd  0,Cl  3)      2.2891         0.003486   
    103. D(C   6,C   5,N   4,C   8)      0.1454         0.043169   
    104. D(C   6,C   5,N   4,Pd  0)    177.7292         0.043169   
    105. D(H  11,C   5,N   4,C   8)   -179.7598         0.043169   
    106. D(H  11,C   5,N   4,Pd  0)     -2.1761         0.043169   
    107. D(H  12,C   6,C   5,N   4)    179.8587         0.025951   
    108. D(C   7,C   6,C   5,H  11)    179.7777         0.025951   
    109. D(H  12,C   6,C   5,H  11)     -0.2407         0.025951   
    110. D(C   7,C   6,C   5,N   4)     -0.1228         0.025951   
    111. D(H  10,C   7,C   6,H  12)      0.1314         0.029851   
    112. D(H  10,C   7,C   6,C   5)   -179.8874         0.029851   
    113. D(C   9,C   7,C   6,H  12)    179.9421         0.029851   
    114. D(C   9,C   7,C   6,C   5)     -0.0766         0.029851   
    115. D(C   9,C   8,Pd  0,Cl  2)    -92.8124         0.001507   
    116. D(C   9,C   8,Pd  0,Cl  1)   -177.3816         0.001507   
    117. D(N   4,C   8,Pd  0,C  19)    177.9138         0.001507   
    118. D(N   4,C   8,Pd  0,Cl  3)     -0.0236         0.001507   
    119. D(C   9,C   8,N   4,C   5)      0.0297         0.036271   
    120. D(C   9,C   8,Pd  0,Cl  3)      6.0895         0.001507   
    121. D(C  13,C   8,N   4,Pd  0)      1.6116         0.036271   
    122. D(C   9,C   8,N   4,Pd  0)   -177.8960         0.036271   
    123. D(N   4,C   8,Pd  0,Cl  2)    -98.9255         0.001507   
    124. D(C  13,C   8,Pd  0,C  19)     -0.5947         0.001507   
    125. D(C  13,C   8,N   4,C   5)    179.5372         0.036271   
    126. D(C  13,C   8,Pd  0,Cl  3)   -178.5320         0.001507   
    127. D(C  13,C   8,Pd  0,Cl  2)     82.5661         0.001507   
    128. D(Pd  0,C   8,N   4,C   5)    177.9256         0.036271   
    129. D(C  13,C   8,Pd  0,Cl  1)     -2.0031         0.001507   
    130. D(C   9,C   8,Pd  0,C  19)   -175.9731         0.001507   
    131. D(C   9,C   8,Pd  0,N   4)      6.1131         0.001507   
    132. D(C  13,C   8,Pd  0,N   4)   -178.5084         0.001507   
    133. D(N   4,C   8,Pd  0,Cl  1)    176.5053         0.001507   
    134. D(C  14,C   9,C   8,C  13)      0.2292         0.025013   
    135. D(C  14,C   9,C   8,N   4)    179.7136         0.025013   
    136. D(C  14,C   9,C   8,Pd  0)    174.9988         0.025013   
    137. D(C   7,C   9,C   8,C  13)   -179.7043         0.025013   
    138. D(C   7,C   9,C   8,N   4)     -0.2200         0.025013   
    139. D(C   7,C   9,C   8,Pd  0)     -4.9348         0.025013   
    140. D(C  14,C   9,C   7,H  10)      0.1194         0.024591   
    141. D(C  14,C   9,C   7,C   6)   -179.6938         0.024591   
    142. D(C   8,C   9,C   7,H  10)   -179.9519         0.024591   
    143. D(C   8,C   9,C   7,C   6)      0.2349         0.024591   
    144. D(C  19,C  13,C   8,N   4)     -0.2849         0.023319   
    145. D(C  19,C  13,C   8,Pd  0)      0.7950         0.023319   
    146. D(C  16,C  13,C   8,C   9)     -0.0791         0.023319   
    147. D(C  16,C  13,C   8,N   4)   -179.5954         0.023319   
    148. D(C  19,C  13,C   8,C   9)    179.2314         0.023319   
    149. D(C  16,C  13,C   8,Pd  0)   -178.5155         0.023319   
    150. D(H  17,C  14,C   9,C   8)   -179.9803         0.020740   
    151. D(H  17,C  14,C   9,C   7)     -0.0518         0.020740   
    152. D(C  15,C  14,C   9,C   8)     -0.1244         0.020740   
    153. D(C  15,C  14,C   9,C   7)    179.8040         0.020740   
    154. D(H  18,C  15,C  14,H  17)     -0.0838         0.034994   
    155. D(H  18,C  15,C  14,C   9)   -179.9356         0.034994   
    156. D(C  16,C  15,C  14,H  17)    179.7180         0.034994   
    157. D(C  16,C  15,C  14,C   9)     -0.1337         0.034994   
    158. D(C  20,C  16,C  15,C  14)   -179.4106         0.020780   
    159. D(C  13,C  16,C  15,H  18)   -179.9102         0.020780   
    160. D(C  13,C  16,C  15,C  14)      0.2841         0.020780   
    161. D(C  20,C  16,C  13,C  19)      0.2752         0.022768   
    162. D(C  20,C  16,C  13,C   8)    179.5393         0.022768   
    163. D(C  15,C  16,C  13,C  19)   -179.4386         0.022768   
    164. D(C  20,C  16,C  15,H  18)      0.3952         0.020780   
    165. D(C  15,C  16,C  13,C   8)     -0.1745         0.022768   
    166. D(C  21,C  19,C  13,C   8)   -178.7852         0.022184   
    167. D(Pd  0,C  19,C  13,C  16)    178.1304         0.022184   
    168. D(Pd  0,C  19,C  13,C   8)     -1.1525         0.022184   
    169. D(C  21,C  19,Pd  0,C   8)    177.6804         0.003500   
    170. D(C  21,C  19,Pd  0,N   4)    178.6060         0.003500   
    171. D(C  21,C  19,Pd  0,Cl  2)     72.8849         0.003500   
    172. D(C  21,C  19,Pd  0,Cl  1)     -3.0190         0.003500   
    173. D(C  13,C  19,Pd  0,C   8)      0.6157         0.003500   
    174. D(C  13,C  19,Pd  0,N   4)      1.5413         0.003500   
    175. D(C  13,C  19,Pd  0,Cl  2)   -104.1798         0.003500   
    176. D(C  21,C  19,C  13,C  16)      0.4977         0.022184   
    177. D(C  13,C  19,Pd  0,Cl  1)    179.9163         0.003500   
    178. D(H  23,C  20,C  16,C  15)     -0.5781         0.024847   
    179. D(H  23,C  20,C  16,C  13)    179.7258         0.024847   
    180. D(C  22,C  20,C  16,C  15)    179.0805         0.024847   
    181. D(C  22,C  20,C  16,C  13)     -0.6156         0.024847   
    182. D(H  26,C  21,C  19,C  13)    179.0415         0.027895   
    183. D(H  26,C  21,C  19,Pd  0)      2.1122         0.027895   
    184. D(C  22,C  21,C  19,C  13)     -0.9459         0.027895   
    185. D(C  22,C  21,C  19,Pd  0)   -177.8752         0.027895   
    186. D(H  24,C  22,C  21,C  19)   -179.5196         0.025360   
    187. D(C  20,C  22,C  21,H  26)   -179.3451         0.025360   
    188. D(C  20,C  22,C  21,C  19)      0.6424         0.025360   
    189. D(H  24,C  22,C  20,H  23)      0.0011         0.030034   
    190. D(H  24,C  22,C  20,C  16)   -179.6532         0.030034   
    191. D(C  21,C  22,C  20,H  23)    179.8386         0.030034   
    192. D(H  24,C  22,C  21,H  26)      0.4929         0.025360   
    193. D(C  21,C  22,C  20,C  16)      0.1842         0.030034   
    -----------------------------------------------------------------

Number of atoms                         .... 27
Number of degrees of freedom            .... 193

         *************************************************************
         *                GEOMETRY OPTIMIZATION CYCLE   1            *
         *************************************************************
---------------------------------
CARTESIAN COORDINATES (ANGSTROEM)
---------------------------------
  Pd    -1.822810   -1.579580    0.342250
  Cl    -2.575200   -3.425380   -0.799030
  Cl    -0.239330   -3.670050    1.304390
  Cl    -3.414130   -1.926980    2.049010
  N     -1.126680    0.074060    1.213570
  C     -1.502750    0.607810    2.362310
  C     -0.900540    1.751370    2.888030
  C      0.127130    2.363390    2.205030
  C     -0.118310    0.658920    0.525900
  C      0.547980    1.814340    0.985350
  H      0.610090    3.249950    2.594360
  H     -2.310990    0.106360    2.883170
  H     -1.251740    2.144010    3.830740
  C      0.250910    0.037550   -0.696140
  C      1.599770    2.341030    0.182050
  C      1.955030    1.751850   -0.987980
  C      1.300290    0.582000   -1.468600
  H      2.111870    3.227360    0.533840
  H      2.758340    2.167400   -1.583780
  C     -0.464530   -1.126740   -1.065560
  C      1.637590   -0.069120   -2.662210
  C     -0.073690   -1.735080   -2.248010
  C      0.956390   -1.206730   -3.032130
  H      2.434730    0.325430   -3.279870
  H      1.224920   -1.709720   -3.953360
  H     -1.143840   -4.115160    0.455520
  H     -0.570490   -2.638290   -2.578840

----------------------------
CARTESIAN COORDINATES (A.U.)
----------------------------
  NO LB      ZA    FRAG     MASS         X           Y           Z
   0 Pd   18.0000*   0   106.400   -3.444612   -2.984974    0.646759
   1 Cl   17.0000    0    35.453   -4.866423   -6.473030   -1.509948
   2 Cl   17.0000    0    35.453   -0.452268   -6.935389    2.464940
   3 Cl   17.0000    0    35.453   -6.451771   -3.641464    3.872068
   4 N     7.0000    0    14.007   -2.129117    0.139953    2.293315
   5 C     6.0000    0    12.011   -2.839786    1.148594    4.464119
   6 C     6.0000    0    12.011   -1.701774    3.309610    5.457586
   7 C     6.0000    0    12.011    0.240241    4.466160    4.166903
   8 C     6.0000    0    12.011   -0.223573    1.245178    0.993807
   9 C     6.0000    0    12.011    1.035532    3.428606    1.862042
  10 H     1.0000    0     1.008    1.152903    6.141515    4.902630
  11 H     1.0000    0     1.008   -4.367138    0.200991    5.448402
  12 H     1.0000    0     1.008   -2.365446    4.051592    7.239049
  13 C     6.0000    0    12.011    0.474151    0.070959   -1.315514
  14 C     6.0000    0    12.011    3.023127    4.423906    0.344025
  15 C     6.0000    0    12.011    3.694471    3.310517   -1.867012
  16 C     6.0000    0    12.011    2.457192    1.099821   -2.775252
  17 H     1.0000    0     1.008    3.990856    6.098827    1.008811
  18 H     1.0000    0     1.008    5.212507    4.095792   -2.992910
  19 C     6.0000    0    12.011   -0.877834   -2.129230   -2.013617
  20 C     6.0000    0    12.011    3.094597   -0.130618   -5.030848
  21 C     6.0000    0    12.011   -0.139254   -3.278826   -4.248123
  22 C     6.0000    0    12.011    1.807315   -2.280389   -5.729895
  23 H     1.0000    0     1.008    4.600973    0.614974   -6.198056
  24 H     1.0000    0     1.008    2.314763   -3.230903   -7.470768
  25 H     1.0000    0     1.008   -2.161544   -7.776525    0.860808
  26 H     1.0000    0     1.008   -1.078070   -4.985646   -4.873301
* core charge reduced due to ECP

--------------------------------
INTERNAL COORDINATES (ANGSTROEM)
--------------------------------
 Pd     0   0   0     0.000000000000     0.00000000     0.00000000
 Cl     1   0   0     2.296864904713     0.00000000     0.00000000
 Cl     1   2   0     2.793418534860    75.84415606     0.00000000
 Cl     1   2   3     2.359240513386    91.15645907   268.93343896
 N      1   2   3     1.994572828678   176.06606609   115.03486332
 C      5   1   2     1.321333150647   127.97749163   156.16924534
 C      6   5   1     1.395266238429   122.39857069   177.72917573
 C      7   6   5     1.377375442390   119.95819040   359.87716999
 C      5   1   2     1.353425766490   113.34960881   333.85939652
 C      8   7   6     1.402208945700   118.76828655   359.92336244
 H      8   7   6     1.082042903077   121.24256381   180.11264991
 H      6   5   1     1.084434940280   116.28938316   357.82391853
 H      7   6   5     1.079911919418   119.11391799   179.85872699
 C      9   5   1     1.419790775748   116.22880563     1.61159565
 C     10   8   7     1.424414072593   124.56747247   180.30624059
 C     15  10   8     1.357318290196   121.25836350   179.80399656
 C     14   9   5     1.412203469228   119.69055873   180.40461478
 H     15  10   8     1.082397100421   117.95906619   359.94815817
 H     16  15  10     1.083035732836   120.11897336   180.06438904
 C     14   9   5     1.415590595511   116.94551801   359.71512306
 C     17  14   9     1.400868793464   117.76109085   179.53932571
 C     20  14   9     1.386009186009   116.17521155   181.21480712
 C     21  17  14     1.376601161739   119.59849660   359.38435023
 H     21  17  14     1.082869224653   119.59705307   179.72576498
 H     23  21  17     1.083407593614   119.30838659   180.34676375
 H      3   1   2     1.317892836728    69.01315282   356.77765578
 H     22  20  14     1.082611210454   119.83368775   179.04147979

---------------------------
INTERNAL COORDINATES (A.U.)
---------------------------
 Pd     0   0   0     0.000000000000     0.00000000     0.00000000
 Cl     1   0   0     4.340445636522     0.00000000     0.00000000
 Cl     1   2   0     5.278796008305    75.84415606     0.00000000
 Cl     1   2   3     4.458318454351    91.15645907   268.93343896
 N      1   2   3     3.769196400362   176.06606609   115.03486332
 C      5   1   2     2.496957786395   127.97749163   156.16924534
 C      6   5   1     2.636671074537   122.39857069   177.72917573
 C      7   6   5     2.602862369706   119.95819040   359.87716999
 C      5   1   2     2.557604041259   113.34960881   333.85939652
 C      8   7   6     2.649790889907   118.76828655   359.92336244
 H      8   7   6     2.044764751969   121.24256381   180.11264991
 H      6   5   1     2.049285047184   116.28938316   357.82391853
 H      7   6   5     2.040737776456   119.11391799   179.85872699
 C      9   5   1     2.683015733632   116.22880563     1.61159565
 C     10   8   7     2.691752498504   124.56747247   180.30624059
 C     15  10   8     2.564959845032   121.25836350   179.80399656
 C     14   9   5     2.668677802215   119.69055873   180.40461478
 H     15  10   8     2.045434087946   117.95906619   359.94815817
 H     16  15  10     2.046640928311   120.11897336   180.06438904
 C     14   9   5     2.675078543271   116.94551801   359.71512306
 C     17  14   9     2.647258369203   117.76109085   179.53932571
 C     20  14   9     2.619177780655   116.17521155   181.21480712
 C     21  17  14     2.601399191324   119.59849660   359.38435023
 H     21  17  14     2.046326273445   119.59705307   179.72576498
 H     23  21  17     2.047343643341   119.30838659   180.34676375
 H      3   1   2     2.490456535273    69.01315282   356.77765578
 H     22  20  14     2.045838697270   119.83368775   179.04147979

---------------------
BASIS SET INFORMATION
---------------------
There are 5 groups of distinct atoms

 Group   1 Type Pd  : 7s6p5d1f contracted to 5s3p2d1f pattern {31111/411/41/1}
 Group   2 Type Cl  : 10s7p1d contracted to 4s3p1d pattern {5311/511/1}
 Group   3 Type N   : 8s4p1d contracted to 4s2p1d pattern {5111/31/1}
 Group   4 Type C   : 8s4p1d contracted to 4s2p1d pattern {5111/31/1}
 Group   5 Type H   : 4s contracted to 2s pattern {31}

Atom   0Pd   basis set group =>   1
Atom   1Cl   basis set group =>   2
Atom   2Cl   basis set group =>   2
Atom   3Cl   basis set group =>   2
Atom   4N    basis set group =>   3
Atom   5C    basis set group =>   4
Atom   6C    basis set group =>   4
Atom   7C    basis set group =>   4
Atom   8C    basis set group =>   4
Atom   9C    basis set group =>   4
Atom  10H    basis set group =>   5
Atom  11H    basis set group =>   5
Atom  12H    basis set group =>   5
Atom  13C    basis set group =>   4
Atom  14C    basis set group =>   4
Atom  15C    basis set group =>   4
Atom  16C    basis set group =>   4
Atom  17H    basis set group =>   5
Atom  18H    basis set group =>   5
Atom  19C    basis set group =>   4
Atom  20C    basis set group =>   4
Atom  21C    basis set group =>   4
Atom  22C    basis set group =>   4
Atom  23H    basis set group =>   5
Atom  24H    basis set group =>   5
Atom  25H    basis set group =>   5
Atom  26H    basis set group =>   5
---------------------------------
AUXILIARY/J BASIS SET INFORMATION
---------------------------------
There are 5 groups of distinct atoms

 Group   1 Type Pd  : 11s5p5d3f3g contracted to 8s5p5d2f3g pattern {41111111/11111/11111/21/111}
 Group   2 Type Cl  : 14s5p5d2f1g contracted to 8s4p3d1f1g pattern {71111111/2111/311/2/1}
 Group   3 Type N   : 12s5p4d2f1g contracted to 6s4p3d1f1g pattern {711111/2111/211/2/1}
 Group   4 Type C   : 12s5p4d2f1g contracted to 6s4p3d1f1g pattern {711111/2111/211/2/1}
 Group   5 Type H   : 5s2p1d contracted to 3s1p1d pattern {311/2/1}

Atom   0Pd   basis set group =>   1
Atom   1Cl   basis set group =>   2
Atom   2Cl   basis set group =>   2
Atom   3Cl   basis set group =>   2
Atom   4N    basis set group =>   3
Atom   5C    basis set group =>   4
Atom   6C    basis set group =>   4
Atom   7C    basis set group =>   4
Atom   8C    basis set group =>   4
Atom   9C    basis set group =>   4
Atom  10H    basis set group =>   5
Atom  11H    basis set group =>   5
Atom  12H    basis set group =>   5
Atom  13C    basis set group =>   4
Atom  14C    basis set group =>   4
Atom  15C    basis set group =>   4
Atom  16C    basis set group =>   4
Atom  17H    basis set group =>   5
Atom  18H    basis set group =>   5
Atom  19C    basis set group =>   4
Atom  20C    basis set group =>   4
Atom  21C    basis set group =>   4
Atom  22C    basis set group =>   4
Atom  23H    basis set group =>   5
Atom  24H    basis set group =>   5
Atom  25H    basis set group =>   5
Atom  26H    basis set group =>   5
-------------------------
ECP PARAMETER INFORMATION
-------------------------

 Group 1, Type Pd ECP Def2-ECP (replacing 28 core electrons, lmax=3)

Atom   0Pd   ECP group =>   1



           ************************************************************
           *        Program running with 4 parallel MPI-processes     *
           *              working on a common directory               *
           ************************************************************
------------------------------------------------------------------------------
                           ORCA GTO INTEGRAL CALCULATION
                           -- RI-GTO INTEGRALS CHOSEN --
------------------------------------------------------------------------------
------------------------------------------------------------------------------
                   ___                                                        
                  /   \      - P O W E R E D   B Y -                         
                 /     \                                                     
                 |  |  |   _    _      __       _____    __    __             
                 |  |  |  | |  | |    /  \     |  _  \  |  |  /  |          
                  \  \/   | |  | |   /    \    | | | |  |  | /  /          
                 / \  \   | |__| |  /  /\  \   | |_| |  |  |/  /          
                |  |  |   |  __  | /  /__\  \  |    /   |      \           
                |  |  |   | |  | | |   __   |  |    \   |  |\   \          
                \     /   | |  | | |  |  |  |  | |\  \  |  | \   \       
                 \___/    |_|  |_| |__|  |__|  |_| \__\ |__|  \__/        
                                                                              
                      - O R C A' S   B I G   F R I E N D -                    
                                      &                                       
                       - I N T E G R A L  F E E D E R -                       
                                                                              
 v1 FN, 2020, v2 2021                                                         
------------------------------------------------------------------------------


Reading SHARK input file reaction-2-prod-pbeh3c-orca_opt.SHARKINP.tmp ... ok
----------------------
SHARK INTEGRAL PACKAGE
----------------------

Number of atoms                             ...     27
Number of basis functions                   ...    313
Number of shells                            ...    151
Maximum angular momentum                    ...      3
Integral batch strategy                     ... SHARK/LIBINT Hybrid
RI-J (if used) integral strategy            ... SPLIT-RIJ (Revised 2003 algorithm where possible)
Printlevel                                  ...      1
Contraction scheme used                     ... SEGMENTED contraction
Coulomb Range Separation                    ... NOT USED
Exchange Range Separation                   ... NOT USED
Finite Nucleus Model                        ... NOT USED
Auxiliary Coulomb fitting basis             ... AVAILABLE
   # of basis functions in Aux-J            ...   1027
   # of shells in Aux-J                     ...    329
   Maximum angular momentum in Aux-J        ...      4
Auxiliary J/K fitting basis                 ... NOT available
Auxiliary Correlation fitting basis         ... NOT available
Auxiliary 'external' fitting basis          ... NOT available
Integral threshold                          ...     2.500000e-11
Primitive cut-off                           ...     2.500000e-12
Primitive pair pre-selection threshold      ...     2.500000e-12

Calculating pre-screening integrals         ... done (  0.1 sec) Dimension = 151
Organizing shell pair data                  ... done (  0.1 sec)
Shell pair information
Total number of shell pairs                 ...     11476
Shell pairs after pre-screening             ...      8670
Total number of primitive shell pairs       ...     42779
Primitive shell pairs kept                  ...     20518
          la=0 lb=0:   2815 shell pairs
          la=1 lb=0:   2965 shell pairs
          la=1 lb=1:    748 shell pairs
          la=2 lb=0:   1224 shell pairs
          la=2 lb=1:    654 shell pairs
          la=2 lb=2:    151 shell pairs
          la=3 lb=0:     59 shell pairs
          la=3 lb=1:     38 shell pairs
          la=3 lb=2:     15 shell pairs
          la=3 lb=3:      1 shell pairs

Calculating one electron integrals          ... done (  0.0 sec)
Calculating ECP integrals                   ... done (  0.3 sec)
Calculating RI/J V-Matrix + Cholesky decomp.... done (  0.1 sec)
Calculating Nuclear repulsion               ... done (  0.0 sec) ENN=   1885.712267557699 Eh

SHARK setup successfully completed in   1.2 seconds

Maximum memory used throughout the entire GTOINT-calculation: 21.2 MB


           ************************************************************
           *        Program running with 4 parallel MPI-processes     *
           *              working on a common directory               *
           ************************************************************
-------------------------------------------------------------------------------
                                 ORCA SCF
-------------------------------------------------------------------------------

------------
SCF SETTINGS
------------
Hamiltonian:
 Density Functional     Method          .... DFT(GTOs)
 Exchange Functional    Exchange        .... PBE
   PBE kappa parameter   XKappa         ....  1.024500
   PBE mue parameter    XMuePBE         ....  0.123457
 Correlation Functional Correlation     .... PBE
   PBE beta parameter  CBetaPBE         ....  0.030000
 LDA part of GGA corr.  LDAOpt          .... PW91-LDA
 Gradients option       PostSCFGGA      .... off
 Hybrid DFT is turned on
   Fraction HF Exchange ScalHFX         ....  0.420000
   Scaling of DF-GGA-X  ScalDFX         ....  0.580000
   Scaling of DF-GGA-C  ScalDFC         ....  1.000000
   Scaling of DF-LDA-C  ScalLDAC        ....  1.000000
   Perturbative correction              ....  0.000000
   Density functional embedding theory  .... OFF
 RI-approximation to the Coulomb term is turned on
   Number of AuxJ basis functions       .... 1027
   RIJ-ON(X) (HFX calculated with O(N)) .... on
   Number of AuxJ basis functions       .... 1027
   RIJ-COSX (HFX calculated with COS-X)).... on


General Settings:
 Integral files         IntName         .... reaction-2-prod-pbeh3c-orca_opt
 Hartree-Fock type      HFTyp           .... RHF
 Total Charge           Charge          ....   -1
 Multiplicity           Mult            ....    1
 Number of Electrons    NEL             ....  164
 Basis Dimension        Dim             ....  313
 Nuclear Repulsion      ENuc            ....   1885.7122675577 Eh

Convergence Acceleration:
 DIIS                   CNVDIIS         .... on
   Start iteration      DIISMaxIt       ....    12
   Startup error        DIISStart       ....  0.200000
   # of expansion vecs  DIISMaxEq       ....     5
   Bias factor          DIISBfac        ....   1.050
   Max. coefficient     DIISMaxC        ....  10.000
 Trust-Rad. Augm. Hess. CNVTRAH         .... auto
   Auto Start mean grad. ratio tolernc. ....  1.125000
   Auto Start start iteration           ....    20
   Auto Start num. interpolation iter.  ....    10
   Max. Number of Micro iterations      ....    16
   Max. Number of Macro iterations      .... Maxiter - #DIIS iter
   Number of Davidson start vectors     ....     2
   Converg. threshold I  (grad. norm)   ....   1.000e-05
   Converg. threshold II (energy diff.) ....   1.000e-08
   Grad. Scal. Fac. for Micro threshold ....   0.100
   Minimum threshold for Micro iter.    ....   0.010
   NR start threshold (gradient norm)   ....   0.001
   Initial trust radius                 ....   0.400
   Minimum AH scaling param. (alpha)    ....   1.000
   Maximum AH scaling param. (alpha)    .... 1000.000
   Orbital update algorithm             .... Taylor
   White noise on init. David. guess    .... on
   Maximum white noise                  ....   0.010
   Quad. conv. algorithm                .... NR
   COSX micro iterations for RIJONX calc.... off
 SOSCF                  CNVSOSCF        .... off
 Level Shifting         CNVShift        .... on
   Level shift para.    LevelShift      ....    0.2500
   Turn off err/grad.   ShiftErr        ....    0.0010
 Zerner damping         CNVZerner       .... off
 Static damping         CNVDamp         .... on
   Fraction old density DampFac         ....    0.7000
   Max. Damping (<1)    DampMax         ....    0.9800
   Min. Damping (>=0)   DampMin         ....    0.0000
   Turn off err/grad.   DampErr         ....    0.1000
 Fernandez-Rico         CNVRico         .... off

SCF Procedure:
 Maximum # iterations   MaxIter         ....   125
 SCF integral mode      SCFMode         .... Direct
   Integral package                     .... SHARK and LIBINT hybrid scheme
 Reset frequency        DirectResetFreq ....    20
 Integral Threshold     Thresh          ....  2.500e-11 Eh
 Primitive CutOff       TCut            ....  2.500e-12 Eh

Convergence Tolerance:
 Convergence Check Mode ConvCheckMode   .... Total+1el-Energy
 Convergence forced     ConvForced      .... 0
 Energy Change          TolE            ....  1.000e-08 Eh
 1-El. energy change                    ....  1.000e-05 Eh
 DIIS Error             TolErr          ....  5.000e-07


Diagonalization of the overlap matrix:
Smallest eigenvalue                        ... 2.982e-04
Time for diagonalization                   ...    0.029 sec
Threshold for overlap eigenvalues          ... 1.000e-08
Number of eigenvalues below threshold      ... 0
Time for construction of square roots      ...    0.012 sec
Total time needed                          ...    0.043 sec

--------------------------------
INITIAL GUESS: MINIMAL BASIS EHT
--------------------------------
The minimal basis has 119 functions
EHT matrix was diagonalized
Basis set overlap was calculated now projecting the orbitals
Using GuessMode=FMatrix for the initial guess
C*T matrix was formed
Effective Fockian was calculated
Effective Fockian was diagonalized
Initial density was built
                      ------------------
                      INITIAL GUESS DONE
                      ------------------
-------------------
DFT GRID GENERATION
-------------------

General Integration Accuracy     IntAcc      ... 4.159
Radial Grid Type                 RadialGrid  ... OptM3 with GC (2021)
Angular Grid (max. ang.)         AngularGrid ... 3 (Lebedev-194)
Angular grid pruning method      GridPruning ... 4 (adaptive)
Weight generation scheme         WeightScheme... Becke
Basis function cutoff            BFCut       ... 1.0000e-11
Integration weight cutoff        WCut        ... 1.0000e-14
Angular grids for H and He will be reduced by one unit
Partially contracted basis set               ... off
Rotationally invariant grid construction     ... off

Total number of grid points                  ...    76256
Total number of batches                      ...     1205
Average number of points per batch           ...       63
Average number of grid points per atom       ...     2824
Time for grid setup =    0.395 sec

--------------------
COSX GRID GENERATION
--------------------

GRIDX 1
-------
General Integration Accuracy     IntAcc      ... 3.816
Radial Grid Type                 RadialGrid  ... OptM3 with GC (2021)
Angular Grid (max. ang.)         AngularGrid ... 1 (Lebedev-50)
Angular grid pruning method      GridPruning ... 4 (adaptive)
Weight generation scheme         WeightScheme... Becke
Basis function cutoff            BFCut       ... 1.0000e-11
Integration weight cutoff        WCut        ... 1.0000e-14
Angular grids for H and He will be reduced by one unit
Partially contracted basis set               ... on
Rotationally invariant grid construction     ... off

Total number of grid points                  ...    17865
Total number of batches                      ...      289
Average number of points per batch           ...       61
Average number of grid points per atom       ...      662
UseSFitting                                  ... on

GRIDX 2
-------
General Integration Accuracy     IntAcc      ... 4.020
Radial Grid Type                 RadialGrid  ... OptM3 with GC (2021)
Angular Grid (max. ang.)         AngularGrid ... 2 (Lebedev-110)
Angular grid pruning method      GridPruning ... 4 (adaptive)
Weight generation scheme         WeightScheme... Becke
Basis function cutoff            BFCut       ... 1.0000e-11
Integration weight cutoff        WCut        ... 1.0000e-14
Angular grids for H and He will be reduced by one unit
Partially contracted basis set               ... on
Rotationally invariant grid construction     ... off

Total number of grid points                  ...    39852
Total number of batches                      ...      634
Average number of points per batch           ...       62
Average number of grid points per atom       ...     1476
UseSFitting                                  ... on

GRIDX 3
-------
General Integration Accuracy     IntAcc      ... 4.338
Radial Grid Type                 RadialGrid  ... OptM3 with GC (2021)
Angular Grid (max. ang.)         AngularGrid ... 3 (Lebedev-194)
Angular grid pruning method      GridPruning ... 4 (adaptive)
Weight generation scheme         WeightScheme... Becke
Basis function cutoff            BFCut       ... 1.0000e-11
Integration weight cutoff        WCut        ... 1.0000e-14
Angular grids for H and He will be reduced by one unit
Partially contracted basis set               ... on
Rotationally invariant grid construction     ... off

Total number of grid points                  ...    88488
Total number of batches                      ...     1397
Average number of points per batch           ...       63
Average number of grid points per atom       ...     3277
UseSFitting                                  ... on

Time for X-Grid setup             =    0.967 sec

--------------
SCF ITERATIONS
--------------
ITER       Energy         Delta-E        Max-DP      RMS-DP      [F,P]     Damp
               ***  Starting incremental Fock matrix formation  ***
  0  -2050.4598685099   0.000000000000 5.54089893  0.10155922  5.3454630 0.7000
  1  -2048.1366004053   2.323268104599 5.15508238  0.07219012  3.9513157 0.7000
  2  -2045.9607063515   2.175894053765 2.37782326  0.03177039  2.6526816 0.7000
  3  -2046.7104019093  -0.749695557752 3.45562311  0.04131405  1.9778406 0.7000
  4  -2045.5886873528   1.121714556495 2.21245166  0.02975054  1.2791270 0.7000
  5  -2047.0781214354  -1.489434082621 3.11722493  0.03386145  0.9979329 0.7000
  6  -2046.5643306894   0.513790746002 2.47933198  0.02881222  0.5977456 0.7000
  7  -2048.5227728093  -1.958442119951 3.16892180  0.02857176  0.5131707 0.7000
  8  -2049.0997467660  -0.576973956640 2.64199355  0.02441088  0.2651592 0.7000
  9  -2052.0572638583  -2.957517092299 1.72943272  0.01807347  0.2707119 0.7000
                               ***Turning on DIIS***
 10  -2054.8055015940  -2.748237735737 1.21521704  0.01283052  0.1926040 0.7000
 11  -2056.5914076038  -1.785906009783 0.88960769  0.00922991  0.1353029 0.7000
 12  -2058.0113591065  -1.419951502718 0.64208644  0.00667895  0.1084965 0.7000
 13  -2059.0336541993  -1.022295092818 1.49959717  0.01561066  0.0699812 0.0000
 14  -2061.5054704841  -2.471816284804 0.02818003  0.00068728  0.0318366 0.0000
 15  -2061.5211105963  -0.015640112175 0.03292642  0.00084463  0.0205903 0.0000
 16  -2061.5343319153  -0.013221319024 0.01712422  0.00033251  0.0093195 0.0000
 17  -2061.5365214248  -0.002189509457 0.00641764  0.00016617  0.0036483 0.0000
 18  -2061.5373550235  -0.000833598762 0.00455488  0.00012432  0.0018214 0.0000
 19  -2061.5377476812  -0.000392657606 0.00258698  0.00007877  0.0010190 0.0000
               *** Restarting incremental Fock matrix formation ***
                                   *** Resetting DIIS ***
 20  -2061.5376070400   0.000140641181 0.00676868  0.00017134  0.0011043 0.0000
 21  -2061.5376744387  -0.000067398739 0.00303621  0.00008298  0.0005001 0.0000
               *** Restarting incremental Fock matrix formation ***
                                   *** Resetting DIIS ***
 22  -2061.5382639377  -0.000589498991 0.00714623  0.00016793  0.0010321 0.0000
 23  -2061.5382845309  -0.000020593242 0.00199145  0.00004294  0.0007400 0.0000
 24  -2061.5382882467  -0.000003715738 0.00090737  0.00001250  0.0007586 0.0000
 25  -2061.5382910537  -0.000002806977 0.00025924  0.00000464  0.0001909 0.0000
 26  -2061.5382912390  -0.000000185371 0.00013087  0.00000260  0.0001044 0.0000
 27  -2061.5382913643  -0.000000125252 0.00003366  0.00000083  0.0000171 0.0000
 28  -2061.5382913750  -0.000000010749 0.00001367  0.00000041  0.0000120 0.0000
 29  -2061.5382913705   0.000000004579 0.00000427  0.00000012  0.0000028 0.0000
 30  -2061.5382913779  -0.000000007479 0.00000440  0.00000008  0.0000022 0.0000
 31  -2061.5382913756   0.000000002288 0.00000331  0.00000005  0.0000027 0.0000
 32  -2061.5382913661   0.000000009526 0.00000170  0.00000003  0.0000012 0.0000
                            ***DIIS convergence achieved***

               *****************************************************
               *                     SUCCESS                       *
               *           SCF CONVERGED AFTER  33 CYCLES          *
               *****************************************************

Old exchange energy                            =    -72.248910913 Eh
New exchange energy                            =    -72.249122919 Eh
Exchange energy change after final integration =     -0.000212006 Eh
Total energy after final integration           =  -2061.538503363 Eh
Final COS-X integration done in                =     9.280 sec

----------------
TOTAL SCF ENERGY
----------------

Total Energy       :        -2061.53850336 Eh          -56097.31461 eV

Components:
Nuclear Repulsion  :         1885.71226756 Eh           51312.83949 eV
Electronic Energy  :        -3947.25077092 Eh         -107410.15410 eV
One Electron Energy:        -6661.61339734 Eh         -181271.71622 eV
Two Electron Energy:         2714.36262642 Eh           73861.56211 eV
Max COSX asymmetry :            0.00002663 Eh               0.00072 eV

Virial components:
Potential Energy   :        -4037.13827616 Eh         -109856.11747 eV
Kinetic Energy     :         1975.59977280 Eh           53758.80286 eV
Virial Ratio       :            2.04350007


DFT components:
N(Alpha)           :       81.999393518864 electrons
N(Beta)            :       81.999393518864 electrons
N(Total)           :      163.998787037728 electrons
E(X)               :      -96.412928200190 Eh       
E(C)               :       -7.788048015633 Eh       
E(XC)              :     -104.200976215824 Eh       
DFET-embed. en.    :        0.000000000000 Eh       

---------------
SCF CONVERGENCE
---------------

  Last Energy change         ...    9.6438e-09  Tolerance :   1.0000e-08
  Last MAX-Density change    ...    0.0000e+00  Tolerance :   1.0000e-07
  Last RMS-Density change    ...    0.0000e+00  Tolerance :   5.0000e-09
  Last DIIS Error            ...    6.1108e-07  Tolerance :   5.0000e-07

             **** THE GBW FILE WAS UPDATED (reaction-2-prod-pbeh3c-orca_opt.gbw) ****
             **** DENSITY reaction-2-prod-pbeh3c-orca_opt.scfp WAS UPDATED ****
             **** ENERGY FILE WAS UPDATED (reaction-2-prod-pbeh3c-orca_opt.en.tmp) ****
             **** THE GBW FILE WAS UPDATED (reaction-2-prod-pbeh3c-orca_opt.gbw) ****
             **** DENSITY reaction-2-prod-pbeh3c-orca_opt.scfp WAS UPDATED ****
----------------
ORBITAL ENERGIES
----------------

  NO   OCC          E(Eh)            E(eV) 
   0   2.0000    -102.135129     -2779.2382 
   1   2.0000    -102.092437     -2778.0764 
   2   2.0000    -102.058000     -2777.1394 
   3   2.0000     -14.587841      -396.9553 
   4   2.0000     -10.395838      -282.8851 
   5   2.0000     -10.390389      -282.7369 
   6   2.0000     -10.384648      -282.5806 
   7   2.0000     -10.376115      -282.3484 
   8   2.0000     -10.368695      -282.1465 
   9   2.0000     -10.366991      -282.1002 
  10   2.0000     -10.366146      -282.0772 
  11   2.0000     -10.357994      -281.8553 
  12   2.0000     -10.343457      -281.4598 
  13   2.0000     -10.341893      -281.4172 
  14   2.0000     -10.341515      -281.4069 
  15   2.0000     -10.325195      -280.9628 
  16   2.0000     -10.321991      -280.8757 
  17   2.0000      -9.603538      -261.3256 
  18   2.0000      -9.557011      -260.0595 
  19   2.0000      -9.522306      -259.1151 
  20   2.0000      -7.290126      -198.3744 
  21   2.0000      -7.283695      -198.1994 
  22   2.0000      -7.283197      -198.1859 
  23   2.0000      -7.241960      -197.0638 
  24   2.0000      -7.239125      -196.9866 
  25   2.0000      -7.237594      -196.9450 
  26   2.0000      -7.207193      -196.1177 
  27   2.0000      -7.203880      -196.0275 
  28   2.0000      -7.203779      -196.0248 
  29   2.0000      -3.502684       -95.3129 
  30   2.0000      -2.149975       -58.5038 
  31   2.0000      -2.145802       -58.3902 
  32   2.0000      -2.114214       -57.5307 
  33   2.0000      -0.981287       -26.7022 
  34   2.0000      -0.874074       -23.7848 
  35   2.0000      -0.837499       -22.7895 
  36   2.0000      -0.802557       -21.8387 
  37   2.0000      -0.770281       -20.9604 
  38   2.0000      -0.765679       -20.8352 
  39   2.0000      -0.730116       -19.8675 
  40   2.0000      -0.708198       -19.2711 
  41   2.0000      -0.687231       -18.7005 
  42   2.0000      -0.653956       -17.7951 
  43   2.0000      -0.637651       -17.3514 
  44   2.0000      -0.628837       -17.1115 
  45   2.0000      -0.601957       -16.3801 
  46   2.0000      -0.563065       -15.3218 
  47   2.0000      -0.518953       -14.1214 
  48   2.0000      -0.504707       -13.7338 
  49   2.0000      -0.485268       -13.2048 
  50   2.0000      -0.448717       -12.2102 
  51   2.0000      -0.447273       -12.1709 
  52   2.0000      -0.421932       -11.4814 
  53   2.0000      -0.404437       -11.0053 
  54   2.0000      -0.398022       -10.8307 
  55   2.0000      -0.394853       -10.7445 
  56   2.0000      -0.375213       -10.2101 
  57   2.0000      -0.368015       -10.0142 
  58   2.0000      -0.365655        -9.9500 
  59   2.0000      -0.346490        -9.4285 
  60   2.0000      -0.331814        -9.0291 
  61   2.0000      -0.330216        -8.9856 
  62   2.0000      -0.311411        -8.4739 
  63   2.0000      -0.295285        -8.0351 
  64   2.0000      -0.284205        -7.7336 
  65   2.0000      -0.258831        -7.0431 
  66   2.0000      -0.255571        -6.9544 
  67   2.0000      -0.247648        -6.7388 
  68   2.0000      -0.245086        -6.6691 
  69   2.0000      -0.237737        -6.4691 
  70   2.0000      -0.220270        -5.9938 
  71   2.0000      -0.215274        -5.8579 
  72   2.0000      -0.204187        -5.5562 
  73   2.0000      -0.195814        -5.3284 
  74   2.0000      -0.174910        -4.7596 
  75   2.0000      -0.172439        -4.6923 
  76   2.0000      -0.157071        -4.2741 
  77   2.0000      -0.147155        -4.0043 
  78   2.0000      -0.144154        -3.9226 
  79   2.0000      -0.137169        -3.7326 
  80   2.0000      -0.125100        -3.4041 
  81   2.0000      -0.119675        -3.2565 
  82   0.0000       0.054719         1.4890 
  83   0.0000       0.078759         2.1431 
  84   0.0000       0.119495         3.2516 
  85   0.0000       0.133776         3.6402 
  86   0.0000       0.158199         4.3048 
  87   0.0000       0.192187         5.2297 
  88   0.0000       0.201908         5.4942 
  89   0.0000       0.219993         5.9863 
  90   0.0000       0.221426         6.0253 
  91   0.0000       0.229977         6.2580 
  92   0.0000       0.238451         6.4886 
  93   0.0000       0.257022         6.9939 
  94   0.0000       0.266292         7.2462 
  95   0.0000       0.275492         7.4965 
  96   0.0000       0.283868         7.7244 
  97   0.0000       0.289652         7.8818 
  98   0.0000       0.305385         8.3099 
  99   0.0000       0.330304         8.9880 
 100   0.0000       0.335134         9.1194 
 101   0.0000       0.359336         9.7780 
 102   0.0000       0.365737         9.9522 
 103   0.0000       0.366912         9.9842 
 104   0.0000       0.378187        10.2910 
 105   0.0000       0.392456        10.6793 
 106   0.0000       0.402575        10.9546 
 107   0.0000       0.417008        11.3474 
 108   0.0000       0.430201        11.7064 
 109   0.0000       0.438252        11.9254 
 110   0.0000       0.442641        12.0449 
 111   0.0000       0.470716        12.8088 
 112   0.0000       0.482228        13.1221 
 113   0.0000       0.502518        13.6742 
 114   0.0000       0.520056        14.1514 
 115   0.0000       0.539461        14.6795 
 116   0.0000       0.569924        15.5084 
 117   0.0000       0.582434        15.8488 
 118   0.0000       0.591881        16.1059 
 119   0.0000       0.599048        16.3009 
 120   0.0000       0.607881        16.5413 
 121   0.0000       0.616184        16.7672 
 122   0.0000       0.620806        16.8930 
 123   0.0000       0.628109        17.0917 
 124   0.0000       0.639309        17.3965 
 125   0.0000       0.652243        17.7484 
 126   0.0000       0.659170        17.9369 
 127   0.0000       0.663192        18.0464 
 128   0.0000       0.678675        18.4677 
 129   0.0000       0.680209        18.5094 
 130   0.0000       0.694380        18.8950 
 131   0.0000       0.703052        19.1310 
 132   0.0000       0.706734        19.2312 
 133   0.0000       0.715166        19.4607 
 134   0.0000       0.719592        19.5811 
 135   0.0000       0.724290        19.7089 
 136   0.0000       0.725572        19.7438 
 137   0.0000       0.734936        19.9986 
 138   0.0000       0.744259        20.2523 
 139   0.0000       0.751053        20.4372 
 140   0.0000       0.758026        20.6269 
 141   0.0000       0.772829        21.0298 
 142   0.0000       0.775353        21.0984 
 143   0.0000       0.790091        21.4995 
 144   0.0000       0.794132        21.6094 
 145   0.0000       0.802297        21.8316 
 146   0.0000       0.818005        22.2591 
 147   0.0000       0.832955        22.6659 
 148   0.0000       0.843433        22.9510 
 149   0.0000       0.852202        23.1896 
 150   0.0000       0.870434        23.6857 
 151   0.0000       0.877173        23.8691 
 152   0.0000       0.889004        24.1910 
 153   0.0000       0.898485        24.4490 
 154   0.0000       0.905095        24.6289 
 155   0.0000       0.925186        25.1756 
 156   0.0000       0.936969        25.4962 
 157   0.0000       0.939158        25.5558 
 158   0.0000       0.957964        26.0675 
 159   0.0000       0.967952        26.3393 
 160   0.0000       0.976374        26.5685 
 161   0.0000       0.982426        26.7332 
 162   0.0000       0.994822        27.0705 
 163   0.0000       1.004987        27.3471 
 164   0.0000       1.011528        27.5251 
 165   0.0000       1.024191        27.8697 
 166   0.0000       1.036866        28.2146 
 167   0.0000       1.037126        28.2216 
 168   0.0000       1.044652        28.4264 
 169   0.0000       1.048462        28.5301 
 170   0.0000       1.063434        28.9375 
 171   0.0000       1.066982        29.0341 
 172   0.0000       1.070048        29.1175 
 173   0.0000       1.071887        29.1675 
 174   0.0000       1.077877        29.3305 
 175   0.0000       1.085247        29.5311 
 176   0.0000       1.087169        29.5834 
 177   0.0000       1.097534        29.8654 
 178   0.0000       1.101247        29.9665 
 179   0.0000       1.113566        30.3017 
 180   0.0000       1.118450        30.4346 
 181   0.0000       1.127318        30.6759 
 182   0.0000       1.138095        30.9691 
 183   0.0000       1.148328        31.2476 
 184   0.0000       1.159591        31.5541 
 185   0.0000       1.175879        31.9973 
 186   0.0000       1.184265        32.2255 
 187   0.0000       1.188232        32.3334 
 188   0.0000       1.199587        32.6424 
 189   0.0000       1.214612        33.0513 
 190   0.0000       1.215564        33.0772 
 191   0.0000       1.236196        33.6386 
 192   0.0000       1.243003        33.8238 
 193   0.0000       1.258174        34.2367 
 194   0.0000       1.260648        34.3040 
 195   0.0000       1.268762        34.5248 
 196   0.0000       1.284434        34.9512 
 197   0.0000       1.305886        35.5350 
 198   0.0000       1.320448        35.9312 
 199   0.0000       1.340339        36.4725 
 200   0.0000       1.343324        36.5537 
 201   0.0000       1.367429        37.2096 
 202   0.0000       1.374835        37.4112 
 203   0.0000       1.377537        37.4847 
 204   0.0000       1.381968        37.6053 
 205   0.0000       1.399411        38.0799 
 206   0.0000       1.418996        38.6129 
 207   0.0000       1.442348        39.2483 
 208   0.0000       1.460741        39.7488 
 209   0.0000       1.505524        40.9674 
 210   0.0000       1.511730        41.1363 
 211   0.0000       1.514851        41.2212 
 212   0.0000       1.521330        41.3975 
 213   0.0000       1.533011        41.7154 
 214   0.0000       1.545934        42.0670 
 215   0.0000       1.556025        42.3416 
 216   0.0000       1.581932        43.0465 
 217   0.0000       1.592083        43.3228 
 218   0.0000       1.603577        43.6355 
 219   0.0000       1.608392        43.7666 
 220   0.0000       1.622725        44.1566 
 221   0.0000       1.630516        44.3686 
 222   0.0000       1.637489        44.5583 
 223   0.0000       1.660105        45.1738 
 224   0.0000       1.666989        45.3611 
 225   0.0000       1.683017        45.7972 
 226   0.0000       1.705371        46.4055 
 227   0.0000       1.712398        46.5967 
 228   0.0000       1.741565        47.3904 
 229   0.0000       1.760840        47.9149 
 230   0.0000       1.775439        48.3121 
 231   0.0000       1.880883        51.1814 
 232   0.0000       1.914534        52.0971 
 233   0.0000       1.922808        52.3223 
 234   0.0000       1.954037        53.1721 
 235   0.0000       1.960274        53.3418 
 236   0.0000       1.989091        54.1259 
 237   0.0000       2.010952        54.7208 
 238   0.0000       2.043060        55.5945 
 239   0.0000       2.069313        56.3089 
 240   0.0000       2.094961        57.0068 
 241   0.0000       2.109140        57.3926 
 242   0.0000       2.119442        57.6730 
 243   0.0000       2.151188        58.5368 
 244   0.0000       2.152178        58.5637 
 245   0.0000       2.161608        58.8203 
 246   0.0000       2.199300        59.8460 
 247   0.0000       2.217559        60.3429 
 248   0.0000       2.255137        61.3654 
 249   0.0000       2.265716        61.6533 
 250   0.0000       2.313996        62.9670 
 251   0.0000       2.332193        63.4622 
 252   0.0000       2.357516        64.1513 
 253   0.0000       2.367401        64.4202 
 254   0.0000       2.376117        64.6574 
 255   0.0000       2.388936        65.0063 
 256   0.0000       2.408866        65.5486 
 257   0.0000       2.414287        65.6961 
 258   0.0000       2.416536        65.7573 
 259   0.0000       2.435223        66.2658 
 260   0.0000       2.460861        66.9634 
 261   0.0000       2.479962        67.4832 
 262   0.0000       2.484990        67.6200 
 263   0.0000       2.509960        68.2995 
 264   0.0000       2.531563        68.8873 
 265   0.0000       2.564676        69.7884 
 266   0.0000       2.575271        70.0767 
 267   0.0000       2.601414        70.7881 
 268   0.0000       2.619942        71.2922 
 269   0.0000       2.633371        71.6577 
 270   0.0000       2.642330        71.9015 
 271   0.0000       2.646929        72.0266 
 272   0.0000       2.653838        72.2146 
 273   0.0000       2.696706        73.3811 
 274   0.0000       2.748162        74.7813 
 275   0.0000       2.792508        75.9880 
 276   0.0000       2.797226        76.1164 
 277   0.0000       2.803477        76.2865 
 278   0.0000       2.813458        76.5581 
 279   0.0000       2.822568        76.8060 
 280   0.0000       2.830696        77.0271 
 281   0.0000       2.870977        78.1233 
 282   0.0000       2.886788        78.5535 
 283   0.0000       2.903130        78.9982 
 284   0.0000       2.905692        79.0679 
 285   0.0000       2.939547        79.9891 
 286   0.0000       2.968271        80.7708 
 287   0.0000       2.979369        81.0727 
 288   0.0000       3.008476        81.8648 
 289   0.0000       3.046068        82.8877 
 290   0.0000       3.083040        83.8938 
 291   0.0000       3.103486        84.4502 
 292   0.0000       3.144790        85.5741 
 293   0.0000       3.212206        87.4086 
 294   0.0000       3.218716        87.5857 
 295   0.0000       3.523379        95.8760 
 296   0.0000       3.614278        98.3495 
 297   0.0000       3.709250       100.9338 
 298   0.0000      13.346047       363.1644 
 299   0.0000      13.588067       369.7501 
 300   0.0000      13.656020       371.5992 
 301   0.0000      13.869096       377.3973 
 302   0.0000      13.886156       377.8615 
 303   0.0000      13.960751       379.8913 
 304   0.0000      14.144198       384.8832 
 305   0.0000      14.257642       387.9702 
 306   0.0000      14.278373       388.5343 
 307   0.0000      14.360320       390.7642 
 308   0.0000      14.436107       392.8264 
 309   0.0000      14.613997       397.6671 
 310   0.0000      14.675129       399.3306 
 311   0.0000      19.672673       535.3206 
 312   0.0000      51.846156      1410.8056 

                    ********************************
                    * MULLIKEN POPULATION ANALYSIS *
                    ********************************

-----------------------
MULLIKEN ATOMIC CHARGES
-----------------------
   0 Pd:    0.172942
   1 Cl:   -0.388293
   2 Cl:   -0.344185
   3 Cl:   -0.464206
   4 N :   -0.604558
   5 C :    0.023804
   6 C :   -0.334596
   7 C :   -0.161907
   8 C :    0.419274
   9 C :    0.044827
  10 H :    0.205454
  11 H :    0.291465
  12 H :    0.214693
  13 C :    0.030005
  14 C :   -0.307883
  15 C :   -0.304712
  16 C :    0.151098
  17 H :    0.189032
  18 H :    0.191167
  19 C :   -0.056075
  20 C :   -0.335583
  21 C :   -0.341889
  22 C :   -0.194753
  23 H :    0.178562
  24 H :    0.187489
  25 H :    0.307001
  26 H :    0.231827
Sum of atomic charges:   -1.0000000

--------------------------------
MULLIKEN REDUCED ORBITAL CHARGES
--------------------------------
  0 Pds       :     2.527453  s :     2.527453
      pz      :     2.154187  p :     6.429548
      px      :     2.145349
      py      :     2.130012
      dz2     :     1.925135  d :     8.865314
      dxz     :     1.566740
      dyz     :     1.701188
      dx2y2   :     1.731178
      dxy     :     1.941072
      f0      :     0.000556  f :     0.004744
      f+1     :     0.000790
      f-1     :     0.000357
      f+2     :     0.001100
      f-2     :     0.000917
      f+3     :     0.000640
      f-3     :     0.000384
  1 Cls       :     5.934871  s :     5.934871
      pz      :     3.855864  p :    11.437615
      px      :     3.882673
      py      :     3.699078
      dz2     :     0.002276  d :     0.015807
      dxz     :     0.002712
      dyz     :     0.004149
      dx2y2   :     0.002991
      dxy     :     0.003679
  2 Cls       :     5.948738  s :     5.948738
      pz      :     3.760074  p :    11.366601
      px      :     3.731123
      py      :     3.875403
      dz2     :     0.001287  d :     0.028846
      dxz     :     0.013673
      dyz     :     0.004968
      dx2y2   :     0.002932
      dxy     :     0.005986
  3 Cls       :     5.940600  s :     5.940600
      pz      :     3.782567  p :    11.513524
      px      :     3.817794
      py      :     3.913163
      dz2     :     0.002136  d :     0.010082
      dxz     :     0.003258
      dyz     :     0.001684
      dx2y2   :     0.001533
      dxy     :     0.001470
  4 N s       :     3.661573  s :     3.661573
      pz      :     1.223118  p :     3.895079
      px      :     1.251188
      py      :     1.420773
      dz2     :     0.010869  d :     0.047905
      dxz     :     0.008595
      dyz     :     0.011137
      dx2y2   :     0.008545
      dxy     :     0.008759
  5 C s       :     3.163906  s :     3.163906
      pz      :     0.900183  p :     2.752969
      px      :     0.962709
      py      :     0.890076
      dz2     :     0.014220  d :     0.059322
      dxz     :     0.013532
      dyz     :     0.014223
      dx2y2   :     0.008035
      dxy     :     0.009312
  6 C s       :     3.282130  s :     3.282130
      pz      :     1.086200  p :     3.013852
      px      :     0.958583
      py      :     0.969069
      dz2     :     0.008158  d :     0.038614
      dxz     :     0.007440
      dyz     :     0.008481
      dx2y2   :     0.007268
      dxy     :     0.007268
  7 C s       :     3.256964  s :     3.256964
      pz      :     0.933537  p :     2.863927
      px      :     0.952587
      py      :     0.977803
      dz2     :     0.009552  d :     0.041016
      dxz     :     0.007988
      dyz     :     0.009061
      dx2y2   :     0.006435
      dxy     :     0.007979
  8 C s       :     3.133339  s :     3.133339
      pz      :     0.825042  p :     2.383383
      px      :     0.792857
      py      :     0.765483
      dz2     :     0.013981  d :     0.064004
      dxz     :     0.013268
      dyz     :     0.012907
      dx2y2   :     0.011545
      dxy     :     0.012303
  9 C s       :     3.221230  s :     3.221230
      pz      :     0.858961  p :     2.688207
      px      :     0.942188
      py      :     0.887057
      dz2     :     0.010250  d :     0.045736
      dxz     :     0.009428
      dyz     :     0.009603
      dx2y2   :     0.008303
      dxy     :     0.008152
 10 H s       :     0.794546  s :     0.794546
 11 H s       :     0.708535  s :     0.708535
 12 H s       :     0.785307  s :     0.785307
 13 C s       :     3.242990  s :     3.242990
      pz      :     0.918240  p :     2.681310
      px      :     0.895040
      py      :     0.868031
      dz2     :     0.010004  d :     0.045695
      dxz     :     0.007736
      dyz     :     0.010972
      dx2y2   :     0.007929
      dxy     :     0.009053
 14 C s       :     3.281478  s :     3.281478
      pz      :     0.970948  p :     2.986361
      px      :     0.990678
      py      :     1.024735
      dz2     :     0.009278  d :     0.040043
      dxz     :     0.008661
      dyz     :     0.008777
      dx2y2   :     0.005583
      dxy     :     0.007744
 15 C s       :     3.302088  s :     3.302088
      pz      :     0.976438  p :     2.961782
      px      :     1.009598
      py      :     0.975746
      dz2     :     0.008376  d :     0.040842
      dxz     :     0.009718
      dyz     :     0.008888
      dx2y2   :     0.006202
      dxy     :     0.007657
 16 C s       :     3.236724  s :     3.236724
      pz      :     0.854645  p :     2.564932
      px      :     0.886492
      py      :     0.823796
      dz2     :     0.010670  d :     0.047246
      dxz     :     0.009409
      dyz     :     0.010324
      dx2y2   :     0.008225
      dxy     :     0.008619
 17 H s       :     0.810968  s :     0.810968
 18 H s       :     0.808833  s :     0.808833
 19 C s       :     3.361328  s :     3.361328
      pz      :     0.913339  p :     2.652253
      px      :     0.923580
      py      :     0.815333
      dz2     :     0.011509  d :     0.042494
      dxz     :     0.007204
      dyz     :     0.007881
      dx2y2   :     0.006867
      dxy     :     0.009032
 20 C s       :     3.287786  s :     3.287786
      pz      :     0.982503  p :     3.008274
      px      :     1.039717
      py      :     0.986054
      dz2     :     0.007427  d :     0.039523
      dxz     :     0.009038
      dyz     :     0.009016
      dx2y2   :     0.006646
      dxy     :     0.007397
 21 C s       :     3.290869  s :     3.290869
      pz      :     0.992630  p :     3.010702
      px      :     0.964622
      py      :     1.053450
      dz2     :     0.008194  d :     0.040319
      dxz     :     0.008817
      dyz     :     0.009181
      dx2y2   :     0.006765
      dxy     :     0.007361
 22 C s       :     3.238720  s :     3.238720
      pz      :     1.004687  p :     2.914783
      px      :     0.960359
      py      :     0.949738
      dz2     :     0.008133  d :     0.041250
      dxz     :     0.006912
      dyz     :     0.009693
      dx2y2   :     0.008865
      dxy     :     0.007647
 23 H s       :     0.821438  s :     0.821438
 24 H s       :     0.812511  s :     0.812511
 25 H s       :     0.692999  s :     0.692999
 26 H s       :     0.768173  s :     0.768173


                     *******************************
                     * LOEWDIN POPULATION ANALYSIS *
                     *******************************

----------------------
LOEWDIN ATOMIC CHARGES
----------------------
   0 Pd:   -0.928252
   1 Cl:   -0.110487
   2 Cl:   -0.107538
   3 Cl:   -0.219013
   4 N :    0.050882
   5 C :   -0.002387
   6 C :   -0.174168
   7 C :   -0.094178
   8 C :    0.092365
   9 C :   -0.059825
  10 H :    0.132223
  11 H :    0.169772
  12 H :    0.137730
  13 C :   -0.029174
  14 C :   -0.145810
  15 C :   -0.117120
  16 C :   -0.037035
  17 H :    0.127514
  18 H :    0.128596
  19 C :    0.002588
  20 C :   -0.165626
  21 C :   -0.130669
  22 C :   -0.126777
  23 H :    0.120633
  24 H :    0.123555
  25 H :    0.213320
  26 H :    0.148881

-------------------------------
LOEWDIN REDUCED ORBITAL CHARGES
-------------------------------
  0 Pds       :     2.565888  s :     2.565888
      pz      :     2.361246  p :     7.012420
      px      :     2.319805
      py      :     2.331368
      dz2     :     1.988850  d :     9.343238
      dxz     :     1.677373
      dyz     :     1.819455
      dx2y2   :     1.820234
      dxy     :     2.037326
      f0      :     0.000810  f :     0.006706
      f+1     :     0.001090
      f-1     :     0.000464
      f+2     :     0.001569
      f-2     :     0.001322
      f+3     :     0.000935
      f-3     :     0.000516
  1 Cls       :     5.756891  s :     5.756891
      pz      :     3.824568  p :    11.337177
      px      :     3.843162
      py      :     3.669447
      dz2     :     0.002400  d :     0.016419
      dxz     :     0.002574
      dyz     :     0.004410
      dx2y2   :     0.002958
      dxy     :     0.004078
  2 Cls       :     5.799087  s :     5.799087
      pz      :     3.739244  p :    11.279058
      px      :     3.706479
      py      :     3.833335
      dz2     :     0.001319  d :     0.029394
      dxz     :     0.013520
      dyz     :     0.005156
      dx2y2   :     0.002949
      dxy     :     0.006449
  3 Cls       :     5.779215  s :     5.779215
[...]
      py      :     0.974846
      dz2     :     0.007389  d :     0.038487
      dxz     :     0.007220
      dyz     :     0.008890
      dx2y2   :     0.007426
      dxy     :     0.007561
  7 C s       :     3.257472  s :     3.257472
      pz      :     0.930859  p :     2.860282
      px      :     0.948495
      py      :     0.980928
      dz2     :     0.009728  d :     0.041214
      dxz     :     0.007590
      dyz     :     0.008559
      dx2y2   :     0.007014
      dxy     :     0.008323
  8 C s       :     3.137456  s :     3.137456
      pz      :     0.831024  p :     2.392519
      px      :     0.800518
      py      :     0.760977
      dz2     :     0.013554  d :     0.064533
      dxz     :     0.012957
      dyz     :     0.012976
      dx2y2   :     0.012218
      dxy     :     0.012827
  9 C s       :     3.222440  s :     3.222440
      pz      :     0.871242  p :     2.684717
      px      :     0.944152
      py      :     0.869323
      dz2     :     0.010031  d :     0.045764
      dxz     :     0.008996
      dyz     :     0.009474
      dx2y2   :     0.008706
      dxy     :     0.008556
 10 H s       :     0.791730  s :     0.791730
 11 H s       :     0.706915  s :     0.706915
 12 H s       :     0.782628  s :     0.782628
 13 C s       :     3.244567  s :     3.244567
      pz      :     0.925547  p :     2.667172
      px      :     0.886607
      py      :     0.855018
      dz2     :     0.009065  d :     0.045828
      dxz     :     0.007542
      dyz     :     0.011493
      dx2y2   :     0.008478
      dxy     :     0.009251
 14 C s       :     3.282911  s :     3.282911
      pz      :     0.971743  p :     2.986894
      px      :     0.989246
      py      :     1.025905
      dz2     :     0.009447  d :     0.039872
      dxz     :     0.008150
      dyz     :     0.007956
      dx2y2   :     0.006192
      dxy     :     0.008127
 15 C s       :     3.301437  s :     3.301437
      pz      :     0.981350  p :     2.957089
      px      :     1.008075
      py      :     0.967665
      dz2     :     0.007917  d :     0.040629
      dxz     :     0.009297
      dyz     :     0.008599
      dx2y2   :     0.006850
      dxy     :     0.007965
 16 C s       :     3.242613  s :     3.242613
      pz      :     0.869325  p :     2.566853
      px      :     0.887021
      py      :     0.810508
      dz2     :     0.010441  d :     0.047129
      dxz     :     0.008865
      dyz     :     0.010063
      dx2y2   :     0.008707
      dxy     :     0.009053
 17 H s       :     0.808048  s :     0.808048
 18 H s       :     0.805317  s :     0.805317
 19 C s       :     3.354596  s :     3.354596
      pz      :     0.926723  p :     2.669380
      px      :     0.919223
      py      :     0.823434
      dz2     :     0.011360  d :     0.043485
      dxz     :     0.006917
      dyz     :     0.008096
      dx2y2   :     0.007234
      dxy     :     0.009878
 20 C s       :     3.292998  s :     3.292998
      pz      :     0.991424  p :     3.005216
      px      :     1.038838
      py      :     0.974954
      dz2     :     0.006776  d :     0.039484
      dxz     :     0.008888
      dyz     :     0.008950
      dx2y2   :     0.007284
      dxy     :     0.007585
 21 C s       :     3.291775  s :     3.291775
      pz      :     0.972532  p :     2.992971
      px      :     0.960981
      py      :     1.059458
      dz2     :     0.008217  d :     0.040244
      dxz     :     0.008490
      dyz     :     0.008548
      dx2y2   :     0.007126
      dxy     :     0.007862
 22 C s       :     3.240682  s :     3.240682
      pz      :     1.006094  p :     2.910715
      px      :     0.955362
      py      :     0.949260
      dz2     :     0.007102  d :     0.040907
      dxz     :     0.006719
      dyz     :     0.010244
      dx2y2   :     0.008859
      dxy     :     0.007982
 23 H s       :     0.817146  s :     0.817146
 24 H s       :     0.805567  s :     0.805567
 25 H s       :     0.686981  s :     0.686981
 26 H s       :     0.767458  s :     0.767458


                     *******************************
                     * LOEWDIN POPULATION ANALYSIS *
                     *******************************

----------------------
LOEWDIN ATOMIC CHARGES
----------------------
   0 Pd:   -0.759980
   1 Cl:   -0.093645
   2 Cl:   -0.288601
   3 Cl:   -0.232602
   4 N :    0.043556
   5 C :   -0.003444
   6 C :   -0.173943
   7 C :   -0.090268
   8 C :    0.088855
   9 C :   -0.060001
  10 H :    0.133561
  11 H :    0.169676
  12 H :    0.138956
  13 C :   -0.030032
  14 C :   -0.145895
  15 C :   -0.114773
  16 C :   -0.036330
  17 H :    0.128781
  18 H :    0.130228
  19 C :    0.001921
  20 C :   -0.161448
  21 C :   -0.122583
  22 C :   -0.121074
  23 H :    0.122679
  24 H :    0.126926
  25 H :    0.198642
  26 H :    0.150837

-------------------------------
LOEWDIN REDUCED ORBITAL CHARGES
-------------------------------
  0 Pds       :     2.580674  s :     2.580674
      pz      :     2.310412  p :     6.897656
      px      :     2.290142
      py      :     2.297102
      dz2     :     1.983682  d :     9.275802
      dxz     :     1.661839
      dyz     :     1.856472
      dx2y2   :     1.773314
      dxy     :     2.000495
      f0      :     0.000679  f :     0.005849
      f+1     :     0.000998
      f-1     :     0.000354
      f+2     :     0.001538
      f-2     :     0.000974
      f+3     :     0.000876
      f-3     :     0.000430
  1 Cls       :     5.763606  s :     5.763606
      pz      :     3.843832  p :    11.315591
      px      :     3.814869
      py      :     3.656891
      dz2     :     0.002316  d :     0.014448
      dxz     :     0.001403
      dyz     :     0.003499
      dx2y2   :     0.002941
      dxy     :     0.004288
  2 Cls       :     5.859197  s :     5.859197
      pz      :     3.992271  p :    11.405327
      px      :     3.596434
      py      :     3.816622
      dz2     :     0.005582  d :     0.024077
      dxz     :     0.000599
      dyz     :     0.000252
      dx2y2   :     0.003261
      dxy     :     0.014382
  3 Cls       :     5.787155  s :     5.787155
      pz      :     3.765552  p :    11.436054
      px      :     3.781279
      py      :     3.889223
      dz2     :     0.001873  d :     0.009393
      dxz     :     0.003245
      dyz     :     0.001434
      dx2y2   :     0.001553
      dxy     :     0.001289
  4 N s       :     3.094099  s :     3.094099
      pz      :     1.200128  p :     3.757050
      px      :     1.221309
      py      :     1.335613
      dz2     :     0.023192  d :     0.105295
      dxz     :     0.022133
      dyz     :     0.025214
      dx2y2   :     0.017292
      dxy     :     0.017464
  5 C s       :     2.877433  s :     2.877433
      pz      :     0.979247  p :     2.994323
      px      :     1.004735
      py      :     1.010341
      dz2     :     0.028428  d :     0.131687
      dxz     :     0.026757
      dyz     :     0.035161
      dx2y2   :     0.020746
      dxy     :     0.020596
  6 C s       :     2.890061  s :     2.890061
      pz      :     1.064115  p :     3.194611
      px      :     1.060793
      py      :     1.069703
      dz2     :     0.016263  d :     0.089271
      dxz     :     0.016106
      dyz     :     0.019543
      dx2y2   :     0.017400
      dxy     :     0.019958
  7 C s       :     2.888170  s :     2.888170
      pz      :     1.041906  p :     3.109242
      px      :     1.027102
      py      :     1.040234
      dz2     :     0.022234  d :     0.092855
      dxz     :     0.019075
      dyz     :     0.019355
      dx2y2   :     0.014701
      dxy     :     0.017490
  8 C s       :     2.804430  s :     2.804430
      pz      :     0.993590  p :     2.954255
      px      :     0.947577
      py      :     1.013088
      dz2     :     0.031627  d :     0.152460
      dxz     :     0.030355
      dyz     :     0.030544
      dx2y2   :     0.026945
      dxy     :     0.032989
  9 C s       :     2.829802  s :     2.829802
      pz      :     1.039097  p :     3.117256
      px      :     1.030380
      py      :     1.047778
      dz2     :     0.023958  d :     0.112943
      dxz     :     0.021723
      dyz     :     0.025101
      dx2y2   :     0.020822
      dxy     :     0.021339
 10 H s       :     0.866439  s :     0.866439
 11 H s       :     0.830324  s :     0.830324
 12 H s       :     0.861044  s :     0.861044
 13 C s       :     2.820411  s :     2.820411
      pz      :     1.020507  p :     3.095511
      px      :     1.031757
      py      :     1.043247
      dz2     :     0.022752  d :     0.114110
      dxz     :     0.019443
      dyz     :     0.028333
      dx2y2   :     0.019675
      dxy     :     0.023907
 14 C s       :     2.883360  s :     2.883360
      pz      :     1.067765  p :     3.172033
      px      :     1.042628
      py      :     1.061640
      dz2     :     0.021456  d :     0.090503
      dxz     :     0.020046
      dyz     :     0.019193
      dx2y2   :     0.013725
      dxy     :     0.016083
 15 C s       :     2.888124  s :     2.888124
      pz      :     1.057348  p :     3.135259
      px      :     1.030778
      py      :     1.047132
      dz2     :     0.017992  d :     0.091390
      dxz     :     0.019044
      dyz     :     0.021835
      dx2y2   :     0.015636
      dxy     :     0.016883
 16 C s       :     2.829750  s :     2.829750
      pz      :     1.042313  p :     3.091358
      px      :     1.023395
      py      :     1.025650
      dz2     :     0.025241  d :     0.115222
      dxz     :     0.021864
      dyz     :     0.025029
      dx2y2   :     0.020458
      dxy     :     0.022631
 17 H s       :     0.871219  s :     0.871219
 18 H s       :     0.869772  s :     0.869772
 19 C s       :     2.886976  s :     2.886976
      pz      :     1.027467  p :     3.011391
      px      :     0.997277
      py      :     0.986647
      dz2     :     0.024456  d :     0.099712
      dxz     :     0.016296
      dyz     :     0.020588
      dx2y2   :     0.016523
      dxy     :     0.021849
 20 C s       :     2.882454  s :     2.882454
      pz      :     1.056497  p :     3.188995
      px      :     1.058866
      py      :     1.073631
      dz2     :     0.016072  d :     0.090000
      dxz     :     0.017688
      dyz     :     0.022490
      dx2y2   :     0.016439
      dxy     :     0.017310
 21 C s       :     2.884077  s :     2.884077
      pz      :     1.056796  p :     3.147367
      px      :     1.027024
      py      :     1.063547
      dz2     :     0.018839  d :     0.091139
      dxz     :     0.021590
      dyz     :     0.019756
      dx2y2   :     0.015260
      dxy     :     0.015695
 22 C s       :     2.891618  s :     2.891618
      pz      :     1.042565  p :     3.136555
      px      :     1.040887
      py      :     1.053104
      dz2     :     0.015744  d :     0.092900
      dxz     :     0.014991
      dyz     :     0.021530
      dx2y2   :     0.020103
      dxy     :     0.020532
 23 H s       :     0.877321  s :     0.877321
 24 H s       :     0.873074  s :     0.873074
 25 H s       :     0.801358  s :     0.801358
 26 H s       :     0.849163  s :     0.849163


                      *****************************
                      * MAYER POPULATION ANALYSIS *
                      *****************************

  NA   - Mulliken gross atomic population
  ZA   - Total nuclear charge
  QA   - Mulliken gross atomic charge
  VA   - Mayer's total valence
  BVA  - Mayer's bonded valence
  FA   - Mayer's free valence

  ATOM       NA         ZA         QA         VA         BVA        FA
  0 Pd    17.8076    18.0000     0.1924     2.7577     2.7577    -0.0000
  1 Cl    17.3769    17.0000    -0.3769     1.0920     1.0920     0.0000
  2 Cl    17.4157    17.0000    -0.4157     0.8054     0.8054     0.0000
  3 Cl    17.4745    17.0000    -0.4745     0.9170     0.9170     0.0000
  4 N      7.5842     7.0000    -0.5842     3.2493     3.2493    -0.0000
  5 C      5.9799     6.0000     0.0201     3.7237     3.7237     0.0000
  6 C      6.3374     6.0000    -0.3374     3.7995     3.7995    -0.0000
  7 C      6.1590     6.0000    -0.1590     3.6966     3.6966     0.0000
  8 C      5.5945     6.0000     0.4055     3.4719     3.4719     0.0000
  9 C      5.9529     6.0000     0.0471     3.6987     3.6987    -0.0000
 10 H      0.7917     1.0000     0.2083     0.9162     0.9162     0.0000
 11 H      0.7069     1.0000     0.2931     0.9115     0.9115    -0.0000
 12 H      0.7826     1.0000     0.2174     0.9203     0.9203    -0.0000
 13 C      5.9576     6.0000     0.0424     3.6323     3.6323     0.0000
 14 C      6.3097     6.0000    -0.3097     3.8121     3.8121    -0.0000
 15 C      6.2992     6.0000    -0.2992     3.7956     3.7956     0.0000
 16 C      5.8566     6.0000     0.1434     3.6606     3.6606    -0.0000
 17 H      0.8080     1.0000     0.1920     0.9227     0.9227    -0.0000
 18 H      0.8053     1.0000     0.1947     0.9214     0.9214    -0.0000
 19 C      6.0675     6.0000    -0.0675     3.6514     3.6514    -0.0000
 20 C      6.3377     6.0000    -0.3377     3.7981     3.7981     0.0000
 21 C      6.3250     6.0000    -0.3250     3.8580     3.8580     0.0000
 22 C      6.1923     6.0000    -0.1923     3.8024     3.8024     0.0000
 23 H      0.8171     1.0000     0.1829     0.9247     0.9247    -0.0000
 24 H      0.8056     1.0000     0.1944     0.9182     0.9182     0.0000
 25 H      0.6870     1.0000     0.3130     0.9161     0.9161    -0.0000
 26 H      0.7675     1.0000     0.2325     0.9298     0.9298     0.0000

  Mayer bond orders larger than 0.100000
B(  0-Pd,  1-Cl) :   0.7199 B(  0-Pd,  3-Cl) :   0.6777 B(  0-Pd,  4-N ) :   0.4234 
B(  0-Pd, 19-C ) :   0.8404 B(  1-Cl, 25-H ) :   0.1847 B(  2-Cl, 25-H ) :   0.7285 
B(  3-Cl, 19-C ) :   0.1045 B(  4-N ,  5-C ) :   1.4932 B(  4-N ,  8-C ) :   1.1225 
B(  5-C ,  6-C ) :   1.2949 B(  5-C , 11-H ) :   0.8426 B(  6-C ,  7-C ) :   1.4592 
B(  6-C , 12-H ) :   0.9224 B(  7-C ,  9-C ) :   1.2734 B(  7-C , 10-H ) :   0.9301 
B(  8-C ,  9-C ) :   1.2290 B(  8-C , 13-C ) :   1.1475 B(  9-C , 14-C ) :   1.1642 
B( 13-C , 16-C ) :   1.2609 B( 13-C , 19-C ) :   1.1795 B( 14-C , 15-C ) :   1.6509 
B( 14-C , 17-H ) :   0.9310 B( 15-C , 16-C ) :   1.1533 B( 15-C , 18-H ) :   0.9289 
B( 16-C , 20-C ) :   1.2784 B( 19-C , 21-C ) :   1.4632 B( 20-C , 22-C ) :   1.4826 
B( 20-C , 23-H ) :   0.9331 B( 21-C , 22-C ) :   1.3467 B( 21-C , 26-H ) :   0.8911 
B( 22-C , 24-H ) :   0.9261 

-------
TIMINGS
-------

Total SCF time: 0 days 0 hours 0 min 40 sec 

Total time                  ....      40.187 sec
Sum of individual times     ....      39.654 sec  ( 98.7%)

Fock matrix formation       ....      37.963 sec  ( 94.5%)
  Split-RI-J                ....       3.067 sec  (  8.1% of F)
  Chain of spheres X        ....      32.866 sec  ( 86.6% of F)
  XC integration            ....       1.993 sec  (  5.3% of F)
    Basis function eval.    ....       0.888 sec  ( 44.6% of XC)
    Density eval.           ....       0.500 sec  ( 25.1% of XC)
    XC-Functional eval.     ....       0.169 sec  (  8.5% of XC)
    XC-Potential eval.      ....       0.314 sec  ( 15.8% of XC)
Diagonalization             ....       0.163 sec  (  0.4%)
Density matrix formation    ....       0.011 sec  (  0.0%)
Population analysis         ....       0.044 sec  (  0.1%)
Initial guess               ....       0.024 sec  (  0.1%)
Orbital Transformation      ....       0.000 sec  (  0.0%)
Orbital Orthonormalization  ....       0.016 sec  (  0.0%)
DIIS solution               ....       0.088 sec  (  0.2%)
Grid generation             ....       1.361 sec  (  3.4%)

Maximum memory used throughout the entire SCF-calculation: 85.2 MB


-------------------------------------------------------------------------------
                          DFT DISPERSION CORRECTION                            
                                                                               
                              DFTD3 V3.1  Rev 1                                
                          USING Becke-Johnson damping                          
-------------------------------------------------------------------------------
The PBEh-3c composite method is recognized
Using three-body term ABC
Active option DFTDOPT                   ...         4   

molecular C6(AA) [au] = 16641.510445 


            DFT-D V3
 parameters
 s6 scaling factor         :     1.0000 
 a1 scaling factor         :     0.4860 
 s8 scaling factor         :     0.0000 
 a2 scaling factor         :     4.5000 
 Damping factor alpha9(ATM):    16.0000 
 ad hoc parameters k1-k3   :    16.0000     1.3333    -4.0000 

 Edisp/kcal,au: -15.021445064323  -0.023938193896 
 E6   /kcal   : -15.046429686 
 E8   /kcal   :  -0.000000000 
 E6(ABC)      :   0.024984622 
 % E8         :   0.000000000 
 % E6(ABC)    :  -0.166326352 

-------------------------   ----------------
Dispersion correction           -0.023938194
-------------------------   ----------------

 ** NOTE ** -> element pd will be treated as ni
------------------   -----------------
gCP correction             0.043163018
------------------   -----------------

-------------------------   --------------------
FINAL SINGLE POINT ENERGY     -2061.540099496232
-------------------------   --------------------

                                *** OPTIMIZATION RUN DONE ***

                            ***************************************
                            *     ORCA property calculations      *
                            ***************************************

                                    ---------------------
                                    Active property flags
                                    ---------------------
   (+) Dipole Moment


------------------------------------------------------------------------------
                       ORCA ELECTRIC PROPERTIES CALCULATION
------------------------------------------------------------------------------

Dipole Moment Calculation                       ... on
Quadrupole Moment Calculation                   ... off
Polarizability Calculation                      ... off
GBWName                                         ... reaction-2-prod-pbeh3c-orca_opt.gbw
Electron density                                ... reaction-2-prod-pbeh3c-orca_opt.scfp
The origin for moment calculation is the CENTER OF MASS  = (-1.753955, -1.980957  0.472423)

-------------
DIPOLE MOMENT
-------------
                                X             Y             Z
Electronic contribution:    -77.76183     -45.34463      20.90391
Nuclear contribution   :     80.18923      49.13354     -21.09130
                        -----------------------------------------
Total Dipole Moment    :      2.42740       3.78891      -0.18739
                        -----------------------------------------
Magnitude (a.u.)       :      4.50369
Magnitude (Debye)      :     11.44746



--------------------
Rotational spectrum 
--------------------
 
Rotational constants in cm-1:     0.011097     0.007806     0.005137 
Rotational constants in MHz :   332.689631   234.021690   154.010182 

 Dipole components along the rotational axes: 
x,y,z [a.u.] :     4.393866    -0.979791     0.130957 
x,y,z [Debye]:    11.168320    -2.490430     0.332866 

 

Timings for individual modules:

Sum of individual times         ...     2395.905 sec (=  39.932 min)
GTO integral calculation        ...       32.261 sec (=   0.538 min)   1.3 %
SCF iterations                  ...     1822.310 sec (=  30.372 min)  76.1 %
SCF Gradient evaluation         ...      536.123 sec (=   8.935 min)  22.4 %
Geometry relaxation             ...        5.211 sec (=   0.087 min)   0.2 %
                             ****ORCA TERMINATED NORMALLY****
TOTAL RUN TIME: 0 days 0 hours 40 minutes 12 seconds 4 msec
