
                                 *****************
                                 * O   R   C   A *
                                 *****************

                                            #,                                       
                                            ###                                      
                                            ####                                     
                                            #####                                    
                                            ######                                   
                                           ########,                                 
                                     ,,################,,,,,                         
                               ,,#################################,,                 
                          ,,##########################################,,             
                       ,#########################################, ''#####,          
                    ,#############################################,,   '####,        
                  ,##################################################,,,,####,       
                ,###########''''           ''''###############################       
              ,#####''   ,,,,##########,,,,          '''####'''          '####       
            ,##' ,,,,###########################,,,                        '##       
           ' ,,###''''                  '''############,,,                           
         ,,##''                                '''############,,,,        ,,,,,,###''
      ,#''                                            '''#######################'''  
     '                                                          ''''####''''         
             ,#######,   #######,   ,#######,      ##                                
            ,#'     '#,  ##    ##  ,#'     '#,    #''#        ######   ,####,        
            ##       ##  ##   ,#'  ##            #'  '#       #        #'  '#        
            ##       ##  #######   ##           ,######,      #####,   #    #        
            '#,     ,#'  ##    ##  '#,     ,#' ,#      #,         ##   #,  ,#        
             '#######'   ##     ##  '#######'  #'      '#     #####' # '####'        



                  #######################################################
                  #                        -***-                        #
                  #          Department of theory and spectroscopy      #
                  #    Directorship and core code : Frank Neese         #
                  #        Max Planck Institute fuer Kohlenforschung    #
                  #                Kaiser Wilhelm Platz 1               #
                  #                 D-45470 Muelheim/Ruhr               #
                  #                      Germany                        #
                  #                                                     #
                  #                  All rights reserved                #
                  #                        -***-                        #
                  #######################################################


                         Program Version 5.0.3 -  RELEASE  -


 With contributions from (in alphabetic order):
   Daniel Aravena         : Magnetic Suceptibility
   Michael Atanasov       : Ab Initio Ligand Field Theory (pilot matlab implementation)
   Alexander A. Auer      : GIAO ZORA, VPT2 properties, NMR spectrum
   Ute Becker             : Parallelization
   Giovanni Bistoni       : ED, misc. LED, open-shell LED, HFLD
   Martin Brehm           : Molecular dynamics
   Dmytro Bykov           : SCF Hessian
   Vijay G. Chilkuri      : MRCI spin determinant printing, contributions to CSF-ICE
   Dipayan Datta          : RHF DLPNO-CCSD density
   Achintya Kumar Dutta   : EOM-CC, STEOM-CC
   Dmitry Ganyushin       : Spin-Orbit,Spin-Spin,Magnetic field MRCI
   Miquel Garcia          : C-PCM and meta-GGA Hessian, CC/C-PCM, Gaussian charge scheme
   Yang Guo               : DLPNO-NEVPT2, F12-NEVPT2, CIM, IAO-localization
   Andreas Hansen         : Spin unrestricted coupled pair/coupled cluster methods
   Benjamin Helmich-Paris : MC-RPA, TRAH-SCF, COSX integrals
   Lee Huntington         : MR-EOM, pCC
   Robert Izsak           : Overlap fitted RIJCOSX, COSX-SCS-MP3, EOM
   Marcus Kettner         : VPT2
   Christian Kollmar      : KDIIS, OOCD, Brueckner-CCSD(T), CCSD density, CASPT2, CASPT2-K
   Simone Kossmann        : Meta GGA functionals, TD-DFT gradient, OOMP2, MP2 Hessian
   Martin Krupicka        : Initial AUTO-CI
   Lucas Lang             : DCDCAS
   Marvin Lechner         : AUTO-CI (C++ implementation), FIC-MRCC
   Dagmar Lenk            : GEPOL surface, SMD
   Dimitrios Liakos       : Extrapolation schemes; Compound Job, initial MDCI parallelization
   Dimitrios Manganas     : Further ROCIS development; embedding schemes
   Dimitrios Pantazis     : SARC Basis sets
   Anastasios Papadopoulos: AUTO-CI, single reference methods and gradients
   Taras Petrenko         : DFT Hessian,TD-DFT gradient, ASA, ECA, R-Raman, ABS, FL, XAS/XES, NRVS
   Peter Pinski           : DLPNO-MP2, DLPNO-MP2 Gradient
   Christoph Reimann      : Effective Core Potentials
   Marius Retegan         : Local ZFS, SOC
   Christoph Riplinger    : Optimizer, TS searches, QM/MM, DLPNO-CCSD(T), (RO)-DLPNO pert. Triples
   Tobias Risthaus        : Range-separated hybrids, TD-DFT gradient, RPA, STAB
   Michael Roemelt        : Original ROCIS implementation
   Masaaki Saitow         : Open-shell DLPNO-CCSD energy and density
   Barbara Sandhoefer     : DKH picture change effects
   Avijit Sen             : IP-ROCIS
   Kantharuban Sivalingam : CASSCF convergence, NEVPT2, FIC-MRCI
   Bernardo de Souza      : ESD, SOC TD-DFT
   Georgi Stoychev        : AutoAux, RI-MP2 NMR, DLPNO-MP2 response
   Willem Van den Heuvel  : Paramagnetic NMR
   Boris Wezisla          : Elementary symmetry handling
   Frank Wennmohs         : Technical directorship


 We gratefully acknowledge several colleagues who have allowed us to
 interface, adapt or use parts of their codes:
   Stefan Grimme, W. Hujo, H. Kruse, P. Pracht,  : VdW corrections, initial TS optimization,
                  C. Bannwarth, S. Ehlert          DFT functionals, gCP, sTDA/sTD-DF
   Ed Valeev, F. Pavosevic, A. Kumar             : LibInt (2-el integral package), F12 methods
   Garnet Chan, S. Sharma, J. Yang, R. Olivares  : DMRG
   Ulf Ekstrom                                   : XCFun DFT Library
   Mihaly Kallay                                 : mrcc  (arbitrary order and MRCC methods)
   Jiri Pittner, Ondrej Demel                    : Mk-CCSD
   Frank Weinhold                                : gennbo (NPA and NBO analysis)
   Christopher J. Cramer and Donald G. Truhlar   : smd solvation model
   Lars Goerigk                                  : TD-DFT with DH, B97 family of functionals
   V. Asgeirsson, H. Jonsson                     : NEB implementation
   FAccTs GmbH                                   : IRC, NEB, NEB-TS, DLPNO-Multilevel, CI-OPT
                                                   MM, QMMM, 2- and 3-layer-ONIOM, Crystal-QMMM,
                                                   LR-CPCM, SF, NACMEs, symmetry and pop. for TD-DFT,
                                                   nearIR, NL-DFT gradient (VV10), updates on ESD,
                                                   ML-optimized integration grids
   S Lehtola, MJT Oliveira, MAL Marques          : LibXC Library
   Liviu Ungur et al                             : ANISO software


 Your calculation uses the libint2 library for the computation of 2-el integrals
 For citations please refer to: http://libint.valeyev.net

 Your ORCA version has been built with support for libXC version: 5.1.0
 For citations please refer to: https://tddft.org/programs/libxc/

 This ORCA versions uses:
   CBLAS   interface :  Fast vector & matrix operations
   LAPACKE interface :  Fast linear algebra routines
   SCALAPACK package :  Parallel linear algebra routines
   Shared memory     :  Shared parallel matrices
   BLAS/LAPACK       :  OpenBLAS 0.3.15  USE64BITINT DYNAMIC_ARCH NO_AFFINITY SkylakeX SINGLE_THREADED
        Core in use  :  SkylakeX
   Copyright (c) 2011-2014, The OpenBLAS Project


Your calculation utilizes the geometrical counterpoise correction gCP
Please cite in your paper:
H.Kruse, S. Grimme J.Chem.Phys., 136, (2012), 154101 
   

Your calculation utilizes the atom-pairwise dispersion correction
with the Becke-Johnson damping scheme (D3BJ)
Cite in your paper:
S.Grimme, S.Ehrlich, L.Goerigk, J Comput Chem, (2011), 32, 1456–1465 
S.Grimme, J.Antony, S.Ehrlich and H.Krieg, J.Chem.Phys., 132, (2010), 154104 
   

Your calculation employs the composite approach PBEh-3c.
Please cite in your paper:
S. Grimme, J. G. Brandenburg, C. Bannwarth, A. Hansen J.Chem.Phys., 143, (2015), 054107 
   

================================================================================

cite the ECPs for Pd [Def2-ECP] as follows:
Ce-Yb(ecp-28): M. Dolg, H. Stoll, H.Preuss, J. Chem. Phys., 1989, 90, 1730-1734.
Y-Cd(ecp-28), Hf-Hg(ecp-46): D. Andrae,U. Haeussermann, M. Dolg, H. Stoll, H. Preuss, Theor. Chim. Acta, 1990, 77, 123-141.
In-Sb(ecp-28), Tl-Bi(ecp-46): B. Metz, H. Stoll, M. Dolg, J. Chem. Phys., 2000, 113, 2563-2569.
Te-Xe(ecp-28), Po-Rn(ecp-46): K. A. Peterson, D. Figgen, E. Goll, H. Stoll, M. Dolg, J. Chem. Phys., 2003, 119, 11113-11123.
Rb(ecp-28), Cs(ecp-46): T. Leininger, A. Nicklass, W. Kuechle, H. Stoll, M. Dolg, A. Bergner, Chem. Phys. Lett., 1996, 255, 274-280.
Sr(ecp-28), Ba(ecp-46): M. Kaupp, P. V. Schleyer, H. Stoll and H. Preuss, J. Chem. Phys., 1991, 94, 1360-1366.
La(ecp-46): M. Dolg, H. Stoll, A. Savin, H. Preuss, Theor. Chim. Acta, 1989, 75, 173-194.
Lu(ecp-28): X. Cao, M. Dolg, J. Chem. Phys., 2001, 115, 7348-7355.

ECP parameters for Pd [Def2-ECP] have been obtained from:
TURBOMOLE (7.0.2)

----- Orbital basis set information -----
Your calculation utilizes the basis: def2-mSVP

----- AuxJ basis set information -----
Your calculation utilizes the auxiliary basis: def2/J
   F. Weigend, Phys. Chem. Chem. Phys. 8, 1057 (2006).

================================================================================
                                        WARNINGS
                       Please study these warnings very carefully!
================================================================================


INFO   : the flag for use of the SHARK integral package has been found!

================================================================================
                                       INPUT FILE
================================================================================
NAME = 10_22_orca.inp
|  1> ! EnGrad PBEh-3c
|  2> %output 
|  3> xyzfile=True 
|  4> end 
|  5> %scf 
|  6> maxiter 250 
|  7> end
|  8> %output
|  9> Print[P_Hirshfeld] = 1
| 10> end
| 11> % maxcore
| 12> 4000
| 13> *xyz 0 1
| 14> Pd   0.25733292   0.14261497  -0.00420719 
| 15> O    1.72598107   1.47480245   0.72542639 
| 16> C    1.69791586   2.67106190   0.51039448 
| 17> O    0.57713726   3.27740588   0.09011247 
| 18> C    2.92061193   3.52268738   0.67147976 
| 19> H    2.55000880   4.44541624   1.08987769 
| 20> H    3.33131711   3.79118902  -0.30574889 
| 21> H    3.62421747   3.00478725   1.32255821 
| 22> N   -1.27284742  -0.97854025  -0.88497629 
| 23> C   -0.84001990  -2.36213648  -1.17509351 
| 24> H    0.01619591  -2.35383403  -1.85395259 
| 25> H   -1.68760589  -2.91195901  -1.61744339 
| 26> H   -0.54174115  -2.84784904  -0.24396495 
| 27> C   -1.74302838  -0.35951193  -2.13492984 
| 28> H   -1.91967625   0.70872098  -1.98387925 
| 29> H   -2.68659848  -0.83479669  -2.45141496 
| 30> H   -0.99814271  -0.49001520  -2.91995697 
| 31> C   -1.85733803  -1.11121132   1.43831433 
| 32> C   -2.50967530  -1.80661316   2.43537740 
| 33> C   -2.08890921  -1.69731820   3.75517773 
| 34> C   -1.05221777  -0.82643724   4.04261969 
| 35> C   -0.37461964  -0.16568635   3.02567725 
| 36> C   -0.71775220  -0.34238492   1.69432737 
| 37> H   -0.76759230  -0.68791921   5.07478924 
| 38> H    0.42940652   0.48098588   3.31213408 
| 39> H   -3.37484195  -2.41500407   2.20222948 
| 40> H   -2.61123939  -2.23234335   4.55634392 
| 41> H   -0.09714807   3.37316883   0.76819710 
| 42> C   -2.39593866  -1.02058097   0.06627964 
| 43> H   -2.93845654  -0.07100669   0.01627184 
| 44> H   -3.09465136  -1.83301839  -0.18612040 
| 45> O    1.30597762   0.59050433  -1.83723700 
| 46> C    2.07443492  -0.25926009  -2.41711679 
| 47> O    2.10818178  -1.45689683  -2.16647315 
| 48> C    3.03653635   0.30735070  -3.46170003 
| 49> H    3.38071309  -0.49542664  -4.11096912 
| 50> H    3.91688526   0.73925477  -2.97108715 
| 51> H    2.58798897   1.09424500  -4.06824640 
| 52> *
| 53> 
| 54>                          ****END OF INPUT****
================================================================================

                     *******************************
                     * Energy+Gradient Calculation *
                     *******************************

---------------------------------
CARTESIAN COORDINATES (ANGSTROEM)
---------------------------------
  Pd     0.257333    0.142615   -0.004207
  O      1.725981    1.474802    0.725426
  C      1.697916    2.671062    0.510394
  O      0.577137    3.277406    0.090112
  C      2.920612    3.522687    0.671480
  H      2.550009    4.445416    1.089878
  H      3.331317    3.791189   -0.305749
  H      3.624217    3.004787    1.322558
  N     -1.272847   -0.978540   -0.884976
  C     -0.840020   -2.362136   -1.175094
  H      0.016196   -2.353834   -1.853953
  H     -1.687606   -2.911959   -1.617443
  H     -0.541741   -2.847849   -0.243965
  C     -1.743028   -0.359512   -2.134930
  H     -1.919676    0.708721   -1.983879
  H     -2.686598   -0.834797   -2.451415
  H     -0.998143   -0.490015   -2.919957
  C     -1.857338   -1.111211    1.438314
  C     -2.509675   -1.806613    2.435377
  C     -2.088909   -1.697318    3.755178
  C     -1.052218   -0.826437    4.042620
  C     -0.374620   -0.165686    3.025677
  C     -0.717752   -0.342385    1.694327
  H     -0.767592   -0.687919    5.074789
  H      0.429407    0.480986    3.312134
  H     -3.374842   -2.415004    2.202229
  H     -2.611239   -2.232343    4.556344
  H     -0.097148    3.373169    0.768197
  C     -2.395939   -1.020581    0.066280
  H     -2.938457   -0.071007    0.016272
  H     -3.094651   -1.833018   -0.186120
  O      1.305978    0.590504   -1.837237
  C      2.074435   -0.259260   -2.417117
  O      2.108182   -1.456897   -2.166473
  C      3.036536    0.307351   -3.461700
  H      3.380713   -0.495427   -4.110969
  H      3.916885    0.739255   -2.971087
  H      2.587989    1.094245   -4.068246

----------------------------
CARTESIAN COORDINATES (A.U.)
----------------------------
  NO LB      ZA    FRAG     MASS         X           Y           Z
   0 Pd   18.0000*   0   106.400    0.486289    0.269503   -0.007950
   1 O     8.0000    0    15.999    3.261632    2.786973    1.370857
   2 C     6.0000    0    12.011    3.208596    5.047575    0.964506
   3 O     8.0000    0    15.999    1.090631    6.193400    0.170288
   4 C     6.0000    0    12.011    5.519157    6.656914    1.268913
   5 H     1.0000    0     1.008    4.818818    8.400619    2.059570
   6 H     1.0000    0     1.008    6.295277    7.164309   -0.577782
   7 H     1.0000    0     1.008    6.848778    5.678225    2.499273
   8 N     7.0000    0    14.007   -2.405333   -1.849173   -1.672363
   9 C     6.0000    0    12.011   -1.587408   -4.463791   -2.220605
  10 H     1.0000    0     1.008    0.030606   -4.448102   -3.503463
  11 H     1.0000    0     1.008   -3.189113   -5.502805   -3.056525
  12 H     1.0000    0     1.008   -1.023742   -5.381655   -0.461027
  13 C     6.0000    0    12.011   -3.293846   -0.679379   -4.034433
  14 H     1.0000    0     1.008   -3.627662    1.339289   -3.748988
  15 H     1.0000    0     1.008   -5.076935   -1.577537   -4.632503
  16 H     1.0000    0     1.008   -1.886216   -0.925995   -5.517919
  17 C     6.0000    0    12.011   -3.509860   -2.099885    2.718020
  18 C     6.0000    0    12.011   -4.742599   -3.414004    4.602196
  19 C     6.0000    0    12.011   -3.947466   -3.207467    7.096257
  20 C     6.0000    0    12.011   -1.988403   -1.561740    7.639444
  21 C     6.0000    0    12.011   -0.707929   -0.313102    5.717701
  22 C     6.0000    0    12.011   -1.356355   -0.647014    3.201815
  23 H     1.0000    0     1.008   -1.450539   -1.299979    9.589962
  24 H     1.0000    0     1.008    0.811461    0.908932    6.259026
  25 H     1.0000    0     1.008   -6.377527   -4.563696    4.161611
  26 H     1.0000    0     1.008   -4.934527   -4.218518    8.610242
  27 H     1.0000    0     1.008   -0.183583    6.374365    1.451682
  28 C     6.0000    0    12.011   -4.527668   -1.928619    0.125250
  29 H     1.0000    0     1.008   -5.552878   -0.134183    0.030749
  30 H     1.0000    0     1.008   -5.848044   -3.463903   -0.351717
  31 O     8.0000    0    15.999    2.467940    1.115891   -3.471875
  32 C     6.0000    0    12.011    3.920114   -0.489931   -4.567689
  33 O     8.0000    0    15.999    3.983886   -2.753136   -4.094041
  34 C     6.0000    0    12.011    5.738222    0.580809   -6.541665
  35 H     1.0000    0     1.008    6.388622   -0.936221   -7.768606
  36 H     1.0000    0     1.008    7.401840    1.396989   -5.614541
  37 H     1.0000    0     1.008    4.890590    2.067823   -7.687872
* core charge reduced due to ECP

--------------------------------
INTERNAL COORDINATES (ANGSTROEM)
--------------------------------
 Pd     0   0   0     0.000000000000     0.00000000     0.00000000
 O      1   0   0     2.112821817246     0.00000000     0.00000000
 C      2   1   0     1.215756163893   122.90770954     0.00000000
 O      3   2   1     1.341802765025   121.28682797    17.03140141
 C      3   2   1     1.498732833167   121.41779455   198.53799697
 H      5   3   2     1.078810482370   104.32640988   217.95674481
 H      5   3   2     1.093502496541   110.48020424   105.12621982
 H      5   3   2     1.089579941366   108.72075860   339.20754622
 N      1   2   3     2.091457651441   172.74753204    13.97653502
 C      9   1   2     1.478460750605   111.72274137   138.01978162
 H     10   9   1     1.092714095484   110.13251981   300.53297387
 H     10   9   1     1.102896296701   108.67845488   178.86003839
 H     10   9   1     1.091735910782   109.20665145    59.72104143
 C      9   1   2     1.471954507879   111.46140040    16.19889419
 H     14   9   1     1.093225640352   110.19507789   312.49891113
 H     14   9   1     1.102897532812   109.61680578   192.77006590
 H     14   9   1     1.090024476646   110.05592324    72.83727338
 C      9   1   2     2.399356203437    78.46850266   236.58650107
 C     18   9   1     1.379587763959   147.44472902   204.36280816
 C     19  18   9     1.389554749495   120.23954201   153.79014809
 C     20  19  18     1.384119094814   118.26398130     3.24600427
 C     21  20  19     1.389209448099   120.83509786   354.58138220
 C     22  21  20     1.386165517299   121.44712865     0.64653305
 H     21  20  19     1.079617007441   118.47221911   175.86791037
 H     22  21  20     1.070841050050   117.23450120   181.08947977
 H     19  18   9     1.083056223953   120.35076976   331.65418478
 H     20  19  18     1.095877726788   120.77351604   178.95203932
 H      4   3   2     0.961056717519   114.20913020    73.33574666
 C      9   1  23     1.472409318044   107.53534247    21.34887658
 H     29   9   1     1.094768351487   108.88753946    78.44607662
 H     29   9   1     1.100890448114   110.91960127   197.61154906
 O      1   2   3     2.158763273263    79.90688309    72.54670640
 C     32   1   2     1.284089857553   122.46951656   107.61083372
 O     33  32   1     1.224048547170   124.85586461    14.49024395
 C     33  32   1     1.529000030818   116.09402121   196.49299265
 H     35  33  32     1.088328735816   109.46396610   199.08026933
 H     35  33  32     1.096474499039   110.21182578    80.83680568
 H     35  33  32     1.090089854295   112.87505807   321.06714630

---------------------------
INTERNAL COORDINATES (A.U.)
---------------------------
 Pd     0   0   0     0.000000000000     0.00000000     0.00000000
 O      1   0   0     3.992654604369     0.00000000     0.00000000
 C      2   1   0     2.297446195385   122.90770954     0.00000000
 O      3   2   1     2.535639751636   121.28682797    17.03140141
 C      3   2   1     2.832194602601   121.41779455   198.53799697
 H      5   3   2     2.038656362082   104.32640988   217.95674481
 H      5   3   2     2.066420245222   110.48020424   105.12621982
 H      5   3   2     2.059007690196   108.72075860   339.20754622
 N      1   2   3     3.952282181917   172.74753204    13.97653502
 C      9   1   2     2.793885918395   111.72274137   138.01978162
 H     10   9   1     2.064930383139   110.13251981   300.53297387
 H     10   9   1     2.084171954880   108.67845488   178.86003839
 H     10   9   1     2.063081881945   109.20665145    59.72104143
 C      9   1   2     2.781590901483   111.46140040    16.19889419
 H     14   9   1     2.065897062845   110.19507789   312.49891113
 H     14   9   1     2.084174290793   109.61680578   192.77006590
 H     14   9   1     2.059847740132   110.05592324    72.83727338
 C      9   1   2     4.534126122222    78.46850266   236.58650107
 C     18   9   1     2.607043051591   147.44472902   204.36280816
 C     19  18   9     2.625877924635   120.23954201   153.79014809
 C     20  19  18     2.615606025929   118.26398130     3.24600427
 C     21  20  19     2.625225399564   120.83509786   354.58138220
 C     22  21  20     2.619473203980   121.44712865     0.64653305
 H     21  20  19     2.040180473586   118.47221911   175.86791037
 H     22  21  20     2.023596317554   117.23450120   181.08947977
 H     19  18   9     2.046679650910   120.35076976   331.65418478
 H     20  19  18     2.070908779894   120.77351604   178.95203932
 H      4   3   2     1.816133995276   114.20913020    73.33574666
 C      9   1  23     2.782450368137   107.53534247    21.34887658
 H     29   9   1     2.068812364395   108.88753946    78.44607662
 H     29   9   1     2.080381450386   110.91960127   197.61154906
 O      1   2   3     4.079471374434    79.90688309    72.54670640
 C     32   1   2     2.426578162122   122.46951656   107.61083372
 O     33  32   1     2.313116528776   124.85586461    14.49024395
 C     33  32   1     2.889391317003   116.09402121   196.49299265
 H     35  33  32     2.056643254370   109.46396610   199.08026933
 H     35  33  32     2.072036516012   110.21182578    80.83680568
 H     35  33  32     2.059971285984   112.87505807   321.06714630

---------------------
BASIS SET INFORMATION
---------------------
There are 5 groups of distinct atoms

 Group   1 Type Pd  : 7s6p5d1f contracted to 5s3p2d1f pattern {31111/411/41/1}
 Group   2 Type O   : 8s4p1d contracted to 4s2p1d pattern {5111/31/1}
 Group   3 Type C   : 8s4p1d contracted to 4s2p1d pattern {5111/31/1}
 Group   4 Type H   : 4s contracted to 2s pattern {31}
 Group   5 Type N   : 8s4p1d contracted to 4s2p1d pattern {5111/31/1}

Atom   0Pd   basis set group =>   1
Atom   1O    basis set group =>   2
Atom   2C    basis set group =>   3
Atom   3O    basis set group =>   2
Atom   4C    basis set group =>   3
Atom   5H    basis set group =>   4
Atom   6H    basis set group =>   4
Atom   7H    basis set group =>   4
Atom   8N    basis set group =>   5
Atom   9C    basis set group =>   3
Atom  10H    basis set group =>   4
Atom  11H    basis set group =>   4
Atom  12H    basis set group =>   4
Atom  13C    basis set group =>   3
Atom  14H    basis set group =>   4
Atom  15H    basis set group =>   4
Atom  16H    basis set group =>   4
Atom  17C    basis set group =>   3
Atom  18C    basis set group =>   3
Atom  19C    basis set group =>   3
Atom  20C    basis set group =>   3
Atom  21C    basis set group =>   3
Atom  22C    basis set group =>   3
Atom  23H    basis set group =>   4
Atom  24H    basis set group =>   4
Atom  25H    basis set group =>   4
Atom  26H    basis set group =>   4
Atom  27H    basis set group =>   4
Atom  28C    basis set group =>   3
Atom  29H    basis set group =>   4
Atom  30H    basis set group =>   4
Atom  31O    basis set group =>   2
Atom  32C    basis set group =>   3
Atom  33O    basis set group =>   2
Atom  34C    basis set group =>   3
Atom  35H    basis set group =>   4
Atom  36H    basis set group =>   4
Atom  37H    basis set group =>   4
---------------------------------
AUXILIARY/J BASIS SET INFORMATION
---------------------------------
There are 5 groups of distinct atoms

 Group   1 Type Pd  : 11s5p5d3f3g contracted to 8s5p5d2f3g pattern {41111111/11111/11111/21/111}
 Group   2 Type O   : 12s5p4d2f1g contracted to 6s4p3d1f1g pattern {711111/2111/211/2/1}
 Group   3 Type C   : 12s5p4d2f1g contracted to 6s4p3d1f1g pattern {711111/2111/211/2/1}
 Group   4 Type H   : 5s2p1d contracted to 3s1p1d pattern {311/2/1}
 Group   5 Type N   : 12s5p4d2f1g contracted to 6s4p3d1f1g pattern {711111/2111/211/2/1}

Atom   0Pd   basis set group =>   1
Atom   1O    basis set group =>   2
Atom   2C    basis set group =>   3
Atom   3O    basis set group =>   2
Atom   4C    basis set group =>   3
Atom   5H    basis set group =>   4
Atom   6H    basis set group =>   4
Atom   7H    basis set group =>   4
Atom   8N    basis set group =>   5
Atom   9C    basis set group =>   3
Atom  10H    basis set group =>   4
Atom  11H    basis set group =>   4
Atom  12H    basis set group =>   4
Atom  13C    basis set group =>   3
Atom  14H    basis set group =>   4
Atom  15H    basis set group =>   4
Atom  16H    basis set group =>   4
Atom  17C    basis set group =>   3
Atom  18C    basis set group =>   3
Atom  19C    basis set group =>   3
Atom  20C    basis set group =>   3
Atom  21C    basis set group =>   3
Atom  22C    basis set group =>   3
Atom  23H    basis set group =>   4
Atom  24H    basis set group =>   4
Atom  25H    basis set group =>   4
Atom  26H    basis set group =>   4
Atom  27H    basis set group =>   4
Atom  28C    basis set group =>   3
Atom  29H    basis set group =>   4
Atom  30H    basis set group =>   4
Atom  31O    basis set group =>   2
Atom  32C    basis set group =>   3
Atom  33O    basis set group =>   2
Atom  34C    basis set group =>   3
Atom  35H    basis set group =>   4
Atom  36H    basis set group =>   4
Atom  37H    basis set group =>   4
-------------------------
ECP PARAMETER INFORMATION
-------------------------

 Group 1, Type Pd ECP Def2-ECP (replacing 28 core electrons, lmax=3)

Atom   0Pd   ECP group =>   1

------------------------------------------------------------------------------
                           ORCA GTO INTEGRAL CALCULATION
                           -- RI-GTO INTEGRALS CHOSEN --
------------------------------------------------------------------------------
------------------------------------------------------------------------------
                   ___                                                        
                  /   \      - P O W E R E D   B Y -                         
                 /     \                                                     
                 |  |  |   _    _      __       _____    __    __             
                 |  |  |  | |  | |    /  \     |  _  \  |  |  /  |          
                  \  \/   | |  | |   /    \    | | | |  |  | /  /          
                 / \  \   | |__| |  /  /\  \   | |_| |  |  |/  /          
                |  |  |   |  __  | /  /__\  \  |    /   |      \           
                |  |  |   | |  | | |   __   |  |    \   |  |\   \          
                \     /   | |  | | |  |  |  |  | |\  \  |  | \   \       
                 \___/    |_|  |_| |__|  |__|  |_| \__\ |__|  \__/        
                                                                              
                      - O R C A' S   B I G   F R I E N D -                    
                                      &                                       
                       - I N T E G R A L  F E E D E R -                       
                                                                              
 v1 FN, 2020, v2 2021                                                         
------------------------------------------------------------------------------


Reading SHARK input file 10_22_orca.SHARKINP.tmp ... ok
----------------------
SHARK INTEGRAL PACKAGE
----------------------

Number of atoms                             ...     38
Number of basis functions                   ...    339
Number of shells                            ...    175
Maximum angular momentum                    ...      3
Integral batch strategy                     ... SHARK/LIBINT Hybrid
RI-J (if used) integral strategy            ... SPLIT-RIJ (Revised 2003 algorithm where possible)
Printlevel                                  ...      1
Contraction scheme used                     ... SEGMENTED contraction
Coulomb Range Separation                    ... NOT USED
Exchange Range Separation                   ... NOT USED
Finite Nucleus Model                        ... NOT USED
Auxiliary Coulomb fitting basis             ... AVAILABLE
   # of basis functions in Aux-J            ...   1180
   # of shells in Aux-J                     ...    388
   Maximum angular momentum in Aux-J        ...      4
Auxiliary J/K fitting basis                 ... NOT available
Auxiliary Correlation fitting basis         ... NOT available
Auxiliary 'external' fitting basis          ... NOT available
Integral threshold                          ...     2.500000e-11
Primitive cut-off                           ...     2.500000e-12
Primitive pair pre-selection threshold      ...     2.500000e-12

Calculating pre-screening integrals         ... done (  0.1 sec) Dimension = 175
Organizing shell pair data                  ... done (  0.1 sec)
Shell pair information
Total number of shell pairs                 ...     15400
Shell pairs after pre-screening             ...     10802
Total number of primitive shell pairs       ...     54591
Primitive shell pairs kept                  ...     24220
          la=0 lb=0:   4129 shell pairs
          la=1 lb=0:   3570 shell pairs
          la=1 lb=1:    711 shell pairs
          la=2 lb=0:   1471 shell pairs
          la=2 lb=1:    641 shell pairs
          la=2 lb=2:    137 shell pairs
          la=3 lb=0:     84 shell pairs
          la=3 lb=1:     39 shell pairs
          la=3 lb=2:     19 shell pairs
          la=3 lb=3:      1 shell pairs

Calculating one electron integrals          ... done (  0.1 sec)
Calculating ECP integrals                   ... done (  0.4 sec)
Calculating RI/J V-Matrix + Cholesky decomp.... done (  0.1 sec)
Calculating Nuclear repulsion               ... done (  0.0 sec) ENN=   1733.316483056145 Eh

SHARK setup successfully completed in   0.9 seconds

Maximum memory used throughout the entire GTOINT-calculation: 75.3 MB
-------------------------------------------------------------------------------
                                 ORCA SCF
-------------------------------------------------------------------------------

------------
SCF SETTINGS
------------
Hamiltonian:
 Density Functional     Method          .... DFT(GTOs)
 Exchange Functional    Exchange        .... PBE
   PBE kappa parameter   XKappa         ....  1.024500
   PBE mue parameter    XMuePBE         ....  0.123457
 Correlation Functional Correlation     .... PBE
   PBE beta parameter  CBetaPBE         ....  0.030000
 LDA part of GGA corr.  LDAOpt          .... PW91-LDA
 Gradients option       PostSCFGGA      .... off
 Hybrid DFT is turned on
   Fraction HF Exchange ScalHFX         ....  0.420000
   Scaling of DF-GGA-X  ScalDFX         ....  0.580000
   Scaling of DF-GGA-C  ScalDFC         ....  1.000000
   Scaling of DF-LDA-C  ScalLDAC        ....  1.000000
   Perturbative correction              ....  0.000000
   Density functional embedding theory  .... OFF
 RI-approximation to the Coulomb term is turned on
   Number of AuxJ basis functions       .... 1180
   RIJ-ON(X) (HFX calculated with O(N)) .... on
   Number of AuxJ basis functions       .... 1180
   RIJ-COSX (HFX calculated with COS-X)).... on


General Settings:
 Integral files         IntName         .... 10_22_orca
 Hartree-Fock type      HFTyp           .... RHF
 Total Charge           Charge          ....    0
 Multiplicity           Mult            ....    1
 Number of Electrons    NEL             ....  154
 Basis Dimension        Dim             ....  339
 Nuclear Repulsion      ENuc            ....   1733.3164830561 Eh

Convergence Acceleration:
 DIIS                   CNVDIIS         .... on
   Start iteration      DIISMaxIt       ....    12
   Startup error        DIISStart       ....  0.200000
   # of expansion vecs  DIISMaxEq       ....     5
   Bias factor          DIISBfac        ....   1.050
   Max. coefficient     DIISMaxC        ....  10.000
 Trust-Rad. Augm. Hess. CNVTRAH         .... auto
   Auto Start mean grad. ratio tolernc. ....  1.125000
   Auto Start start iteration           ....    20
   Auto Start num. interpolation iter.  ....    10
   Max. Number of Micro iterations      ....    16
   Max. Number of Macro iterations      .... Maxiter - #DIIS iter
   Number of Davidson start vectors     ....     2
   Converg. threshold I  (grad. norm)   ....   1.000e-05
   Converg. threshold II (energy diff.) ....   1.000e-08
   Grad. Scal. Fac. for Micro threshold ....   0.100
   Minimum threshold for Micro iter.    ....   0.010
   NR start threshold (gradient norm)   ....   0.001
   Initial trust radius                 ....   0.400
   Minimum AH scaling param. (alpha)    ....   1.000
   Maximum AH scaling param. (alpha)    .... 1000.000
   Orbital update algorithm             .... Taylor
   White noise on init. David. guess    .... on
   Maximum white noise                  ....   0.010
   Quad. conv. algorithm                .... NR
   COSX micro iterations for RIJONX calc.... off
 SOSCF                  CNVSOSCF        .... off
 Level Shifting         CNVShift        .... on
   Level shift para.    LevelShift      ....    0.2500
   Turn off err/grad.   ShiftErr        ....    0.0010
 Zerner damping         CNVZerner       .... off
 Static damping         CNVDamp         .... on
   Fraction old density DampFac         ....    0.7000
   Max. Damping (<1)    DampMax         ....    0.9800
   Min. Damping (>=0)   DampMin         ....    0.0000
   Turn off err/grad.   DampErr         ....    0.1000
 Fernandez-Rico         CNVRico         .... off

SCF Procedure:
 Maximum # iterations   MaxIter         ....   250
 SCF integral mode      SCFMode         .... Direct
   Integral package                     .... SHARK and LIBINT hybrid scheme
 Reset frequency        DirectResetFreq ....    20
 Integral Threshold     Thresh          ....  2.500e-11 Eh
 Primitive CutOff       TCut            ....  2.500e-12 Eh

Convergence Tolerance:
 Convergence Check Mode ConvCheckMode   .... Total+1el-Energy
 Convergence forced     ConvForced      .... 0
 Energy Change          TolE            ....  1.000e-08 Eh
 1-El. energy change                    ....  1.000e-05 Eh
 DIIS Error             TolErr          ....  5.000e-07


Diagonalization of the overlap matrix:
Smallest eigenvalue                        ... 4.177e-04
Time for diagonalization                   ...    0.013 sec
Threshold for overlap eigenvalues          ... 1.000e-08
Number of eigenvalues below threshold      ... 0
Time for construction of square roots      ...    0.005 sec
Total time needed                          ...    0.018 sec

--------------------------------
INITIAL GUESS: MINIMAL BASIS EHT
--------------------------------
The minimal basis has 122 functions
EHT matrix was diagonalized
Basis set overlap was calculated now projecting the orbitals
Using GuessMode=FMatrix for the initial guess
C*T matrix was formed
Effective Fockian was calculated
Effective Fockian was diagonalized
Initial density was built
                      ------------------
                      INITIAL GUESS DONE
                      ------------------
-------------------
DFT GRID GENERATION
-------------------

General Integration Accuracy     IntAcc      ... 4.159
Radial Grid Type                 RadialGrid  ... OptM3 with GC (2021)
Angular Grid (max. ang.)         AngularGrid ... 3 (Lebedev-194)
Angular grid pruning method      GridPruning ... 4 (adaptive)
Weight generation scheme         WeightScheme... Becke
Basis function cutoff            BFCut       ... 1.0000e-11
Integration weight cutoff        WCut        ... 1.0000e-14
Angular grids for H and He will be reduced by one unit
Partially contracted basis set               ... off
Rotationally invariant grid construction     ... off

Total number of grid points                  ...    90026
Total number of batches                      ...     1428
Average number of points per batch           ...       63
Average number of grid points per atom       ...     2369
Time for grid setup =    1.392 sec

--------------------
COSX GRID GENERATION
--------------------

GRIDX 1
-------
General Integration Accuracy     IntAcc      ... 3.816
Radial Grid Type                 RadialGrid  ... OptM3 with GC (2021)
Angular Grid (max. ang.)         AngularGrid ... 1 (Lebedev-50)
Angular grid pruning method      GridPruning ... 4 (adaptive)
Weight generation scheme         WeightScheme... Becke
Basis function cutoff            BFCut       ... 1.0000e-11
Integration weight cutoff        WCut        ... 1.0000e-14
Angular grids for H and He will be reduced by one unit
Partially contracted basis set               ... on
Rotationally invariant grid construction     ... off

Total number of grid points                  ...    22485
Total number of batches                      ...      371
Average number of points per batch           ...       60
Average number of grid points per atom       ...      592
UseSFitting                                  ... on

GRIDX 2
-------
General Integration Accuracy     IntAcc      ... 4.020
Radial Grid Type                 RadialGrid  ... OptM3 with GC (2021)
Angular Grid (max. ang.)         AngularGrid ... 2 (Lebedev-110)
Angular grid pruning method      GridPruning ... 4 (adaptive)
Weight generation scheme         WeightScheme... Becke
Basis function cutoff            BFCut       ... 1.0000e-11
Integration weight cutoff        WCut        ... 1.0000e-14
Angular grids for H and He will be reduced by one unit
Partially contracted basis set               ... on
Rotationally invariant grid construction     ... off

Total number of grid points                  ...    48266
Total number of batches                      ...      770
Average number of points per batch           ...       62
Average number of grid points per atom       ...     1270
UseSFitting                                  ... on

GRIDX 3
-------
General Integration Accuracy     IntAcc      ... 4.338
Radial Grid Type                 RadialGrid  ... OptM3 with GC (2021)
Angular Grid (max. ang.)         AngularGrid ... 3 (Lebedev-194)
Angular grid pruning method      GridPruning ... 4 (adaptive)
Weight generation scheme         WeightScheme... Becke
Basis function cutoff            BFCut       ... 1.0000e-11
Integration weight cutoff        WCut        ... 1.0000e-14
Angular grids for H and He will be reduced by one unit
Partially contracted basis set               ... on
Rotationally invariant grid construction     ... off

Total number of grid points                  ...   104522
Total number of batches                      ...     1652
Average number of points per batch           ...       63
Average number of grid points per atom       ...     2751
UseSFitting                                  ... on

Time for X-Grid setup             =    3.424 sec

--------------
SCF ITERATIONS
--------------
ITER       Energy         Delta-E        Max-DP      RMS-DP      [F,P]     Damp
               ***  Starting incremental Fock matrix formation  ***
  0   -975.7781086871   0.000000000000 3.09256766  0.03363153  5.2376972 0.7000
  1   -976.2011111807  -0.423002493582 4.17892157  0.03150218  3.8934430 0.7000
  2   -977.6031286593  -1.402017478627 1.38353649  0.01287050  2.7129812 0.7000
  3   -980.2452140834  -2.642085424084 0.89716859  0.00899852  1.9620764 0.7000
  4   -982.7141612087  -2.468947125345 0.61359290  0.00632431  1.3720227 0.7000
  5   -984.4169216502  -1.702760441437 0.44174630  0.00449729  0.9588048 0.7000
  6   -985.6294551573  -1.212533507107 0.31928199  0.00322039  0.6740611 0.7000
  7   -986.4954214524  -0.865966295134 0.22802766  0.00230371  0.4755537 0.7000
  8   -987.1100506958  -0.614629243379 0.16108836  0.00164069  0.3353551 0.7000
  9   -987.5446423409  -0.434591645161 0.11306102  0.00116394  0.2358949 0.7000
                               ***Turning on DIIS***
 10   -987.8512035186  -0.306561177614 0.07911975  0.00082401  0.1655170 0.7000
 11   -988.0670579268  -0.215854408272 0.05546058  0.00058962  0.1159623 0.7000
 12   -988.2188582505  -0.151800323651 0.12858036  0.00140019  0.0811255 0.0000
 13   -988.5756357989  -0.356777548451 0.00338514  0.00005777  0.0013576 0.0000
 14   -988.5757451441  -0.000109345138 0.00317039  0.00004206  0.0011041 0.0000
 15   -988.5757900370  -0.000044892876 0.00362050  0.00004331  0.0008134 0.0000
               *** Restarting incremental Fock matrix formation ***
                                   *** Resetting DIIS ***
 16   -988.5756903607   0.000099676245 0.00207945  0.00003447  0.0004400 0.0000
 17   -988.5756939255  -0.000003564746 0.00106222  0.00000995  0.0006229 0.0000
 18   -988.5756963274  -0.000002401905 0.00087923  0.00000696  0.0002616 0.0000
 19   -988.5756971578  -0.000000830399 0.00030731  0.00000326  0.0001019 0.0000
 20   -988.5756973550  -0.000000197226 0.00031048  0.00000246  0.0000583 0.0000
 21   -988.5756974300  -0.000000074994 0.00008228  0.00000084  0.0000207 0.0000
 22   -988.5756974319  -0.000000001879 0.00004920  0.00000039  0.0000090 0.0000
 23   -988.5756974309   0.000000000982 0.00000725  0.00000009  0.0000048 0.0000
 24   -988.5756974203   0.000000010541 0.00000755  0.00000005  0.0000023 0.0000
 25   -988.5756974265  -0.000000006127 0.00000420  0.00000004  0.0000021 0.0000
                            ***DIIS convergence achieved***

               *****************************************************
               *                     SUCCESS                       *
               *           SCF CONVERGED AFTER  26 CYCLES          *
               *****************************************************

Old exchange energy                            =    -52.717788622 Eh
New exchange energy                            =    -52.717648036 Eh
Exchange energy change after final integration =      0.000140586 Eh
Total energy after final integration           =   -988.575556837 Eh
Final COS-X integration done in                =    40.851 sec

----------------
TOTAL SCF ENERGY
----------------

Total Energy       :         -988.57555684 Eh          -26900.50850 eV

Components:
Nuclear Repulsion  :         1733.31648306 Eh           47165.93937 eV
Electronic Energy  :        -2721.89203989 Eh          -74066.44787 eV
One Electron Energy:        -4848.65277467 Eh         -131938.54963 eV
Two Electron Energy:         2126.76073478 Eh           57872.10175 eV
Max COSX asymmetry :            0.00002929 Eh               0.00080 eV

Virial components:
Potential Energy   :        -1890.70233512 Eh          -51448.62614 eV
Kinetic Energy     :          902.12677828 Eh           24548.11764 eV
Virial Ratio       :            2.09582775


DFT components:
N(Alpha)           :       77.000293547394 electrons
N(Beta)            :       77.000293547394 electrons
N(Total)           :      154.000587094788 electrons
E(X)               :      -70.290793987420 Eh       
E(C)               :       -6.924977204988 Eh       
E(XC)              :      -77.215771192407 Eh       
DFET-embed. en.    :        0.000000000000 Eh       

---------------
SCF CONVERGENCE
---------------

  Last Energy change         ...    3.1536e-09  Tolerance :   1.0000e-08
  Last MAX-Density change    ...    0.0000e+00  Tolerance :   1.0000e-07
  Last RMS-Density change    ...    0.0000e+00  Tolerance :   5.0000e-09
  Last DIIS Error            ...    7.2314e-07  Tolerance :   5.0000e-07

             **** THE GBW FILE WAS UPDATED (10_22_orca.gbw) ****
             **** DENSITY 10_22_orca.scfp WAS UPDATED ****
             **** ENERGY FILE WAS UPDATED (10_22_orca.en.tmp) ****
             **** THE GBW FILE WAS UPDATED (10_22_orca.gbw) ****
             **** DENSITY 10_22_orca.scfp WAS UPDATED ****
----------------
ORBITAL ENERGIES
----------------

  NO   OCC          E(Eh)            E(eV) 
   0   2.0000     -19.561757      -532.3025 
   1   2.0000     -19.554831      -532.1140 
   2   2.0000     -19.430292      -528.7251 
   3   2.0000     -19.401514      -527.9420 
   4   2.0000     -14.710091      -400.2819 
   5   2.0000     -10.632348      -289.3209 
   6   2.0000     -10.504962      -285.8546 
   7   2.0000     -10.481208      -285.2082 
   8   2.0000     -10.476486      -285.0797 
   9   2.0000     -10.471917      -284.9554 
  10   2.0000     -10.458148      -284.5807 
  11   2.0000     -10.441684      -284.1327 
  12   2.0000     -10.438358      -284.0422 
  13   2.0000     -10.437211      -284.0110 
  14   2.0000     -10.437127      -284.0087 
  15   2.0000     -10.435612      -283.9674 
  16   2.0000     -10.432459      -283.8816 
  17   2.0000     -10.398889      -282.9681 
  18   2.0000      -3.638266       -99.0022 
  19   2.0000      -2.284344       -62.1602 
  20   2.0000      -2.281330       -62.0781 
  21   2.0000      -2.250921       -61.2507 
  22   2.0000      -1.259290       -34.2670 
  23   2.0000      -1.172548       -31.9067 
  24   2.0000      -1.115183       -30.3457 
  25   2.0000      -1.068211       -29.0675 
  26   2.0000      -1.017335       -27.6831 
  27   2.0000      -0.949712       -25.8430 
  28   2.0000      -0.878401       -23.9025 
  29   2.0000      -0.864699       -23.5297 
  30   2.0000      -0.823174       -22.3997 
  31   2.0000      -0.803456       -21.8632 
  32   2.0000      -0.778657       -21.1883 
  33   2.0000      -0.773860       -21.0578 
  34   2.0000      -0.731325       -19.9004 
  35   2.0000      -0.700692       -19.0668 
  36   2.0000      -0.671971       -18.2853 
  37   2.0000      -0.644447       -17.5363 
  38   2.0000      -0.635098       -17.2819 
  39   2.0000      -0.581897       -15.8342 
  40   2.0000      -0.577503       -15.7147 
  41   2.0000      -0.576381       -15.6841 
  42   2.0000      -0.559610       -15.2278 
  43   2.0000      -0.557888       -15.1809 
  44   2.0000      -0.553656       -15.0657 
  45   2.0000      -0.532123       -14.4798 
  46   2.0000      -0.514968       -14.0130 
  47   2.0000      -0.509373       -13.8607 
  48   2.0000      -0.494613       -13.4591 
  49   2.0000      -0.492682       -13.4065 
  50   2.0000      -0.484689       -13.1891 
  51   2.0000      -0.472786       -12.8652 
  52   2.0000      -0.467615       -12.7244 
  53   2.0000      -0.464132       -12.6297 
  54   2.0000      -0.460300       -12.5254 
  55   2.0000      -0.456290       -12.4163 
  56   2.0000      -0.449517       -12.2320 
  57   2.0000      -0.440437       -11.9849 
  58   2.0000      -0.430813       -11.7230 
  59   2.0000      -0.424345       -11.5470 
  60   2.0000      -0.420275       -11.4363 
  61   2.0000      -0.411736       -11.2039 
  62   2.0000      -0.410950       -11.1825 
  63   2.0000      -0.404347       -11.0028 
  64   2.0000      -0.389324       -10.5940 
  65   2.0000      -0.385725       -10.4961 
  66   2.0000      -0.371242       -10.1020 
  67   2.0000      -0.358827        -9.7642 
  68   2.0000      -0.341137        -9.2828 
  69   2.0000      -0.335969        -9.1422 
  70   2.0000      -0.317176        -8.6308 
  71   2.0000      -0.284738        -7.7481 
  72   2.0000      -0.281277        -7.6539 
  73   2.0000      -0.278050        -7.5661 
  74   2.0000      -0.274015        -7.4563 
  75   2.0000      -0.261175        -7.1069 
  76   2.0000      -0.254051        -6.9131 
  77   0.0000      -0.023950        -0.6517 
  78   0.0000      -0.013712        -0.3731 
  79   0.0000       0.018274         0.4973 
  80   0.0000       0.029430         0.8008 
  81   0.0000       0.047607         1.2954 
  82   0.0000       0.078930         2.1478 
  83   0.0000       0.094369         2.5679 
  84   0.0000       0.105078         2.8593 
  85   0.0000       0.120467         3.2781 
  86   0.0000       0.143743         3.9115 
  87   0.0000       0.148125         4.0307 
  88   0.0000       0.163663         4.4535 
  89   0.0000       0.168125         4.5749 
  90   0.0000       0.175429         4.7737 
  91   0.0000       0.179518         4.8849 
  92   0.0000       0.189586         5.1589 
  93   0.0000       0.193947         5.2776 
  94   0.0000       0.196957         5.3595 
  95   0.0000       0.200458         5.4547 
  96   0.0000       0.204008         5.5513 
  97   0.0000       0.214339         5.8325 
  98   0.0000       0.217677         5.9233 
  99   0.0000       0.226384         6.1602 
 100   0.0000       0.231384         6.2963 
 101   0.0000       0.234504         6.3812 
 102   0.0000       0.240209         6.5364 
 103   0.0000       0.244414         6.6509 
 104   0.0000       0.251177         6.8349 
 105   0.0000       0.256216         6.9720 
 106   0.0000       0.262151         7.1335 
 107   0.0000       0.267738         7.2855 
 108   0.0000       0.281026         7.6471 
 109   0.0000       0.286780         7.8037 
 110   0.0000       0.297956         8.1078 
 111   0.0000       0.300817         8.1856 
 112   0.0000       0.313330         8.5261 
 113   0.0000       0.336293         9.1510 
 114   0.0000       0.342641         9.3237 
 115   0.0000       0.349218         9.5027 
 116   0.0000       0.357046         9.7157 
 117   0.0000       0.367993        10.0136 
 118   0.0000       0.402242        10.9456 
 119   0.0000       0.414649        11.2832 
 120   0.0000       0.440723        11.9927 
 121   0.0000       0.453198        12.3322 
 122   0.0000       0.462971        12.5981 
 123   0.0000       0.478105        13.0099 
 124   0.0000       0.488119        13.2824 
 125   0.0000       0.490204        13.3391 
 126   0.0000       0.508846        13.8464 
 127   0.0000       0.525070        14.2879 
 128   0.0000       0.535305        14.5664 
 129   0.0000       0.541477        14.7343 
 130   0.0000       0.547021        14.8852 
 131   0.0000       0.552394        15.0314 
 132   0.0000       0.562394        15.3035 
 133   0.0000       0.571420        15.5491 
 134   0.0000       0.574136        15.6230 
 135   0.0000       0.580004        15.7827 
 136   0.0000       0.591267        16.0892 
 137   0.0000       0.601921        16.3791 
 138   0.0000       0.608611        16.5611 
 139   0.0000       0.615915        16.7599 
 140   0.0000       0.622706        16.9447 
 141   0.0000       0.624309        16.9883 
 142   0.0000       0.627613        17.0782 
 143   0.0000       0.634813        17.2741 
 144   0.0000       0.644245        17.5308 
 145   0.0000       0.648516        17.6470 
 146   0.0000       0.651614        17.7313 
 147   0.0000       0.668684        18.1958 
 148   0.0000       0.676641        18.4123 
 149   0.0000       0.684762        18.6333 
 150   0.0000       0.702094        19.1050 
 151   0.0000       0.710378        19.3304 
 152   0.0000       0.718760        19.5584 
 153   0.0000       0.722408        19.6577 
 154   0.0000       0.733656        19.9638 
 155   0.0000       0.756514        20.5858 
 156   0.0000       0.769730        20.9454 
 157   0.0000       0.780596        21.2411 
 158   0.0000       0.784227        21.3399 
 159   0.0000       0.813043        22.1240 
 160   0.0000       0.816936        22.2300 
 161   0.0000       0.832163        22.6443 
 162   0.0000       0.839035        22.8313 
 163   0.0000       0.868638        23.6368 
 164   0.0000       0.885157        24.0863 
 165   0.0000       0.897391        24.4193 
 166   0.0000       0.903963        24.5981 
 167   0.0000       0.922810        25.1109 
 168   0.0000       0.939539        25.5662 
 169   0.0000       0.954303        25.9679 
 170   0.0000       0.957577        26.0570 
 171   0.0000       0.965703        26.2781 
 172   0.0000       0.974859        26.5273 
 173   0.0000       0.977561        26.6008 
 174   0.0000       0.991557        26.9816 
 175   0.0000       0.999525        27.1985 
 176   0.0000       1.007584        27.4178 
 177   0.0000       1.008294        27.4371 
 178   0.0000       1.019510        27.7423 
 179   0.0000       1.026915        27.9438 
 180   0.0000       1.029422        28.0120 
 181   0.0000       1.037191        28.2234 
 182   0.0000       1.050768        28.5929 
 183   0.0000       1.058041        28.7908 
 184   0.0000       1.063199        28.9311 
 185   0.0000       1.068285        29.0695 
 186   0.0000       1.079247        29.3678 
 187   0.0000       1.082644        29.4603 
 188   0.0000       1.092138        29.7186 
 189   0.0000       1.096008        29.8239 
 190   0.0000       1.102353        29.9966 
 191   0.0000       1.106472        30.1086 
 192   0.0000       1.131998        30.8032 
 193   0.0000       1.140773        31.0420 
 194   0.0000       1.143162        31.1070 
 195   0.0000       1.154570        31.4175 
 196   0.0000       1.171370        31.8746 
 197   0.0000       1.174093        31.9487 
 198   0.0000       1.192332        32.4450 
 199   0.0000       1.209124        32.9019 
 200   0.0000       1.238538        33.7023 
 201   0.0000       1.248687        33.9785 
 202   0.0000       1.261870        34.3372 
 203   0.0000       1.266897        34.4740 
 204   0.0000       1.270751        34.5789 
 205   0.0000       1.290873        35.1265 
 206   0.0000       1.313765        35.7494 
 207   0.0000       1.317836        35.8602 
 208   0.0000       1.331613        36.2350 
 209   0.0000       1.351183        36.7676 
 210   0.0000       1.356161        36.9030 
 211   0.0000       1.383753        37.6538 
 212   0.0000       1.421455        38.6798 
 213   0.0000       1.430324        38.9211 
 214   0.0000       1.440760        39.2051 
 215   0.0000       1.464742        39.8577 
 216   0.0000       1.481040        40.3011 
 217   0.0000       1.513821        41.1932 
 218   0.0000       1.523273        41.4504 
 219   0.0000       1.536817        41.8189 
 220   0.0000       1.557365        42.3781 
 221   0.0000       1.568452        42.6797 
 222   0.0000       1.582014        43.0488 
 223   0.0000       1.591486        43.3065 
 224   0.0000       1.597634        43.4738 
 225   0.0000       1.619387        44.0657 
 226   0.0000       1.626662        44.2637 
 227   0.0000       1.685488        45.8644 
 228   0.0000       1.721706        46.8500 
 229   0.0000       1.760089        47.8944 
 230   0.0000       1.771981        48.2180 
 231   0.0000       1.781423        48.4750 
 232   0.0000       1.803826        49.0846 
 233   0.0000       1.815063        49.3904 
 234   0.0000       1.841159        50.1005 
 235   0.0000       1.851551        50.3833 
 236   0.0000       1.862338        50.6768 
 237   0.0000       1.863169        50.6994 
 238   0.0000       1.883391        51.2497 
 239   0.0000       1.894889        51.5626 
 240   0.0000       1.942368        52.8545 
 241   0.0000       1.946727        52.9731 
 242   0.0000       1.951064        53.0912 
 243   0.0000       1.959760        53.3278 
 244   0.0000       1.962954        53.4147 
 245   0.0000       1.976232        53.7760 
 246   0.0000       1.983846        53.9832 
 247   0.0000       1.999676        54.4140 
 248   0.0000       2.001581        54.4658 
 249   0.0000       2.028574        55.2003 
 250   0.0000       2.035007        55.3754 
 251   0.0000       2.045330        55.6563 
 252   0.0000       2.052495        55.8512 
 253   0.0000       2.057607        55.9903 
 254   0.0000       2.062510        56.1238 
 255   0.0000       2.090150        56.8759 
 256   0.0000       2.098799        57.1112 
 257   0.0000       2.111739        57.4633 
 258   0.0000       2.140331        58.2414 
 259   0.0000       2.151108        58.5346 
 260   0.0000       2.158705        58.7413 
 261   0.0000       2.171686        59.0946 
 262   0.0000       2.176259        59.2190 
 263   0.0000       2.197295        59.7914 
 264   0.0000       2.214220        60.2520 
 265   0.0000       2.219313        60.3906 
 266   0.0000       2.225740        60.5655 
 267   0.0000       2.240194        60.9588 
 268   0.0000       2.244940        61.0879 
 269   0.0000       2.252577        61.2957 
 270   0.0000       2.255685        61.3803 
 271   0.0000       2.279773        62.0358 
 272   0.0000       2.298265        62.5390 
 273   0.0000       2.318665        63.0941 
 274   0.0000       2.323691        63.2308 
 275   0.0000       2.340510        63.6885 
 276   0.0000       2.350015        63.9472 
 277   0.0000       2.361367        64.2561 
 278   0.0000       2.372944        64.5711 
 279   0.0000       2.395317        65.1799 
 280   0.0000       2.405818        65.4656 
 281   0.0000       2.428640        66.0867 
 282   0.0000       2.435852        66.2829 
 283   0.0000       2.462439        67.0064 
 284   0.0000       2.473622        67.3107 
 285   0.0000       2.497495        67.9603 
 286   0.0000       2.501845        68.0787 
 287   0.0000       2.511036        68.3288 
 288   0.0000       2.514328        68.4184 
 289   0.0000       2.519449        68.5577 
 290   0.0000       2.533809        68.9484 
 291   0.0000       2.545071        69.2549 
 292   0.0000       2.584025        70.3149 
 293   0.0000       2.615071        71.1597 
 294   0.0000       2.622860        71.3716 
 295   0.0000       2.644170        71.9515 
 296   0.0000       2.676135        72.8213 
 297   0.0000       2.705915        73.6317 
 298   0.0000       2.730407        74.2981 
 299   0.0000       2.748377        74.7871 
 300   0.0000       2.757421        75.0332 
 301   0.0000       2.778079        75.5954 
 302   0.0000       2.786236        75.8173 
 303   0.0000       2.796268        76.0903 
 304   0.0000       2.818980        76.7084 
 305   0.0000       2.829604        76.9974 
 306   0.0000       2.835868        77.1679 
 307   0.0000       2.862470        77.8918 
 308   0.0000       2.893032        78.7234 
 309   0.0000       2.921461        79.4970 
 310   0.0000       2.934103        79.8410 
 311   0.0000       2.944115        80.1134 
 312   0.0000       2.960536        80.5603 
 313   0.0000       3.052181        83.0541 
 314   0.0000       3.075028        83.6758 
 315   0.0000       3.096545        84.2613 
 316   0.0000       3.111932        84.6800 
 317   0.0000       3.180994        86.5592 
 318   0.0000       3.268985        88.9536 
 319   0.0000       3.483215        94.7831 
 320   0.0000      13.315778       362.3407 
 321   0.0000      13.619906       370.6165 
 322   0.0000      13.660365       371.7174 
 323   0.0000      13.722805       373.4165 
 324   0.0000      13.734141       373.7250 
 325   0.0000      13.742355       373.9485 
 326   0.0000      13.887611       377.9011 
 327   0.0000      14.017718       381.4415 
 328   0.0000      14.039435       382.0324 
 329   0.0000      14.145740       384.9251 
 330   0.0000      14.159386       385.2965 
 331   0.0000      14.196161       386.2972 
 332   0.0000      14.570290       396.4778 
 333   0.0000      19.393868       527.7340 
 334   0.0000      25.559231       695.5020 
 335   0.0000      25.717375       699.8054 
 336   0.0000      25.753633       700.7920 
 337   0.0000      25.825963       702.7602 
 338   0.0000      51.700503      1406.8422 

                    ********************************
                    * MULLIKEN POPULATION ANALYSIS *
                    ********************************

-----------------------
MULLIKEN ATOMIC CHARGES
-----------------------
   0 Pd:    0.359735
   1 O :   -0.367822
   2 C :    0.625591
   3 O :   -0.596349
   4 C :   -0.727581
   5 H :    0.244584
   6 H :    0.288200
   7 H :    0.274868
   8 N :   -0.477929
   9 C :   -0.540440
  10 H :    0.319967
  11 H :    0.205258
  12 H :    0.274669
  13 C :   -0.510077
  14 H :    0.262782
  15 H :    0.218158
  16 H :    0.281396
  17 C :    0.095193
  18 C :   -0.277857
  19 C :   -0.234553
  20 C :   -0.213292
  21 C :   -0.309648
  22 C :   -0.091879
  23 H :    0.210470
  24 H :    0.208526
  25 H :    0.200383
  26 H :    0.211685
  27 H :    0.480666
  28 C :   -0.323979
  29 H :    0.264412
  30 H :    0.227478
  31 O :   -0.558430
  32 C :    0.533904
  33 O :   -0.485204
  34 C :   -0.742880
  35 H :    0.231403
  36 H :    0.220249
  37 H :    0.218342
Sum of atomic charges:   -0.0000000

--------------------------------
MULLIKEN REDUCED ORBITAL CHARGES
--------------------------------
  0 Pds       :     2.524322  s :     2.524322
      pz      :     2.141496  p :     6.341601
      px      :     2.106634
      py      :     2.093471
      dz2     :     1.702125  d :     8.770458
      dxz     :     1.450989
      dyz     :     1.820809
      dx2y2   :     1.976599
      dxy     :     1.819936
      f0      :     0.000586  f :     0.003885
      f+1     :     0.001128
      f-1     :     0.000361
      f+2     :     0.000330
      f-2     :     0.000797
      f+3     :     0.000258
      f-3     :     0.000425
  1 O s       :     3.789246  s :     3.789246
      pz      :     1.467493  p :     4.548674
      px      :     1.761579
      py      :     1.319602
      dz2     :     0.002980  d :     0.029902
      dxz     :     0.001234
      dyz     :     0.011163
      dx2y2   :     0.007954
      dxy     :     0.006571
  2 C s       :     2.982696  s :     2.982696
      pz      :     0.665384  p :     2.255603
      px      :     0.786785
      py      :     0.803434
      dz2     :     0.008956  d :     0.136110
      dxz     :     0.013170
      dyz     :     0.023476
      dx2y2   :     0.040538
      dxy     :     0.049969
  3 O s       :     3.794815  s :     3.794815
      pz      :     1.604268  p :     4.773600
      px      :     1.344213
      py      :     1.825119
      dz2     :     0.005573  d :     0.027934
      dxz     :     0.012143
      dyz     :     0.003615
      dx2y2   :     0.003081
      dxy     :     0.003522
  4 C s       :     3.420523  s :     3.420523
      pz      :     1.189340  p :     3.273160
      px      :     1.002979
      py      :     1.080841
      dz2     :     0.006561  d :     0.033898
      dxz     :     0.006428
      dyz     :     0.006002
      dx2y2   :     0.004484
      dxy     :     0.010423
  5 H s       :     0.755416  s :     0.755416
  6 H s       :     0.711800  s :     0.711800
  7 H s       :     0.725132  s :     0.725132
  8 N s       :     3.597324  s :     3.597324
      pz      :     1.217166  p :     3.830599
      px      :     1.338784
      py      :     1.274649
      dz2     :     0.009933  d :     0.050007
      dxz     :     0.012020
      dyz     :     0.009303
      dx2y2   :     0.011445
      dxy     :     0.007306
  9 C s       :     3.376462  s :     3.376462
      pz      :     1.192540  p :     3.116124
      px      :     1.137219
      py      :     0.786364
      dz2     :     0.006602  d :     0.047854
      dxz     :     0.010359
      dyz     :     0.009332
      dx2y2   :     0.010464
      dxy     :     0.011098
 10 H s       :     0.680033  s :     0.680033
 11 H s       :     0.794742  s :     0.794742
 12 H s       :     0.725331  s :     0.725331
 13 C s       :     3.357988  s :     3.357988
      pz      :     0.899494  p :     3.103346
      px      :     1.111032
      py      :     1.092820
      dz2     :     0.010686  d :     0.048743
      dxz     :     0.013691
      dyz     :     0.007900
      dx2y2   :     0.010349
      dxy     :     0.006117
 14 H s       :     0.737218  s :     0.737218
 15 H s       :     0.781842  s :     0.781842
 16 H s       :     0.718604  s :     0.718604
 17 C s       :     3.149921  s :     3.149921
      pz      :     0.880381  p :     2.707943
      px      :     0.888823
      py      :     0.938739
      dz2     :     0.011702  d :     0.046944
      dxz     :     0.012701
      dyz     :     0.008446
      dx2y2   :     0.006900
      dxy     :     0.007194
 18 C s       :     3.277694  s :     3.277694
      pz      :     0.924891  p :     2.959602
      px      :     1.019644
      py      :     1.015067
      dz2     :     0.011446  d :     0.040562
      dxz     :     0.009998
      dyz     :     0.009029
      dx2y2   :     0.003269
      dxy     :     0.006819
 19 C s       :     3.248599  s :     3.248599
      pz      :     0.974531  p :     2.945858
      px      :     0.975702
      py      :     0.995625
      dz2     :     0.009442  d :     0.040096
      dxz     :     0.010479
      dyz     :     0.009383
      dx2y2   :     0.004937
      dxy     :     0.005856
 20 C s       :     3.237464  s :     3.237464
      pz      :     1.019714  p :     2.935251
      px      :     0.956358
      py      :     0.959180
      dz2     :     0.012446  d :     0.040577
      dxz     :     0.008591
      dyz     :     0.006463
      dx2y2   :     0.006992
      dxy     :     0.006084
 21 C s       :     3.283187  s :     3.283187
      pz      :     0.934487  p :     2.985457
      px      :     1.023382
      py      :     1.027588
      dz2     :     0.011376  d :     0.041003
      dxz     :     0.010741
      dyz     :     0.009243
      dx2y2   :     0.002663
      dxy     :     0.006980
 22 C s       :     3.302249  s :     3.302249
      pz      :     0.934999  p :     2.747591
      px      :     0.903506
      py      :     0.909086
      dz2     :     0.013210  d :     0.042039
      dxz     :     0.009132
      dyz     :     0.007115
      dx2y2   :     0.005934
      dxy     :     0.006648
 23 H s       :     0.789530  s :     0.789530
 24 H s       :     0.791474  s :     0.791474
 25 H s       :     0.799617  s :     0.799617
 26 H s       :     0.788315  s :     0.788315
 27 H s       :     0.519334  s :     0.519334
 28 C s       :     3.302770  s :     3.302770
      pz      :     0.887383  p :     2.963783
      px      :     0.900906
      py      :     1.175493
      dz2     :     0.014325  d :     0.057426
      dxz     :     0.015442
      dyz     :     0.005934
      dx2y2   :     0.006316
      dxy     :     0.015409
 29 H s       :     0.735588  s :     0.735588
 30 H s       :     0.772522  s :     0.772522
 31 O s       :     3.795859  s :     3.795859
      pz      :     1.567138  p :     4.740659
      px      :     1.540557
      py      :     1.632964
      dz2     :     0.003383  d :     0.021912
      dxz     :     0.002844
      dyz     :     0.005323
      dx2y2   :     0.004303
      dxy     :     0.006059
 32 C s       :     2.952220  s :     2.952220
      pz      :     0.776117  p :     2.368175
      px      :     0.777542
      py      :     0.814516
      dz2     :     0.017372  d :     0.145701
      dxz     :     0.012259
      dyz     :     0.040052
      dx2y2   :     0.034133
      dxy     :     0.041885
 33 O s       :     3.770110  s :     3.770110
      pz      :     1.643237  p :     4.688090
      px      :     1.654929
      py      :     1.389925
      dz2     :     0.003097  d :     0.027004
      dxz     :     0.000581
      dyz     :     0.008028
      dx2y2   :     0.007718
      dxy     :     0.007579
 34 C s       :     3.406085  s :     3.406085
      pz      :     1.072686  p :     3.302887
      px      :     1.090635
      py      :     1.139566
      dz2     :     0.001899  d :     0.033908
      dxz     :     0.009043
      dyz     :     0.011328
      dx2y2   :     0.004319
      dxy     :     0.007319
 35 H s       :     0.768597  s :     0.768597
 36 H s       :     0.779751  s :     0.779751
 37 H s       :     0.781658  s :     0.781658


                     *******************************
                     * LOEWDIN POPULATION ANALYSIS *
                     *******************************

----------------------
LOEWDIN ATOMIC CHARGES
----------------------
   0 Pd:   -0.412767
   1 O :   -0.030136
   2 C :    0.224753
   3 O :   -0.285576
   4 C :   -0.366788
   5 H :    0.153688
   6 H :    0.178574
   7 H :    0.166645
   8 N :   -0.028664
   9 C :   -0.236074
  10 H :    0.175282
  11 H :    0.115138
  12 H :    0.155843
  13 C :   -0.227334
  14 H :    0.149436
  15 H :    0.120917
  16 H :    0.158995
  17 C :   -0.062735
  18 C :   -0.136211
  19 C :   -0.142893
  20 C :   -0.136328
  21 C :   -0.130291
  22 C :   -0.027344
  23 H :    0.132256
  24 H :    0.138262
  25 H :    0.131305
  26 H :    0.133353
  27 H :    0.363035
  28 C :   -0.106452
  29 H :    0.151557
  30 H :    0.128147
  31 O :   -0.259096
  32 C :    0.100551
  33 O :   -0.302300
  34 C :   -0.394556
  35 H :    0.137181
  36 H :    0.139173
  37 H :    0.131454

-------------------------------
LOEWDIN REDUCED ORBITAL CHARGES
-------------------------------
  0 Pds       :     2.522045  s :     2.522045
      pz      :     2.311435  p :     6.739515
      px      :     2.241744
      py      :     2.186337
      dz2     :     1.776288  d :     9.145893
      dxz     :     1.564654
      dyz     :     1.884814
      dx2y2   :     2.011789
      dxy     :     1.908349
      f0      :     0.000791  f :     0.005314
      f+1     :     0.001515
      f-1     :     0.000455
      f+2     :     0.000426
      f-2     :     0.001149
      f+3     :     0.000352
      f-3     :     0.000625
  1 O s       :     3.430109  s :     3.430109
      pz      :     1.434562  p :     4.538577
      px      :     1.699099
      py      :     1.404915
      dz2     :     0.006473  d :     0.061450
      dxz     :     0.002063
      dyz     :     0.016739
      dx2y2   :     0.020834
      dxy     :     0.015341
  2 C s       :     2.818167  s :     2.818167
      pz      :     0.710539  p :     2.656542
      px      :     0.949041
      py      :     0.996962
      dz2     :     0.020240  d :     0.300538
      dxz     :     0.028335
      dyz     :     0.048555
      dx2y2   :     0.086608
      dxy     :     0.116801
  3 O s       :     3.467306  s :     3.467306
      pz      :     1.595849  p :     4.767722
      px      :     1.371851
      py      :     1.800022
      dz2     :     0.007610  d :     0.050548
      dxz     :     0.019988
      dyz     :     0.005110
      dx2y2   :     0.008901
      dxy     :     0.008938
  4 C s       :     2.959483  s :     2.959483
      pz      :     1.151741  p :     3.343738
      px      :     1.086384
      py      :     1.105613
      dz2     :     0.011333  d :     0.063567
      dxz     :     0.011621
      dyz     :     0.010182
      dx2y2   :     0.009429
      dxy     :     0.021003
  5 H s       :     0.846312  s :     0.846312
  6 H s       :     0.821426  s :     0.821426
  7 H s       :     0.833355  s :     0.833355
  8 N s       :     3.091434  s :     3.091434
      pz      :     1.227269  p :     3.826375
      px      :     1.323144
      py      :     1.275963
      dz2     :     0.021952  d :     0.110855
      dxz     :     0.027358
      dyz     :     0.021422
      dx2y2   :     0.023423
      dxy     :     0.016699
  9 C s       :     2.949363  s :     2.949363
      pz      :     1.157055  p :     3.194683
      px      :     1.131885
      py      :     0.905744
      dz2     :     0.011663  d :     0.092028
      dxz     :     0.016831
      dyz     :     0.018850
      dx2y2   :     0.021725
      dxy     :     0.022959
 10 H s       :     0.824718  s :     0.824718
 11 H s       :     0.884862  s :     0.884862
 12 H s       :     0.844157  s :     0.844157
 13 C s       :     2.944172  s :     2.944172
      pz      :     0.976962  p :     3.189278
      px      :     1.113826
      py      :     1.098491
      dz2     :     0.021973  d :     0.093884
      dxz     :     0.026638
      dyz     :     0.016727
      dx2y2   :     0.018115
      dxy     :     0.010431
 14 H s       :     0.850564  s :     0.850564
 15 H s       :     0.879083  s :     0.879083
 16 H s       :     0.841005  s :     0.841005
 17 C s       :     2.831004  s :     2.831004
      pz      :     1.037441  p :     3.115240
      px      :     1.052556
      py      :     1.025242
      dz2     :     0.031077  d :     0.116491
      dxz     :     0.032046
      dyz     :     0.020559
      dx2y2   :     0.014474
      dxy     :     0.018335
 18 C s       :     2.882244  s :     2.882244
      pz      :     1.083447  p :     3.160998
      px      :     1.045178
      py      :     1.032372
      dz2     :     0.029815  d :     0.092970
      dxz     :     0.024261
      dyz     :     0.021239
      dx2y2   :     0.005634
      dxy     :     0.012021
 19 C s       :     2.889984  s :     2.889984
      pz      :     1.077266  p :     3.161763
      px      :     1.050174
      py      :     1.034323
      dz2     :     0.023292  d :     0.091146
      dxz     :     0.024839
      dyz     :     0.020543
      dx2y2   :     0.009748
      dxy     :     0.012725
 20 C s       :     2.888316  s :     2.888316
      pz      :     1.073710  p :     3.155637
      px      :     1.048922
      py      :     1.033005
      dz2     :     0.026751  d :     0.092375
      dxz     :     0.020377
      dyz     :     0.015304
      dx2y2   :     0.014594
      dxy     :     0.015348
 21 C s       :     2.876539  s :     2.876539
      pz      :     1.090419  p :     3.160198
      px      :     1.038557
      py      :     1.031222
      dz2     :     0.029896  d :     0.093554
      dxz     :     0.025699
      dyz     :     0.021724
      dx2y2   :     0.004314
      dxy     :     0.011923
 22 C s       :     2.877875  s :     2.877875
      pz      :     1.089562  p :     3.052332
      px      :     1.014103
      py      :     0.948667
      dz2     :     0.031536  d :     0.097137
      dxz     :     0.023070
      dyz     :     0.015872
      dx2y2   :     0.011834
      dxy     :     0.014824
 23 H s       :     0.867744  s :     0.867744
 24 H s       :     0.861738  s :     0.861738
 25 H s       :     0.868695  s :     0.868695
 26 H s       :     0.866647  s :     0.866647
 27 H s       :     0.636965  s :     0.636965
 28 C s       :     2.885135  s :     2.885135
      pz      :     1.000363  p :     3.102468
      px      :     0.987634
      py      :     1.114471
      dz2     :     0.031027  d :     0.118849
      dxz     :     0.034932
      dyz     :     0.011527
      dx2y2   :     0.012531
      dxy     :     0.028833
 29 H s       :     0.848443  s :     0.848443
 30 H s       :     0.871853  s :     0.871853
 31 O s       :     3.466534  s :     3.466534
      pz      :     1.555852  p :     4.744535
      px      :     1.545452
      py      :     1.643231
      dz2     :     0.007098  d :     0.048028
      dxz     :     0.008828
      dyz     :     0.010541
      dx2y2   :     0.008442
      dxy     :     0.013119
 32 C s       :     2.813452  s :     2.813452
      pz      :     0.870970  p :     2.754220
      px      :     0.869728
      py      :     1.013522
      dz2     :     0.039323  d :     0.331777
      dxz     :     0.027397
      dyz     :     0.089421
      dx2y2   :     0.078919
      dxy     :     0.096718
 33 O s       :     3.512656  s :     3.512656
      pz      :     1.626677  p :     4.737063
      px      :     1.632321
      py      :     1.478065
      dz2     :     0.006364  d :     0.052581
      dxz     :     0.000934
      dyz     :     0.014390
      dx2y2   :     0.018401
      dxy     :     0.012493
 34 C s       :     2.970478  s :     2.970478
      pz      :     1.110690  p :     3.361690
      px      :     1.119274
      py      :     1.131726
      dz2     :     0.003813  d :     0.062388
      dxz     :     0.017459
      dyz     :     0.020570
      dx2y2   :     0.007482
      dxy     :     0.013063
 35 H s       :     0.862819  s :     0.862819
 36 H s       :     0.860827  s :     0.860827
 37 H s       :     0.868546  s :     0.868546


                      *****************************
                      * MAYER POPULATION ANALYSIS *
                      *****************************

  NA   - Mulliken gross atomic population
  ZA   - Total nuclear charge
  QA   - Mulliken gross atomic charge
  VA   - Mayer's total valence
  BVA  - Mayer's bonded valence
  FA   - Mayer's free valence

  ATOM       NA         ZA         QA         VA         BVA        FA
  0 Pd    17.6403    18.0000     0.3597     2.5001     2.5001    -0.0000
  1 O      8.3678     8.0000    -0.3678     2.2642     2.2642     0.0000
  2 C      5.3744     6.0000     0.6256     3.8891     3.8891     0.0000
  3 O      8.5963     8.0000    -0.5963     1.9294     1.9294    -0.0000
  4 C      6.7276     6.0000    -0.7276     3.6622     3.6622     0.0000
  5 H      0.7554     1.0000     0.2446     0.8998     0.8998    -0.0000
  6 H      0.7118     1.0000     0.2882     0.8870     0.8870    -0.0000
  7 H      0.7251     1.0000     0.2749     0.8964     0.8964     0.0000
  8 N      7.4779     7.0000    -0.4779     3.2031     3.2031    -0.0000
  9 C      6.5404     6.0000    -0.5404     3.5450     3.5450    -0.0000
 10 H      0.6800     1.0000     0.3200     0.8960     0.8960    -0.0000
 11 H      0.7947     1.0000     0.2053     0.9149     0.9149    -0.0000
 12 H      0.7253     1.0000     0.2747     0.8943     0.8943    -0.0000
 13 C      6.5101     6.0000    -0.5101     3.6249     3.6249    -0.0000
 14 H      0.7372     1.0000     0.2628     0.8959     0.8959    -0.0000
 15 H      0.7818     1.0000     0.2182     0.9079     0.9079    -0.0000
 16 H      0.7186     1.0000     0.2814     0.8944     0.8944    -0.0000
 17 C      5.9048     6.0000     0.0952     3.6982     3.6982    -0.0000
 18 C      6.2779     6.0000    -0.2779     3.8237     3.8237    -0.0000
 19 C      6.2346     6.0000    -0.2346     3.8433     3.8433    -0.0000
 20 C      6.2133     6.0000    -0.2133     3.8157     3.8157     0.0000
 21 C      6.3096     6.0000    -0.3096     3.8364     3.8364    -0.0000
 22 C      6.0919     6.0000    -0.0919     3.7340     3.7340    -0.0000
 23 H      0.7895     1.0000     0.2105     0.9132     0.9132     0.0000
 24 H      0.7915     1.0000     0.2085     0.9154     0.9154     0.0000
 25 H      0.7996     1.0000     0.2004     0.9199     0.9199     0.0000
 26 H      0.7883     1.0000     0.2117     0.9154     0.9154     0.0000
 27 H      0.5193     1.0000     0.4807     0.7515     0.7515    -0.0000
 28 C      6.3240     6.0000    -0.3240     3.6131     3.6131    -0.0000
 29 H      0.7356     1.0000     0.2644     0.8839     0.8839     0.0000
 30 H      0.7725     1.0000     0.2275     0.9125     0.9125     0.0000
 31 O      8.5584     8.0000    -0.5584     2.0550     2.0550     0.0000
 32 C      5.4661     6.0000     0.5339     4.1211     4.1211     0.0000
 33 O      8.4852     8.0000    -0.4852     2.0973     2.0973    -0.0000
 34 C      6.7429     6.0000    -0.7429     3.7061     3.7061     0.0000
 35 H      0.7686     1.0000     0.2314     0.9104     0.9104     0.0000
 36 H      0.7798     1.0000     0.2202     0.9125     0.9125     0.0000
 37 H      0.7817     1.0000     0.2183     0.9115     0.9115    -0.0000

  Mayer bond orders larger than 0.100000
B(  0-Pd,  1-O ) :   0.3437 B(  0-Pd,  8-N ) :   0.4688 B(  0-Pd, 22-C ) :   0.8872 
B(  0-Pd, 31-O ) :   0.4624 B(  1-O ,  2-C ) :   1.7970 B(  2-C ,  3-O ) :   1.0996 
B(  2-C ,  4-C ) :   0.9638 B(  3-O , 27-H ) :   0.7181 B(  4-C ,  5-H ) :   0.9019 
B(  4-C ,  6-H ) :   0.8878 B(  4-C ,  7-H ) :   0.9049 B(  8-N ,  9-C ) :   0.9077 
B(  8-N , 13-C ) :   0.9189 B(  8-N , 28-C ) :   0.8923 B(  9-C , 10-H ) :   0.8539 
B(  9-C , 11-H ) :   0.9061 B(  9-C , 12-H ) :   0.8966 B( 13-C , 14-H ) :   0.9050 
B( 13-C , 15-H ) :   0.9016 B( 13-C , 16-H ) :   0.8965 B( 17-C , 18-C ) :   1.4250 
B( 17-C , 22-C ) :   1.3114 B( 17-C , 28-C ) :   0.9677 B( 18-C , 19-C ) :   1.4136 
B( 18-C , 25-H ) :   0.9258 B( 19-C , 20-C ) :   1.4472 B( 19-C , 26-H ) :   0.9202 
B( 20-C , 21-C ) :   1.4072 B( 20-C , 23-H ) :   0.9203 B( 21-C , 22-C ) :   1.4043 
B( 21-C , 24-H ) :   0.9202 B( 28-C , 29-H ) :   0.8949 B( 28-C , 30-H ) :   0.9058 
B( 31-O , 32-C ) :   1.3686 B( 31-O , 33-O ) :   0.1051 B( 32-C , 33-O ) :   1.8391 
B( 32-C , 34-C ) :   0.9213 B( 34-C , 35-H ) :   0.9230 B( 34-C , 36-H ) :   0.9234 
B( 34-C , 37-H ) :   0.9212 


------------------
HIRSHFELD ANALYSIS
------------------

Total integrated alpha density =     77.000293549
Total integrated beta density  =     77.000293549

  ATOM     CHARGE      SPIN    
   0 Pd   0.510015    0.000000
   1 O   -0.227713    0.000000
   2 C    0.279964    0.000000
   3 O   -0.204306    0.000000
   4 C   -0.059400    0.000000
   5 H    0.045986    0.000000
   6 H    0.071742    0.000000
   7 H    0.061795    0.000000
   8 N   -0.059925    0.000000
   9 C   -0.027446    0.000000
  10 H    0.042757    0.000000
  11 H    0.027392    0.000000
  12 H    0.039704    0.000000
  13 C   -0.022970    0.000000
  14 H    0.038128    0.000000
  15 H    0.031866    0.000000
  16 H    0.049089    0.000000
  17 C   -0.036725    0.000000
  18 C   -0.056387    0.000000
  19 C   -0.054222    0.000000
  20 C   -0.051892    0.000000
  21 C   -0.072086    0.000000
  22 C   -0.148899    0.000000
  23 H    0.038810    0.000000
  24 H    0.026809    0.000000
  25 H    0.036492    0.000000
  26 H    0.042043    0.000000
  27 H    0.210585    0.000000
  28 C    0.000653    0.000000
  29 H    0.037261    0.000000
  30 H    0.035586    0.000000
  31 O   -0.399644    0.000000
  32 C    0.180661    0.000000
  33 O   -0.385780    0.000000
  34 C   -0.091336    0.000000
  35 H    0.031031    0.000000
  36 H    0.033530    0.000000
  37 H    0.026246    0.000000

  TOTAL  -0.000587    0.000000

-------
TIMINGS
-------

Total SCF time: 0 days 0 hours 6 min 47 sec 

Total time                  ....     407.593 sec
Sum of individual times     ....     407.181 sec  ( 99.9%)

Fock matrix formation       ....     400.836 sec  ( 98.3%)
  Split-RI-J                ....      40.094 sec  ( 10.0% of F)
  Chain of spheres X        ....     333.272 sec  ( 83.1% of F)
  XC integration            ....      27.372 sec  (  6.8% of F)
    Basis function eval.    ....      11.462 sec  ( 41.9% of XC)
    Density eval.           ....       6.654 sec  ( 24.3% of XC)
    XC-Functional eval.     ....       2.101 sec  (  7.7% of XC)
    XC-Potential eval.      ....       6.209 sec  ( 22.7% of XC)
Diagonalization             ....       0.390 sec  (  0.1%)
Density matrix formation    ....       0.056 sec  (  0.0%)
Population analysis         ....       0.881 sec  (  0.2%)
Initial guess               ....       0.047 sec  (  0.0%)
Orbital Transformation      ....       0.000 sec  (  0.0%)
Orbital Orthonormalization  ....       0.000 sec  (  0.0%)
DIIS solution               ....       0.154 sec  (  0.0%)
Grid generation             ....       4.816 sec  (  1.2%)

Maximum memory used throughout the entire SCF-calculation: 154.3 MB


-------------------------------------------------------------------------------
                          DFT DISPERSION CORRECTION                            
                                                                               
                              DFTD3 V3.1  Rev 1                                
                          USING Becke-Johnson damping                          
-------------------------------------------------------------------------------
The PBEh-3c composite method is recognized
Using three-body term ABC
Active option DFTDOPT                   ...         4   

molecular C6(AA) [au] = 16382.723770 


            DFT-D V3
 parameters
 s6 scaling factor         :     1.0000 
 a1 scaling factor         :     0.4860 
 s8 scaling factor         :     0.0000 
 a2 scaling factor         :     4.5000 
 Damping factor alpha9(ATM):    16.0000 
 ad hoc parameters k1-k3   :    16.0000     1.3333    -4.0000 

 Edisp/kcal,au: -16.521942599479  -0.026329388671 
 E6   /kcal   : -16.679516177 
 E8   /kcal   :  -0.000000000 
 E6(ABC)      :   0.157573578 
 % E8         :   0.000000000 
 % E6(ABC)    :  -0.953723067 

-------------------------   ----------------
Dispersion correction           -0.026329389
-------------------------   ----------------

 ** NOTE ** -> element pd will be treated as ni
------------------   -----------------
gCP correction             0.076828900
------------------   -----------------

-------------------------   --------------------
FINAL SINGLE POINT ENERGY      -988.525057325773
-------------------------   --------------------

------------------------------------------------------------------------------
                         ORCA SCF GRADIENT CALCULATION
------------------------------------------------------------------------------

 ... reading COSX grid (gridx3)
Gradient of the Kohn-Sham DFT energy:
Kohn-Sham wavefunction type      ... RKS
Hartree-Fock exchange scaling    ...    0.420
Number of operators              ...    1
Number of atoms                  ...   38
Basis set dimensions             ...  339
Integral neglect threshold       ... 2.5e-11
Integral primitive cutoff        ... 2.5e-12
SHARK Integral package           ... ON

Nuc. rep. gradient       (SHARK) ... done (  0.0 sec)
HCore & Overlap gradient (SHARK) ... done (  1.1 sec)
ECP gradient             (SHARK) ... done (  2.1 sec)
RI-J gradient            (SHARK) ... done (  5.7 sec)
COSX-gradient                    ... done ( 51.5 sec)
Exchange-correlation gradient    ... done
Dispersion correction            ... done
gCP correction                   ... done

------------------
CARTESIAN GRADIENT
------------------

   1   Pd  :    0.002137027   -0.000249490    0.006598107
   2   O   :    0.001191357   -0.004341336   -0.006282458
   3   C   :    0.003634297    0.018067328    0.002760552
   4   O   :   -0.011578819   -0.011016502    0.001907752
   5   C   :    0.018457081    0.003176406    0.003103541
   6   H   :   -0.007645508   -0.009253202   -0.008129492
   7   H   :   -0.002865479    0.005632347   -0.002232013
   8   H   :   -0.002843597   -0.005908581    0.005581922
   9   N   :   -0.000586317   -0.000549468    0.006496536
  10   C   :   -0.000447419    0.000656664   -0.000791986
  11   H   :    0.003412406    0.000263231   -0.003744508
  12   H   :   -0.005270472   -0.000856461   -0.001395523
  13   H   :    0.000971499    0.000021736    0.002535845
  14   C   :    0.000380727   -0.000936728    0.003870876
  15   H   :   -0.000316659    0.003620725    0.001226593
  16   H   :   -0.004975500   -0.001605836   -0.000617712
  17   H   :    0.001710912   -0.001863179   -0.002375570
  18   C   :    0.001510367    0.002634674   -0.006001847
  19   C   :    0.004456600    0.002772970   -0.007095710
  20   C   :    0.005593404   -0.001272613   -0.003089728
  21   C   :    0.003934410    0.005754612   -0.003614068
  22   C   :   -0.002409633    0.002066780    0.000729726
  23   C   :   -0.003667277   -0.004544647    0.010691157
  24   H   :   -0.003112931   -0.002182288   -0.001482564
  25   H   :   -0.009860416   -0.004745032    0.000111792
  26   H   :    0.000374829    0.000963719    0.001267335
  27   H   :   -0.005325072   -0.003905506    0.007343858
  28   H   :    0.003685420    0.007608560   -0.001252523
  29   C   :    0.000833691   -0.000126926   -0.001698544
  30   H   :    0.001382330    0.001759292    0.005751896
  31   H   :   -0.001303346   -0.003041955    0.000964007
  32   O   :    0.003333875   -0.005259244   -0.003308977
  33   C   :    0.001806033    0.003672398   -0.007923827
  34   O   :   -0.000772746    0.000637119    0.001838989
  35   C   :    0.001302904   -0.000462007   -0.001019282
  36   H   :   -0.000502243   -0.001042075    0.000186353
  37   H   :    0.003150182    0.001330466    0.000159136
  38   H   :    0.000732940   -0.000122057   -0.001226440

Difference to translation invariance:
           :    0.0005088541   -0.0026461056   -0.0001568004

Difference to rotation invariance:
           :    0.0031009818   -0.0008928624   -0.0009233638

Norm of the cartesian gradient     ...    0.0498322044
RMS gradient                       ...    0.0046672136
MAX gradient                       ...    0.0184570810

-------
TIMINGS
-------

Total SCF gradient time            ...       69.013 sec

One electron gradient       ....       3.183 sec  (  4.6%)
RI-J Coulomb gradient       ....       5.738 sec  (  8.3%)
COSX gradient               ....      51.531 sec  ( 74.7%)
XC gradient                 ....       7.275 sec  ( 10.5%)

Maximum memory used throughout the entire SCFGRAD-calculation: 122.3 MB

                            ***************************************
                            *     ORCA property calculations      *
                            ***************************************

                                    ---------------------
                                    Active property flags
                                    ---------------------
   (+) Dipole Moment


------------------------------------------------------------------------------
                       ORCA ELECTRIC PROPERTIES CALCULATION
------------------------------------------------------------------------------

Dipole Moment Calculation                       ... on
Quadrupole Moment Calculation                   ... off
Polarizability Calculation                      ... off
GBWName                                         ... 10_22_orca.gbw
Electron density                                ... 10_22_orca.scfp
The origin for moment calculation is the CENTER OF MASS  = ( 0.283129,  0.119084  0.174664)

-------------
DIPOLE MOMENT
-------------
                                X             Y             Z
Electronic contribution:      9.31981       8.02464       0.30934
Nuclear contribution   :    -10.57067      -5.92685       0.61338
                        -----------------------------------------
Total Dipole Moment    :     -1.25086       2.09779       0.92271
                        -----------------------------------------
Magnitude (a.u.)       :      2.61090
Magnitude (Debye)      :      6.63637



--------------------
Rotational spectrum 
--------------------
 
Rotational constants in cm-1:     0.014643     0.008758     0.006441 
Rotational constants in MHz :   438.982498   262.547554   193.106582 

 Dipole components along the rotational axes: 
x,y,z [a.u.] :    -0.599420    -1.705967     1.883389 
x,y,z [Debye]:    -1.523606    -4.336223     4.787193 

 

Timings for individual modules:

Sum of individual times         ...      477.631 sec (=   7.961 min)
GTO integral calculation        ...        0.948 sec (=   0.016 min)   0.2 %
SCF iterations                  ...      407.621 sec (=   6.794 min)  85.3 %
SCF Gradient evaluation         ...       69.063 sec (=   1.151 min)  14.5 %
                             ****ORCA TERMINATED NORMALLY****
TOTAL RUN TIME: 0 days 0 hours 7 minutes 58 seconds 115 msec
