
                                 *****************
                                 * O   R   C   A *
                                 *****************

                                            #,                                       
                                            ###                                      
                                            ####                                     
                                            #####                                    
                                            ######                                   
                                           ########,                                 
                                     ,,################,,,,,                         
                               ,,#################################,,                 
                          ,,##########################################,,             
                       ,#########################################, ''#####,          
                    ,#############################################,,   '####,        
                  ,##################################################,,,,####,       
                ,###########''''           ''''###############################       
              ,#####''   ,,,,##########,,,,          '''####'''          '####       
            ,##' ,,,,###########################,,,                        '##       
           ' ,,###''''                  '''############,,,                           
         ,,##''                                '''############,,,,        ,,,,,,###''
      ,#''                                            '''#######################'''  
     '                                                          ''''####''''         
             ,#######,   #######,   ,#######,      ##                                
            ,#'     '#,  ##    ##  ,#'     '#,    #''#        ######   ,####,        
            ##       ##  ##   ,#'  ##            #'  '#       #        #'  '#        
            ##       ##  #######   ##           ,######,      #####,   #    #        
            '#,     ,#'  ##    ##  '#,     ,#' ,#      #,         ##   #,  ,#        
             '#######'   ##     ##  '#######'  #'      '#     #####' # '####'        



                  #######################################################
                  #                        -***-                        #
                  #          Department of theory and spectroscopy      #
                  #    Directorship and core code : Frank Neese         #
                  #        Max Planck Institute fuer Kohlenforschung    #
                  #                Kaiser Wilhelm Platz 1               #
                  #                 D-45470 Muelheim/Ruhr               #
                  #                      Germany                        #
                  #                                                     #
                  #                  All rights reserved                #
                  #                        -***-                        #
                  #######################################################


                         Program Version 5.0.3 -  RELEASE  -


 With contributions from (in alphabetic order):
   Daniel Aravena         : Magnetic Suceptibility
   Michael Atanasov       : Ab Initio Ligand Field Theory (pilot matlab implementation)
   Alexander A. Auer      : GIAO ZORA, VPT2 properties, NMR spectrum
   Ute Becker             : Parallelization
   Giovanni Bistoni       : ED, misc. LED, open-shell LED, HFLD
   Martin Brehm           : Molecular dynamics
   Dmytro Bykov           : SCF Hessian
   Vijay G. Chilkuri      : MRCI spin determinant printing, contributions to CSF-ICE
   Dipayan Datta          : RHF DLPNO-CCSD density
   Achintya Kumar Dutta   : EOM-CC, STEOM-CC
   Dmitry Ganyushin       : Spin-Orbit,Spin-Spin,Magnetic field MRCI
   Miquel Garcia          : C-PCM and meta-GGA Hessian, CC/C-PCM, Gaussian charge scheme
   Yang Guo               : DLPNO-NEVPT2, F12-NEVPT2, CIM, IAO-localization
   Andreas Hansen         : Spin unrestricted coupled pair/coupled cluster methods
   Benjamin Helmich-Paris : MC-RPA, TRAH-SCF, COSX integrals
   Lee Huntington         : MR-EOM, pCC
   Robert Izsak           : Overlap fitted RIJCOSX, COSX-SCS-MP3, EOM
   Marcus Kettner         : VPT2
   Christian Kollmar      : KDIIS, OOCD, Brueckner-CCSD(T), CCSD density, CASPT2, CASPT2-K
   Simone Kossmann        : Meta GGA functionals, TD-DFT gradient, OOMP2, MP2 Hessian
   Martin Krupicka        : Initial AUTO-CI
   Lucas Lang             : DCDCAS
   Marvin Lechner         : AUTO-CI (C++ implementation), FIC-MRCC
   Dagmar Lenk            : GEPOL surface, SMD
   Dimitrios Liakos       : Extrapolation schemes; Compound Job, initial MDCI parallelization
   Dimitrios Manganas     : Further ROCIS development; embedding schemes
   Dimitrios Pantazis     : SARC Basis sets
   Anastasios Papadopoulos: AUTO-CI, single reference methods and gradients
   Taras Petrenko         : DFT Hessian,TD-DFT gradient, ASA, ECA, R-Raman, ABS, FL, XAS/XES, NRVS
   Peter Pinski           : DLPNO-MP2, DLPNO-MP2 Gradient
   Christoph Reimann      : Effective Core Potentials
   Marius Retegan         : Local ZFS, SOC
   Christoph Riplinger    : Optimizer, TS searches, QM/MM, DLPNO-CCSD(T), (RO)-DLPNO pert. Triples
   Tobias Risthaus        : Range-separated hybrids, TD-DFT gradient, RPA, STAB
   Michael Roemelt        : Original ROCIS implementation
   Masaaki Saitow         : Open-shell DLPNO-CCSD energy and density
   Barbara Sandhoefer     : DKH picture change effects
   Avijit Sen             : IP-ROCIS
   Kantharuban Sivalingam : CASSCF convergence, NEVPT2, FIC-MRCI
   Bernardo de Souza      : ESD, SOC TD-DFT
   Georgi Stoychev        : AutoAux, RI-MP2 NMR, DLPNO-MP2 response
   Willem Van den Heuvel  : Paramagnetic NMR
   Boris Wezisla          : Elementary symmetry handling
   Frank Wennmohs         : Technical directorship


 We gratefully acknowledge several colleagues who have allowed us to
 interface, adapt or use parts of their codes:
   Stefan Grimme, W. Hujo, H. Kruse, P. Pracht,  : VdW corrections, initial TS optimization,
                  C. Bannwarth, S. Ehlert          DFT functionals, gCP, sTDA/sTD-DF
   Ed Valeev, F. Pavosevic, A. Kumar             : LibInt (2-el integral package), F12 methods
   Garnet Chan, S. Sharma, J. Yang, R. Olivares  : DMRG
   Ulf Ekstrom                                   : XCFun DFT Library
   Mihaly Kallay                                 : mrcc  (arbitrary order and MRCC methods)
   Jiri Pittner, Ondrej Demel                    : Mk-CCSD
   Frank Weinhold                                : gennbo (NPA and NBO analysis)
   Christopher J. Cramer and Donald G. Truhlar   : smd solvation model
   Lars Goerigk                                  : TD-DFT with DH, B97 family of functionals
   V. Asgeirsson, H. Jonsson                     : NEB implementation
   FAccTs GmbH                                   : IRC, NEB, NEB-TS, DLPNO-Multilevel, CI-OPT
                                                   MM, QMMM, 2- and 3-layer-ONIOM, Crystal-QMMM,
                                                   LR-CPCM, SF, NACMEs, symmetry and pop. for TD-DFT,
                                                   nearIR, NL-DFT gradient (VV10), updates on ESD,
                                                   ML-optimized integration grids
   S Lehtola, MJT Oliveira, MAL Marques          : LibXC Library
   Liviu Ungur et al                             : ANISO software


 Your calculation uses the libint2 library for the computation of 2-el integrals
 For citations please refer to: http://libint.valeyev.net

 Your ORCA version has been built with support for libXC version: 5.1.0
 For citations please refer to: https://tddft.org/programs/libxc/

 This ORCA versions uses:
   CBLAS   interface :  Fast vector & matrix operations
   LAPACKE interface :  Fast linear algebra routines
   SCALAPACK package :  Parallel linear algebra routines
   Shared memory     :  Shared parallel matrices
   BLAS/LAPACK       :  OpenBLAS 0.3.15  USE64BITINT DYNAMIC_ARCH NO_AFFINITY SkylakeX SINGLE_THREADED
        Core in use  :  SkylakeX
   Copyright (c) 2011-2014, The OpenBLAS Project


Your calculation utilizes the geometrical counterpoise correction gCP
Please cite in your paper:
H.Kruse, S. Grimme J.Chem.Phys., 136, (2012), 154101 
   

Your calculation utilizes the atom-pairwise dispersion correction
with the Becke-Johnson damping scheme (D3BJ)
Cite in your paper:
S.Grimme, S.Ehrlich, L.Goerigk, J Comput Chem, (2011), 32, 1456–1465 
S.Grimme, J.Antony, S.Ehrlich and H.Krieg, J.Chem.Phys., 132, (2010), 154104 
   

Your calculation employs the composite approach PBEh-3c.
Please cite in your paper:
S. Grimme, J. G. Brandenburg, C. Bannwarth, A. Hansen J.Chem.Phys., 143, (2015), 054107 
   

================================================================================

cite the ECPs for Pd [Def2-ECP] as follows:
Ce-Yb(ecp-28): M. Dolg, H. Stoll, H.Preuss, J. Chem. Phys., 1989, 90, 1730-1734.
Y-Cd(ecp-28), Hf-Hg(ecp-46): D. Andrae,U. Haeussermann, M. Dolg, H. Stoll, H. Preuss, Theor. Chim. Acta, 1990, 77, 123-141.
In-Sb(ecp-28), Tl-Bi(ecp-46): B. Metz, H. Stoll, M. Dolg, J. Chem. Phys., 2000, 113, 2563-2569.
Te-Xe(ecp-28), Po-Rn(ecp-46): K. A. Peterson, D. Figgen, E. Goll, H. Stoll, M. Dolg, J. Chem. Phys., 2003, 119, 11113-11123.
Rb(ecp-28), Cs(ecp-46): T. Leininger, A. Nicklass, W. Kuechle, H. Stoll, M. Dolg, A. Bergner, Chem. Phys. Lett., 1996, 255, 274-280.
Sr(ecp-28), Ba(ecp-46): M. Kaupp, P. V. Schleyer, H. Stoll and H. Preuss, J. Chem. Phys., 1991, 94, 1360-1366.
La(ecp-46): M. Dolg, H. Stoll, A. Savin, H. Preuss, Theor. Chim. Acta, 1989, 75, 173-194.
Lu(ecp-28): X. Cao, M. Dolg, J. Chem. Phys., 2001, 115, 7348-7355.

ECP parameters for Pd [Def2-ECP] have been obtained from:
TURBOMOLE (7.0.2)

----- Orbital basis set information -----
Your calculation utilizes the basis: def2-mSVP

----- AuxJ basis set information -----
Your calculation utilizes the auxiliary basis: def2/J
   F. Weigend, Phys. Chem. Chem. Phys. 8, 1057 (2006).

================================================================================
                                        WARNINGS
                       Please study these warnings very carefully!
================================================================================


INFO   : the flag for use of the SHARK integral package has been found!

================================================================================
                                       INPUT FILE
================================================================================
NAME = 10_7_orca.inp
|  1> ! EnGrad PBEh-3c
|  2> %output 
|  3> xyzfile=True 
|  4> end 
|  5> %scf 
|  6> maxiter 250 
|  7> end
|  8> %output
|  9> Print[P_Hirshfeld] = 1
| 10> end
| 11> % maxcore
| 12> 4000
| 13> *xyz -1 1
| 14> Pd  -1.95937580  -1.44894874   0.43575975 
| 15> Cl  -2.83807495  -3.32050562  -0.58879456 
| 16> Cl   0.07973187  -5.07055852   0.32958778 
| 17> Cl  -3.84120483  -1.28064562   1.87708263 
| 18> N   -1.07293262   0.14599642   1.35632809 
| 19> C   -1.43603746   0.71912296   2.48577702 
| 20> C   -0.87031970   1.92304884   2.91426256 
| 21> C    0.09019462   2.53073387   2.14658101 
| 22> C   -0.09359473   0.70343730   0.60818463 
| 23> C    0.51328943   1.92000971   0.96396331 
| 24> H    0.54083508   3.47119167   2.44253754 
| 25> H   -2.21907770   0.22106411   3.04302812 
| 26> H   -1.21542547   2.37751428   3.83293839 
| 27> C    0.27719357  -0.00295916  -0.57279487 
| 28> C    1.50873000   2.45435415   0.09346910 
| 29> C    1.86712457   1.79485614  -1.02952650 
| 30> C    1.28265594   0.54446218  -1.38863021 
| 31> H    1.97233644   3.39611960   0.36305511 
| 32> H    2.61784876   2.21961063  -1.67937188 
| 33> C   -0.41906247  -1.20818168  -0.85362363 
| 34> C    1.65379047  -0.15655473  -2.54111592 
| 35> C    0.01849219  -1.87412951  -2.00777510 
| 36> C    1.03858368  -1.34968136  -2.81653013 
| 37> H    2.40863790   0.25679829  -3.19528381 
| 38> H    1.33841463  -1.88937865  -3.70242722 
| 39> H   -0.80424550  -4.27365046  -0.19572110 
| 40> H   -0.44578877  -2.80821337  -2.30906608 
| 41> *
| 42> 
| 43>                          ****END OF INPUT****
================================================================================

                     *******************************
                     * Energy+Gradient Calculation *
                     *******************************

---------------------------------
CARTESIAN COORDINATES (ANGSTROEM)
---------------------------------
  Pd    -1.959376   -1.448949    0.435760
  Cl    -2.838075   -3.320506   -0.588795
  Cl     0.079732   -5.070559    0.329588
  Cl    -3.841205   -1.280646    1.877083
  N     -1.072933    0.145996    1.356328
  C     -1.436037    0.719123    2.485777
  C     -0.870320    1.923049    2.914263
  C      0.090195    2.530734    2.146581
  C     -0.093595    0.703437    0.608185
  C      0.513289    1.920010    0.963963
  H      0.540835    3.471192    2.442538
  H     -2.219078    0.221064    3.043028
  H     -1.215425    2.377514    3.832938
  C      0.277194   -0.002959   -0.572795
  C      1.508730    2.454354    0.093469
  C      1.867125    1.794856   -1.029527
  C      1.282656    0.544462   -1.388630
  H      1.972336    3.396120    0.363055
  H      2.617849    2.219611   -1.679372
  C     -0.419062   -1.208182   -0.853624
  C      1.653790   -0.156555   -2.541116
  C      0.018492   -1.874130   -2.007775
  C      1.038584   -1.349681   -2.816530
  H      2.408638    0.256798   -3.195284
  H      1.338415   -1.889379   -3.702427
  H     -0.804245   -4.273650   -0.195721
  H     -0.445789   -2.808213   -2.309066

----------------------------
CARTESIAN COORDINATES (A.U.)
----------------------------
  NO LB      ZA    FRAG     MASS         X           Y           Z
   0 Pd   18.0000*   0   106.400   -3.702684   -2.738116    0.823467
   1 Cl   17.0000    0    35.453   -5.363184   -6.274846   -1.112660
   2 Cl   17.0000    0    35.453    0.150671   -9.581967    0.622831
   3 Cl   17.0000    0    35.453   -7.258825   -2.420069    3.547172
   4 N     7.0000    0    14.007   -2.027549    0.275893    2.563089
   5 C     6.0000    0    12.011   -2.713718    1.358945    4.697438
   6 C     6.0000    0    12.011   -1.644666    3.634036    5.507158
   7 C     6.0000    0    12.011    0.170443    4.782394    4.056450
   8 C     6.0000    0    12.011   -0.176868    1.329304    1.149302
   9 C     6.0000    0    12.011    0.969976    3.628293    1.821627
  10 H     1.0000    0     1.008    1.022030    6.559602    4.615727
  11 H     1.0000    0     1.008   -4.193449    0.417751    5.750490
  12 H     1.0000    0     1.008   -2.296821    4.492851    7.243204
  13 C     6.0000    0    12.011    0.523820   -0.005592   -1.082425
  14 C     6.0000    0    12.011    2.851087    4.638057    0.176631
  15 C     6.0000    0    12.011    3.528354    3.391787   -1.945523
  16 C     6.0000    0    12.011    2.423868    1.028884   -2.624131
  17 H     1.0000    0     1.008    3.727176    6.417736    0.686075
  18 H     1.0000    0     1.008    4.947017    4.194456   -3.173553
  19 C     6.0000    0    12.011   -0.791913   -2.283132   -1.613115
  20 C     6.0000    0    12.011    3.125211   -0.295846   -4.802013
  21 C     6.0000    0    12.011    0.034945   -3.541592   -3.794145
  22 C     6.0000    0    12.011    1.962639   -2.550528   -5.322471
  23 H     1.0000    0     1.008    4.551666    0.485278   -6.038211
  24 H     1.0000    0     1.008    2.529237   -3.570408   -6.996573
  25 H     1.0000    0     1.008   -1.519804   -8.076029   -0.369859
  26 H     1.0000    0     1.008   -0.842419   -5.306754   -4.363503
* core charge reduced due to ECP

--------------------------------
INTERNAL COORDINATES (ANGSTROEM)
--------------------------------
 Pd     0   0   0     0.000000000000     0.00000000     0.00000000
 Cl     1   0   0     2.307498404209     0.00000000     0.00000000
 Cl     2   1   0     3.524160597087    88.38290889     0.00000000
 Cl     1   2   3     2.376345531013    91.44357630   237.73382266
 N      1   2   3     2.043790019397   176.47498994     8.51554229
 C      5   1   2     1.317563676322   127.30397801   241.16691169
 C      6   5   1     1.397524227519   121.73564084   189.52612132
 C      7   6   5     1.371569836655   119.57451224   359.91172524
 C      5   1   2     1.352612906276   112.73768714    67.83583800
 C      8   7   6     1.396630889752   119.49516605   358.39435205
 H      8   7   6     1.084033193873   121.51280388   179.21303513
 H      6   5   1     1.082470980661   116.13622359     7.55080072
 H      7   6   5     1.081481441943   119.55673869   178.20512585
 C      9   5   1     1.425199109436   116.25914873   351.58424040
 C     10   8   7     1.426248953936   124.36195079   180.41499504
 C     15  10   8     1.350741800130   120.64345265   179.58328911
 C     14   9   5     1.405778077424   118.29219844   179.43755558
 H     15  10   8     1.083757219497   118.18407814     0.08956374
 H     16  15  10     1.079954723187   119.51743440   179.56199860
 C     14   9   5     1.419929078650   117.19470460     0.49980346
 C     17  14   9     1.399067138925   118.20814356   179.42878167
 C     20  14   9     1.402499985195   114.38127155   181.73207051
 C     21  17  14     1.370358908004   118.86340464   359.13901764
 H     21  17  14     1.081013871339   119.48062521   178.59878460
 H     23  21  17     1.079808046591   118.38525443   180.64198522
 H      3   2   1     1.300933459548    13.58975057   291.53784608
 H     22  20  14     1.085746619594   120.22872811   179.73676015

---------------------------
INTERNAL COORDINATES (A.U.)
---------------------------
 Pd     0   0   0     0.000000000000     0.00000000     0.00000000
 Cl     1   0   0     4.360540038415     0.00000000     0.00000000
 Cl     2   1   0     6.659698380451    88.38290889     0.00000000
 Cl     1   2   3     4.490642253182    91.44357630   237.73382266
 N      1   2   3     3.862203411902   176.47498994     8.51554229
 C      5   1   2     2.489834512250   127.30397801   241.16691169
 C      6   5   1     2.640938055531   121.73564084   189.52612132
 C      7   6   5     2.591891364825   119.57451224   359.91172524
 C      5   1   2     2.556067958070   112.73768714    67.83583800
 C      8   7   6     2.639249891806   119.49516605   358.39435205
 H      8   7   6     2.048525856501   121.51280388   179.21303513
 H      6   5   1     2.045573701367   116.13622359     7.55080072
 H      7   6   5     2.043703744191   119.55673869   178.20512585
 C      9   5   1     2.693236003143   116.25914873   351.58424040
 C     10   8   7     2.695219921731   124.36195079   180.41499504
 C     15  10   8     2.552532079886   120.64345265   179.58328911
 C     14   9   5     2.656535571402   118.29219844   179.43755558
 H     15  10   8     2.048004340508   118.18407814     0.08956374
 H     16  15  10     2.040818663858   119.51743440   179.56199860
 C     14   9   5     2.683277088239   117.19470460     0.49980346
 C     17  14   9     2.643853735536   118.20814356   179.42878167
 C     20  14   9     2.650340874848   114.38127155   181.73207051
 C     21  17  14     2.589603041308   118.86340464   359.13901764
 H     21  17  14     2.042820163801   119.48062521   178.59878460
 H     23  21  17     2.040541485261   118.38525443   180.64198522
 H      3   2   1     2.458407957001    13.58975057   291.53784608
 H     22  20  14     2.051763761864   120.22872811   179.73676015

---------------------
BASIS SET INFORMATION
---------------------
There are 5 groups of distinct atoms

 Group   1 Type Pd  : 7s6p5d1f contracted to 5s3p2d1f pattern {31111/411/41/1}
 Group   2 Type Cl  : 10s7p1d contracted to 4s3p1d pattern {5311/511/1}
 Group   3 Type N   : 8s4p1d contracted to 4s2p1d pattern {5111/31/1}
 Group   4 Type C   : 8s4p1d contracted to 4s2p1d pattern {5111/31/1}
 Group   5 Type H   : 4s contracted to 2s pattern {31}

Atom   0Pd   basis set group =>   1
Atom   1Cl   basis set group =>   2
Atom   2Cl   basis set group =>   2
Atom   3Cl   basis set group =>   2
Atom   4N    basis set group =>   3
Atom   5C    basis set group =>   4
Atom   6C    basis set group =>   4
Atom   7C    basis set group =>   4
Atom   8C    basis set group =>   4
Atom   9C    basis set group =>   4
Atom  10H    basis set group =>   5
Atom  11H    basis set group =>   5
Atom  12H    basis set group =>   5
Atom  13C    basis set group =>   4
Atom  14C    basis set group =>   4
Atom  15C    basis set group =>   4
Atom  16C    basis set group =>   4
Atom  17H    basis set group =>   5
Atom  18H    basis set group =>   5
Atom  19C    basis set group =>   4
Atom  20C    basis set group =>   4
Atom  21C    basis set group =>   4
Atom  22C    basis set group =>   4
Atom  23H    basis set group =>   5
Atom  24H    basis set group =>   5
Atom  25H    basis set group =>   5
Atom  26H    basis set group =>   5
---------------------------------
AUXILIARY/J BASIS SET INFORMATION
---------------------------------
There are 5 groups of distinct atoms

 Group   1 Type Pd  : 11s5p5d3f3g contracted to 8s5p5d2f3g pattern {41111111/11111/11111/21/111}
 Group   2 Type Cl  : 14s5p5d2f1g contracted to 8s4p3d1f1g pattern {71111111/2111/311/2/1}
 Group   3 Type N   : 12s5p4d2f1g contracted to 6s4p3d1f1g pattern {711111/2111/211/2/1}
 Group   4 Type C   : 12s5p4d2f1g contracted to 6s4p3d1f1g pattern {711111/2111/211/2/1}
 Group   5 Type H   : 5s2p1d contracted to 3s1p1d pattern {311/2/1}

Atom   0Pd   basis set group =>   1
Atom   1Cl   basis set group =>   2
Atom   2Cl   basis set group =>   2
Atom   3Cl   basis set group =>   2
Atom   4N    basis set group =>   3
Atom   5C    basis set group =>   4
Atom   6C    basis set group =>   4
Atom   7C    basis set group =>   4
Atom   8C    basis set group =>   4
Atom   9C    basis set group =>   4
Atom  10H    basis set group =>   5
Atom  11H    basis set group =>   5
Atom  12H    basis set group =>   5
Atom  13C    basis set group =>   4
Atom  14C    basis set group =>   4
Atom  15C    basis set group =>   4
Atom  16C    basis set group =>   4
Atom  17H    basis set group =>   5
Atom  18H    basis set group =>   5
Atom  19C    basis set group =>   4
Atom  20C    basis set group =>   4
Atom  21C    basis set group =>   4
Atom  22C    basis set group =>   4
Atom  23H    basis set group =>   5
Atom  24H    basis set group =>   5
Atom  25H    basis set group =>   5
Atom  26H    basis set group =>   5
-------------------------
ECP PARAMETER INFORMATION
-------------------------

 Group 1, Type Pd ECP Def2-ECP (replacing 28 core electrons, lmax=3)

Atom   0Pd   ECP group =>   1

------------------------------------------------------------------------------
                           ORCA GTO INTEGRAL CALCULATION
                           -- RI-GTO INTEGRALS CHOSEN --
------------------------------------------------------------------------------
------------------------------------------------------------------------------
                   ___                                                        
                  /   \      - P O W E R E D   B Y -                         
                 /     \                                                     
                 |  |  |   _    _      __       _____    __    __             
                 |  |  |  | |  | |    /  \     |  _  \  |  |  /  |          
                  \  \/   | |  | |   /    \    | | | |  |  | /  /          
                 / \  \   | |__| |  /  /\  \   | |_| |  |  |/  /          
                |  |  |   |  __  | /  /__\  \  |    /   |      \           
                |  |  |   | |  | | |   __   |  |    \   |  |\   \          
                \     /   | |  | | |  |  |  |  | |\  \  |  | \   \       
                 \___/    |_|  |_| |__|  |__|  |_| \__\ |__|  \__/        
                                                                              
                      - O R C A' S   B I G   F R I E N D -                    
                                      &                                       
                       - I N T E G R A L  F E E D E R -                       
                                                                              
 v1 FN, 2020, v2 2021                                                         
------------------------------------------------------------------------------


Reading SHARK input file 10_7_orca.SHARKINP.tmp ... ok
----------------------
SHARK INTEGRAL PACKAGE
----------------------

Number of atoms                             ...     27
Number of basis functions                   ...    313
Number of shells                            ...    151
Maximum angular momentum                    ...      3
Integral batch strategy                     ... SHARK/LIBINT Hybrid
RI-J (if used) integral strategy            ... SPLIT-RIJ (Revised 2003 algorithm where possible)
Printlevel                                  ...      1
Contraction scheme used                     ... SEGMENTED contraction
Coulomb Range Separation                    ... NOT USED
Exchange Range Separation                   ... NOT USED
Finite Nucleus Model                        ... NOT USED
Auxiliary Coulomb fitting basis             ... AVAILABLE
   # of basis functions in Aux-J            ...   1027
   # of shells in Aux-J                     ...    329
   Maximum angular momentum in Aux-J        ...      4
Auxiliary J/K fitting basis                 ... NOT available
Auxiliary Correlation fitting basis         ... NOT available
Auxiliary 'external' fitting basis          ... NOT available
Integral threshold                          ...     2.500000e-11
Primitive cut-off                           ...     2.500000e-12
Primitive pair pre-selection threshold      ...     2.500000e-12

Calculating pre-screening integrals         ... done (  0.1 sec) Dimension = 151
Organizing shell pair data                  ... done (  0.1 sec)
Shell pair information
Total number of shell pairs                 ...     11476
Shell pairs after pre-screening             ...      8498
Total number of primitive shell pairs       ...     42779
Primitive shell pairs kept                  ...     20017
          la=0 lb=0:   2763 shell pairs
          la=1 lb=0:   2903 shell pairs
          la=1 lb=1:    738 shell pairs
          la=2 lb=0:   1202 shell pairs
          la=2 lb=1:    635 shell pairs
          la=2 lb=2:    147 shell pairs
          la=3 lb=0:     58 shell pairs
          la=3 lb=1:     36 shell pairs
          la=3 lb=2:     15 shell pairs
          la=3 lb=3:      1 shell pairs

Calculating one electron integrals          ... done (  0.1 sec)
Calculating ECP integrals                   ... done (  0.3 sec)
Calculating RI/J V-Matrix + Cholesky decomp.... done (  0.1 sec)
Calculating Nuclear repulsion               ... done (  0.0 sec) ENN=   1813.650433157886 Eh

SHARK setup successfully completed in   0.8 seconds

Maximum memory used throughout the entire GTOINT-calculation: 71.7 MB
-------------------------------------------------------------------------------
                                 ORCA SCF
-------------------------------------------------------------------------------

------------
SCF SETTINGS
------------
Hamiltonian:
 Density Functional     Method          .... DFT(GTOs)
 Exchange Functional    Exchange        .... PBE
   PBE kappa parameter   XKappa         ....  1.024500
   PBE mue parameter    XMuePBE         ....  0.123457
 Correlation Functional Correlation     .... PBE
   PBE beta parameter  CBetaPBE         ....  0.030000
 LDA part of GGA corr.  LDAOpt          .... PW91-LDA
 Gradients option       PostSCFGGA      .... off
 Hybrid DFT is turned on
   Fraction HF Exchange ScalHFX         ....  0.420000
   Scaling of DF-GGA-X  ScalDFX         ....  0.580000
   Scaling of DF-GGA-C  ScalDFC         ....  1.000000
   Scaling of DF-LDA-C  ScalLDAC        ....  1.000000
   Perturbative correction              ....  0.000000
   Density functional embedding theory  .... OFF
 RI-approximation to the Coulomb term is turned on
   Number of AuxJ basis functions       .... 1027
   RIJ-ON(X) (HFX calculated with O(N)) .... on
   Number of AuxJ basis functions       .... 1027
   RIJ-COSX (HFX calculated with COS-X)).... on


General Settings:
 Integral files         IntName         .... 10_7_orca
 Hartree-Fock type      HFTyp           .... RHF
 Total Charge           Charge          ....   -1
 Multiplicity           Mult            ....    1
 Number of Electrons    NEL             ....  164
 Basis Dimension        Dim             ....  313
 Nuclear Repulsion      ENuc            ....   1813.6504331579 Eh

Convergence Acceleration:
 DIIS                   CNVDIIS         .... on
   Start iteration      DIISMaxIt       ....    12
   Startup error        DIISStart       ....  0.200000
   # of expansion vecs  DIISMaxEq       ....     5
   Bias factor          DIISBfac        ....   1.050
   Max. coefficient     DIISMaxC        ....  10.000
 Trust-Rad. Augm. Hess. CNVTRAH         .... auto
   Auto Start mean grad. ratio tolernc. ....  1.125000
   Auto Start start iteration           ....    20
   Auto Start num. interpolation iter.  ....    10
   Max. Number of Micro iterations      ....    16
   Max. Number of Macro iterations      .... Maxiter - #DIIS iter
   Number of Davidson start vectors     ....     2
   Converg. threshold I  (grad. norm)   ....   1.000e-05
   Converg. threshold II (energy diff.) ....   1.000e-08
   Grad. Scal. Fac. for Micro threshold ....   0.100
   Minimum threshold for Micro iter.    ....   0.010
   NR start threshold (gradient norm)   ....   0.001
   Initial trust radius                 ....   0.400
   Minimum AH scaling param. (alpha)    ....   1.000
   Maximum AH scaling param. (alpha)    .... 1000.000
   Orbital update algorithm             .... Taylor
   White noise on init. David. guess    .... on
   Maximum white noise                  ....   0.010
   Quad. conv. algorithm                .... NR
   COSX micro iterations for RIJONX calc.... off
 SOSCF                  CNVSOSCF        .... off
 Level Shifting         CNVShift        .... on
   Level shift para.    LevelShift      ....    0.2500
   Turn off err/grad.   ShiftErr        ....    0.0010
 Zerner damping         CNVZerner       .... off
 Static damping         CNVDamp         .... on
   Fraction old density DampFac         ....    0.7000
   Max. Damping (<1)    DampMax         ....    0.9800
   Min. Damping (>=0)   DampMin         ....    0.0000
   Turn off err/grad.   DampErr         ....    0.1000
 Fernandez-Rico         CNVRico         .... off

SCF Procedure:
 Maximum # iterations   MaxIter         ....   250
 SCF integral mode      SCFMode         .... Direct
   Integral package                     .... SHARK and LIBINT hybrid scheme
 Reset frequency        DirectResetFreq ....    20
 Integral Threshold     Thresh          ....  2.500e-11 Eh
 Primitive CutOff       TCut            ....  2.500e-12 Eh

Convergence Tolerance:
 Convergence Check Mode ConvCheckMode   .... Total+1el-Energy
 Convergence forced     ConvForced      .... 0
 Energy Change          TolE            ....  1.000e-08 Eh
 1-El. energy change                    ....  1.000e-05 Eh
 DIIS Error             TolErr          ....  5.000e-07


Diagonalization of the overlap matrix:
Smallest eigenvalue                        ... 3.088e-04
Time for diagonalization                   ...    0.027 sec
Threshold for overlap eigenvalues          ... 1.000e-08
Number of eigenvalues below threshold      ... 0
Time for construction of square roots      ...    0.018 sec
Total time needed                          ...    0.046 sec

--------------------------------
INITIAL GUESS: MINIMAL BASIS EHT
--------------------------------
The minimal basis has 119 functions
EHT matrix was diagonalized
Basis set overlap was calculated now projecting the orbitals
Using GuessMode=FMatrix for the initial guess
C*T matrix was formed
Effective Fockian was calculated
Effective Fockian was diagonalized
Initial density was built
                      ------------------
                      INITIAL GUESS DONE
                      ------------------
-------------------
DFT GRID GENERATION
-------------------

General Integration Accuracy     IntAcc      ... 4.159
Radial Grid Type                 RadialGrid  ... OptM3 with GC (2021)
Angular Grid (max. ang.)         AngularGrid ... 3 (Lebedev-194)
Angular grid pruning method      GridPruning ... 4 (adaptive)
Weight generation scheme         WeightScheme... Becke
Basis function cutoff            BFCut       ... 1.0000e-11
Integration weight cutoff        WCut        ... 1.0000e-14
Angular grids for H and He will be reduced by one unit
Partially contracted basis set               ... off
Rotationally invariant grid construction     ... off

Total number of grid points                  ...    76328
Total number of batches                      ...     1205
Average number of points per batch           ...       63
Average number of grid points per atom       ...     2827
Time for grid setup =    1.173 sec

--------------------
COSX GRID GENERATION
--------------------

GRIDX 1
-------
General Integration Accuracy     IntAcc      ... 3.816
Radial Grid Type                 RadialGrid  ... OptM3 with GC (2021)
Angular Grid (max. ang.)         AngularGrid ... 1 (Lebedev-50)
Angular grid pruning method      GridPruning ... 4 (adaptive)
Weight generation scheme         WeightScheme... Becke
Basis function cutoff            BFCut       ... 1.0000e-11
Integration weight cutoff        WCut        ... 1.0000e-14
Angular grids for H and He will be reduced by one unit
Partially contracted basis set               ... on
Rotationally invariant grid construction     ... off

Total number of grid points                  ...    17892
Total number of batches                      ...      289
Average number of points per batch           ...       61
Average number of grid points per atom       ...      663
UseSFitting                                  ... on

GRIDX 2
-------
General Integration Accuracy     IntAcc      ... 4.020
Radial Grid Type                 RadialGrid  ... OptM3 with GC (2021)
Angular Grid (max. ang.)         AngularGrid ... 2 (Lebedev-110)
Angular grid pruning method      GridPruning ... 4 (adaptive)
Weight generation scheme         WeightScheme... Becke
Basis function cutoff            BFCut       ... 1.0000e-11
Integration weight cutoff        WCut        ... 1.0000e-14
Angular grids for H and He will be reduced by one unit
Partially contracted basis set               ... on
Rotationally invariant grid construction     ... off

Total number of grid points                  ...    39926
Total number of batches                      ...      636
Average number of points per batch           ...       62
Average number of grid points per atom       ...     1479
UseSFitting                                  ... on

GRIDX 3
-------
General Integration Accuracy     IntAcc      ... 4.338
Radial Grid Type                 RadialGrid  ... OptM3 with GC (2021)
Angular Grid (max. ang.)         AngularGrid ... 3 (Lebedev-194)
Angular grid pruning method      GridPruning ... 4 (adaptive)
Weight generation scheme         WeightScheme... Becke
Basis function cutoff            BFCut       ... 1.0000e-11
Integration weight cutoff        WCut        ... 1.0000e-14
Angular grids for H and He will be reduced by one unit
Partially contracted basis set               ... on
Rotationally invariant grid construction     ... off

Total number of grid points                  ...    88609
Total number of batches                      ...     1399
Average number of points per batch           ...       63
Average number of grid points per atom       ...     3282
UseSFitting                                  ... on

Time for X-Grid setup             =    3.384 sec

--------------
SCF ITERATIONS
--------------
ITER       Energy         Delta-E        Max-DP      RMS-DP      [F,P]     Damp
               ***  Starting incremental Fock matrix formation  ***
  0  -2050.1416074827   0.000000000000 4.80593240  0.09275090  5.2967999 0.7000
  1  -2047.2409020429   2.900705439820 4.93500151  0.06792415  3.9270107 0.7000
  2  -2045.4958285208   1.745073522092 2.31413793  0.02902831  2.6318957 0.7000
  3  -2046.5162517913  -1.020423270497 3.59899555  0.04084392  1.9630363 0.7000
  4  -2045.3576028324   1.158648958892 2.20973196  0.02864586  1.2674146 0.7000
  5  -2046.8000905608  -1.442487728388 3.16477498  0.03364321  0.9909674 0.7000
  6  -2045.9422674414   0.857823119374 2.49862143  0.02852700  0.5902727 0.7000
  7  -2047.3015590860  -1.359291644603 2.90992044  0.03093917  0.5111822 0.7000
  8  -2046.5917699505   0.709789135509 2.63092931  0.02827129  0.2561826 0.7000
  9  -2048.1000931985  -1.508323248057 2.92959685  0.02536736  0.2737801 0.7000
                               ***Turning on DIIS***
 10  -2048.3813730893  -0.281279890728 2.70773327  0.02511730  0.1871307 0.7000
 11  -2051.0544814091  -2.673108319849 1.78549465  0.01821608  0.1529008 0.7000
 12  -2053.3291442960  -2.274662886863 1.24064641  0.01309298  0.1645144 0.7000
 13  -2055.1186296364  -1.789485340390 0.86625965  0.00935737  0.2074018 0.7000
 14  -2056.5238437103  -1.405214073930 0.60514991  0.00667755  0.2457635 0.7000
 15  -2057.6222069742  -1.098363263866 0.53215086  0.00592266  0.2677916 0.7000
 16  -2059.1422890459  -1.520082071762 1.10000985  0.01351814  0.0914966 0.0000
 17  -2059.4249890309  -0.282699985020 0.05176905  0.00065233  0.4267710 0.7000
 18  -2059.6435272549  -0.218538223929 0.07918014  0.00084764  0.3873543 0.7000
 19  -2059.8937856921  -0.250258437194 0.07928377  0.00088541  0.3337789 0.7000
               *** Restarting incremental Fock matrix formation ***
                                   *** Resetting DIIS ***

 WARNING: the maximum gradient error descreased on average only by a factor   0.9
          during the last 20 iterations

                      *** Initiating the TRAH-SCF procedure ***


TRAH GRIDX
----------

General Integration Accuracy     IntAcc      ... 3.067
Radial Grid Type                 RadialGrid  ... OptM3 with GC (2021)
Angular Grid (max. ang.)         AngularGrid ... 1 (Lebedev-50)
Angular grid pruning method      GridPruning ... 4 (adaptive)
Weight generation scheme         WeightScheme... Becke
Basis function cutoff            BFCut       ... 1.0000e-11
Integration weight cutoff        WCut        ... 1.0000e-14
Angular grids for H and He will be reduced by one unit
Partially contracted basis set               ... on
Rotationally invariant grid construction     ... off

Total number of grid points                  ...     9971
Total number of batches                      ...      171
Average number of points per batch           ...       58
Average number of grid points per atom       ...      369


TRAH GRID
---------

General Integration Accuracy     IntAcc      ... 3.467
Radial Grid Type                 RadialGrid  ... OptM3 with GC (2021)
Angular Grid (max. ang.)         AngularGrid ... 1 (Lebedev-50)
Angular grid pruning method      GridPruning ... 4 (adaptive)
Weight generation scheme         WeightScheme... Becke
Basis function cutoff            BFCut       ... 1.0000e-11
Integration weight cutoff        WCut        ... 1.0000e-14
Angular grids for H and He will be reduced by one unit
Partially contracted basis set               ... off
Rotationally invariant grid construction     ... off

Total number of grid points                  ...    24327
Total number of batches                      ...      394
Average number of points per batch           ...       61
Average number of grid points per atom       ...      901

 --------------------------------------------------------------------------------------------
   Iter.        energy            ||Error||_2        Shift      TRadius  Mac/Mic        Rej.
 --------------------------------------------------------------------------------------------
WARNING: 71 diagonal Hessian elements are negative!
    0      -2060.577931682981     2.417479e+00                     0.400 (TRAH MAcro)   No
WARNING : negative HOMO - LUMO gap : -0.704774
    0     dE    -3.715262e-01     2.597137e+00    -6.8698e-01      0.286 (TRAH MIcro)
    0     dE    -6.358147e-01     9.062312e-01    -3.4492e+00      0.400 (TRAH MIcro)
    0     dE    -5.076980e-01     4.746725e-01    -4.9544e+00      0.300 (TRAH MIcro)
    0     dE    -5.067962e-01     1.984294e-01    -4.9821e+00      0.298 (TRAH MIcro)
    0     dE    -5.007305e-01     2.146937e-02    -4.9924e+00      0.293 (TRAH MIcro)
    0     dE    -5.004540e-01     1.082178e-02    -4.9927e+00      0.293 (TRAH MIcro)
    0     dE    -5.004319e-01     3.822646e-03    -4.9927e+00      0.293 (TRAH MIcro)
WARNING: 12 diagonal Hessian elements are negative!
    1      -2061.048730507974     1.175828e+00                     0.480 (TRAH MAcro)   No
WARNING : negative HOMO - LUMO gap : -0.283900
    1     dE    -1.704169e-01     1.721397e+00    -3.1752e-01      0.271 (TRAH MIcro)
    1     dE    -4.219971e-01     6.668959e-01    -1.8107e+00      0.480 (TRAH MIcro)
    1     dE    -4.429723e-01     1.625562e-01    -2.0837e+00      0.480 (TRAH MIcro)
    1     dE    -4.449435e-01     4.022238e-02    -2.1212e+00      0.480 (TRAH MIcro)
    1     dE    -4.450395e-01     1.061686e-02    -2.1217e+00      0.480 (TRAH MIcro)
    1     dE    -4.450477e-01     2.112898e-03    -2.1208e+00      0.480 (TRAH MIcro)
    2      -2061.390367379928     4.942328e-01                     0.576 (TRAH MAcro)   No
    2     dE    -6.861115e-02     1.226588e+00    -1.2851e-01      0.260 (TRAH MIcro)
    2     dE    -1.201961e-01     5.965640e-01    -2.0234e-01      0.434 (TRAH MIcro)
    2     dE    -1.726669e-01     1.447449e-01    -2.9283e-01      0.576 (TRAH MIcro)
    2     dE    -1.742945e-01     6.255911e-02    -3.0574e-01      0.576 (TRAH MIcro)
    2     dE    -1.746031e-01     2.142079e-02    -3.1014e-01      0.576 (TRAH MIcro)
    2     dE    -1.746383e-01     7.597282e-03    -3.1095e-01      0.576 (TRAH MIcro)
    3      -2061.535063442971     3.382944e-01                     0.691 (TRAH MAcro)   No
    3     dE    -6.351291e-03     2.727331e-01    -1.2685e-02      0.037 (TRAH MIcro)
    3     dE    -1.237819e-02     7.439933e-02    -2.4473e-02      0.108 (TRAH MIcro)
    3     dE    -1.297526e-02     4.080296e-02    -2.5587e-02      0.119 (TRAH MIcro)
    3     dE    -1.310308e-02     9.898762e-03    -2.5806e-02      0.124 (TRAH MIcro)
    4      -2061.549162134186     3.757483e-02                     0.829 (TRAH MAcro)   No
    4     dE    -1.042569e-04     1.081106e-01    -2.0851e-04      0.006 (TRAH MIcro)
    4     dE    -4.887548e-04     1.681342e-02    -9.7635e-04      0.034 (TRAH MIcro)
    4     dE    -5.009155e-04     7.525559e-03    -1.0005e-03      0.036 (TRAH MIcro)
    4     dE    -5.034675e-04     2.253948e-03    -1.0056e-03      0.037 (TRAH MIcro)
    5      -2061.549676978887     3.720913e-03                     0.995 (TRAH MAcro)   No
    5     dE    -9.908376e-08     7.376795e-03    -1.9826e-07      0.000 (TRAH MIcro)
    5     dE    -1.215177e-06     1.581461e-03    -2.4304e-06      0.001 (TRAH MIcro)
    5     dE    -1.466086e-06     8.456693e-04    -2.9322e-06      0.001 (TRAH MIcro)
    5     dE    -1.541418e-06     3.222328e-04    -3.0828e-06      0.002 (TRAH MIcro)
    6      -2061.549678528344     3.228973e-04                           (NR   MAcro)
    6     dE    -6.809479e-09     1.340200e-04                           (NR   MIcro)
    6     dE    -9.778507e-09     9.929433e-05                           (NR   MIcro)
    6     dE    -1.059099e-08     4.963313e-05                           (NR   MIcro)
    6     dE    -1.079525e-08     2.105745e-05                           (NR   MIcro)
    6     dE    -1.081813e-08     5.529656e-06                           (NR   MIcro)
    6     dE    -1.082136e-08     2.944599e-06                           (NR   MIcro)
    6     dE    -1.082210e-08     1.467756e-06                           (NR   MIcro)
    6     dE    -1.082224e-08     5.558742e-07                           (NR   MIcro)
    7      -2061.549678534596     7.404834e-07                           (NR   MAcro)

               *****************************************************
               *                     SUCCESS                       *
               *           SCF CONVERGED AFTER  67 CYCLES          *
               *****************************************************

Old exchange energy                            =    -72.233624258 Eh
New exchange energy                            =    -72.233885708 Eh
Exchange energy change after final integration =     -0.000261450 Eh
Total energy after final integration           =  -2061.549939985 Eh
Final COS-X integration done in                =    37.001 sec

----------------
TOTAL SCF ENERGY
----------------

Total Energy       :        -2061.54993998 Eh          -56097.62582 eV

Components:
Nuclear Repulsion  :         1813.65043316 Eh           49351.93729 eV
Electronic Energy  :        -3875.20037314 Eh         -105449.56311 eV
One Electron Energy:        -6516.43459699 Eh         -177321.20022 eV
Two Electron Energy:         2641.23422385 Eh           71871.63711 eV
Max COSX asymmetry :            0.00002000 Eh               0.00054 eV

Virial components:
Potential Energy   :        -4037.02447930 Eh         -109853.02090 eV
Kinetic Energy     :         1975.47453932 Eh           53755.39509 eV
Virial Ratio       :            2.04357201


DFT components:
N(Alpha)           :       81.999653279831 electrons
N(Beta)            :       81.999653279831 electrons
N(Total)           :      163.999306559661 electrons
E(X)               :      -96.390884747645 Eh       
E(C)               :       -7.774032935409 Eh       
E(XC)              :     -104.164917683054 Eh       
DFET-embed. en.    :        0.000000000000 Eh       

---------------
SCF CONVERGENCE
---------------

  Last Energy change         ...   -6.2523e-09  Tolerance :   1.0000e-08
  Last Orbital Gradient      ...    7.4048e-07  Tolerance :   1.0000e-05
  Last Orbital Rotation      ...    1.4962e-04

             **** THE GBW FILE WAS UPDATED (10_7_orca.gbw) ****
             **** DENSITY 10_7_orca.scfp WAS UPDATED ****
             **** ENERGY FILE WAS UPDATED (10_7_orca.en.tmp) ****
             **** THE GBW FILE WAS UPDATED (10_7_orca.gbw) ****
             **** DENSITY 10_7_orca.scfp WAS UPDATED ****
----------------
ORBITAL ENERGIES
----------------

  NO   OCC          E(Eh)            E(eV) 
   0   2.0000    -102.148045     -2779.5896 
   1   2.0000    -102.094512     -2778.1329 
   2   2.0000    -102.066798     -2777.3788 
   3   2.0000     -14.592716      -397.0880 
   4   2.0000     -10.402435      -283.0646 
   5   2.0000     -10.398306      -282.9523 
   6   2.0000     -10.389459      -282.7116 
   7   2.0000     -10.380575      -282.4698 
   8   2.0000     -10.374482      -282.3040 
   9   2.0000     -10.371472      -282.2221 
  10   2.0000     -10.370381      -282.1924 
  11   2.0000     -10.363194      -281.9968 
  12   2.0000     -10.349913      -281.6354 
  13   2.0000     -10.348435      -281.5952 
  14   2.0000     -10.346434      -281.5408 
  15   2.0000     -10.336936      -281.2823 
  16   2.0000     -10.333236      -281.1816 
  17   2.0000      -9.617123      -261.6952 
  18   2.0000      -9.558294      -260.0944 
  19   2.0000      -9.530967      -259.3508 
  20   2.0000      -7.304114      -198.7551 
  21   2.0000      -7.296886      -198.5584 
  22   2.0000      -7.296842      -198.5572 
  23   2.0000      -7.243579      -197.1078 
  24   2.0000      -7.240072      -197.0124 
  25   2.0000      -7.239051      -196.9846 
  26   2.0000      -7.215914      -196.3550 
  27   2.0000      -7.212588      -196.2645 
  28   2.0000      -7.212324      -196.2573 
  29   2.0000      -3.512603       -95.5828 
  30   2.0000      -2.158750       -58.7426 
  31   2.0000      -2.155010       -58.6408 
  32   2.0000      -2.124556       -57.8121 
  33   2.0000      -0.988041       -26.8860 
  34   2.0000      -0.881037       -23.9742 
  35   2.0000      -0.843986       -22.9660 
  36   2.0000      -0.808857       -22.0101 
  37   2.0000      -0.776928       -21.1413 
  38   2.0000      -0.775254       -21.0957 
  39   2.0000      -0.736160       -20.0319 
  40   2.0000      -0.714715       -19.4484 
  41   2.0000      -0.685248       -18.6465 
  42   2.0000      -0.660692       -17.9784 
  43   2.0000      -0.642913       -17.4945 
  44   2.0000      -0.635533       -17.2937 
  45   2.0000      -0.607550       -16.5323 
  46   2.0000      -0.569398       -15.4941 
  47   2.0000      -0.525306       -14.2943 
  48   2.0000      -0.511564       -13.9204 
  49   2.0000      -0.491296       -13.3688 
  50   2.0000      -0.454909       -12.3787 
  51   2.0000      -0.454021       -12.3545 
  52   2.0000      -0.426427       -11.6037 
  53   2.0000      -0.408888       -11.1264 
  54   2.0000      -0.404445       -11.0055 
  55   2.0000      -0.400426       -10.8961 
  56   2.0000      -0.379875       -10.3369 
  57   2.0000      -0.374107       -10.1800 
  58   2.0000      -0.372777       -10.1438 
  59   2.0000      -0.351558        -9.5664 
  60   2.0000      -0.338321        -9.2062 
  61   2.0000      -0.335734        -9.1358 
  62   2.0000      -0.313255        -8.5241 
  63   2.0000      -0.300995        -8.1905 
  64   2.0000      -0.288547        -7.8518 
  65   2.0000      -0.266412        -7.2494 
  66   2.0000      -0.260648        -7.0926 
  67   2.0000      -0.247545        -6.7360 
  68   2.0000      -0.240447        -6.5429 
  69   2.0000      -0.233021        -6.3408 
  70   2.0000      -0.231707        -6.3051 
  71   2.0000      -0.223171        -6.0728 
  72   2.0000      -0.215071        -5.8524 
  73   2.0000      -0.206776        -5.6267 
  74   2.0000      -0.183102        -4.9825 
  75   2.0000      -0.179563        -4.8862 
  76   2.0000      -0.164873        -4.4864 
  77   2.0000      -0.156869        -4.2686 
  78   2.0000      -0.148054        -4.0288 
  79   2.0000      -0.145989        -3.9725 
  80   2.0000      -0.144674        -3.9368 
  81   2.0000      -0.131611        -3.5813 
  82   0.0000       0.050157         1.3648 
  83   0.0000       0.072921         1.9843 
  84   0.0000       0.110976         3.0198 
  85   0.0000       0.117735         3.2037 
  86   0.0000       0.150378         4.0920 
  87   0.0000       0.188789         5.1372 
  88   0.0000       0.190908         5.1949 
  89   0.0000       0.203003         5.5240 
  90   0.0000       0.218629         5.9492 
  91   0.0000       0.222784         6.0622 
  92   0.0000       0.230685         6.2772 
  93   0.0000       0.250822         6.8252 
  94   0.0000       0.261983         7.1289 
  95   0.0000       0.266498         7.2518 
  96   0.0000       0.271350         7.3838 
  97   0.0000       0.285082         7.7575 
  98   0.0000       0.299844         8.1592 
  99   0.0000       0.325084         8.8460 
 100   0.0000       0.329326         8.9614 
 101   0.0000       0.353536         9.6202 
 102   0.0000       0.355582         9.6759 
 103   0.0000       0.359503         9.7826 
 104   0.0000       0.370471        10.0810 
 105   0.0000       0.377031        10.2595 
 106   0.0000       0.395413        10.7597 
 107   0.0000       0.411962        11.2101 
 108   0.0000       0.422317        11.4918 
 109   0.0000       0.432131        11.7589 
 110   0.0000       0.437367        11.9014 
 111   0.0000       0.458724        12.4825 
 112   0.0000       0.475026        12.9261 
 113   0.0000       0.505408        13.7528 
 114   0.0000       0.513710        13.9788 
 115   0.0000       0.534478        14.5439 
 116   0.0000       0.561279        15.2732 
 117   0.0000       0.571106        15.5406 
 118   0.0000       0.587529        15.9875 
 119   0.0000       0.596839        16.2408 
 120   0.0000       0.598013        16.2728 
 121   0.0000       0.611440        16.6381 
 122   0.0000       0.615063        16.7367 
 123   0.0000       0.628934        17.1142 
 124   0.0000       0.632936        17.2231 
 125   0.0000       0.645738        17.5714 
 126   0.0000       0.650226        17.6935 
 127   0.0000       0.651660        17.7326 
 128   0.0000       0.670659        18.2496 
 129   0.0000       0.677959        18.4482 
 130   0.0000       0.684379        18.6229 
 131   0.0000       0.690407        18.7869 
 132   0.0000       0.700206        19.0536 
 133   0.0000       0.708591        19.2817 
 134   0.0000       0.710462        19.3326 
 135   0.0000       0.713369        19.4118 
 136   0.0000       0.718704        19.5569 
 137   0.0000       0.723062        19.6755 
 138   0.0000       0.727404        19.7937 
 139   0.0000       0.744024        20.2459 
 140   0.0000       0.747463        20.3395 
 141   0.0000       0.757840        20.6219 
 142   0.0000       0.760708        20.6999 
 143   0.0000       0.771394        20.9907 
 144   0.0000       0.786214        21.3940 
 145   0.0000       0.793008        21.5789 
 146   0.0000       0.803210        21.8565 
 147   0.0000       0.823508        22.4088 
 148   0.0000       0.830135        22.5891 
 149   0.0000       0.848851        23.0984 
 150   0.0000       0.863393        23.4941 
 151   0.0000       0.871094        23.7037 
 152   0.0000       0.878414        23.9029 
 153   0.0000       0.893100        24.3025 
 154   0.0000       0.901350        24.5270 
 155   0.0000       0.910883        24.7864 
 156   0.0000       0.928247        25.2589 
 157   0.0000       0.942468        25.6459 
 158   0.0000       0.948756        25.8170 
 159   0.0000       0.951801        25.8998 
 160   0.0000       0.954041        25.9608 
 161   0.0000       0.971630        26.4394 
 162   0.0000       0.982772        26.7426 
 163   0.0000       0.984756        26.7966 
 164   0.0000       0.987202        26.8631 
 165   0.0000       0.997984        27.1565 
 166   0.0000       1.017381        27.6843 
 167   0.0000       1.023413        27.8485 
 168   0.0000       1.035730        28.1836 
 169   0.0000       1.039483        28.2858 
 170   0.0000       1.048598        28.5338 
 171   0.0000       1.056439        28.7472 
 172   0.0000       1.060313        28.8526 
 173   0.0000       1.068669        29.0800 
 174   0.0000       1.071080        29.1456 
 175   0.0000       1.074082        29.2273 
 176   0.0000       1.079538        29.3757 
 177   0.0000       1.085015        29.5248 
 178   0.0000       1.088714        29.6254 
 179   0.0000       1.092105        29.7177 
 180   0.0000       1.097844        29.8739 
 181   0.0000       1.103302        30.0224 
 182   0.0000       1.112310        30.2675 
 183   0.0000       1.123917        30.5833 
 184   0.0000       1.132781        30.8245 
 185   0.0000       1.138451        30.9788 
 186   0.0000       1.152921        31.3726 
 187   0.0000       1.166900        31.7530 
 188   0.0000       1.175904        31.9980 
 189   0.0000       1.183489        32.2044 
 190   0.0000       1.204818        32.7848 
 191   0.0000       1.208649        32.8890 
 192   0.0000       1.222084        33.2546 
 193   0.0000       1.226134        33.3648 
 194   0.0000       1.241804        33.7912 
 195   0.0000       1.258558        34.2471 
 196   0.0000       1.266437        34.4615 
 197   0.0000       1.277292        34.7569 
 198   0.0000       1.293508        35.1981 
 199   0.0000       1.299126        35.3510 
 200   0.0000       1.338229        36.4151 
 201   0.0000       1.339138        36.4398 
 202   0.0000       1.354423        36.8557 
 203   0.0000       1.370505        37.2933 
 204   0.0000       1.380435        37.5636 
 205   0.0000       1.405756        38.2526 
 206   0.0000       1.418531        38.6002 
 207   0.0000       1.439926        39.1824 
 208   0.0000       1.451971        39.5101 
 209   0.0000       1.462126        39.7865 
 210   0.0000       1.485226        40.4150 
 211   0.0000       1.499140        40.7937 
 212   0.0000       1.511613        41.1331 
 213   0.0000       1.521790        41.4100 
 214   0.0000       1.536659        41.8146 
 215   0.0000       1.540965        41.9318 
 216   0.0000       1.548520        42.1374 
 217   0.0000       1.582272        43.0558 
 218   0.0000       1.591599        43.3096 
 219   0.0000       1.601841        43.5883 
 220   0.0000       1.612048        43.8660 
 221   0.0000       1.620874        44.1062 
 222   0.0000       1.629896        44.3517 
 223   0.0000       1.633925        44.4613 
 224   0.0000       1.656651        45.0798 
 225   0.0000       1.659136        45.1474 
 226   0.0000       1.685963        45.8774 
 227   0.0000       1.700663        46.2774 
 228   0.0000       1.717883        46.7460 
 229   0.0000       1.750790        47.6414 
 230   0.0000       1.759240        47.8713 
 231   0.0000       1.873603        50.9833 
 232   0.0000       1.907142        51.8960 
 233   0.0000       1.916201        52.1425 
 234   0.0000       1.942062        52.8462 
 235   0.0000       1.954659        53.1890 
 236   0.0000       1.983047        53.9615 
 237   0.0000       2.004062        54.5333 
 238   0.0000       2.026858        55.1536 
 239   0.0000       2.053453        55.8773 
 240   0.0000       2.083135        56.6850 
 241   0.0000       2.100024        57.1446 
 242   0.0000       2.109209        57.3945 
 243   0.0000       2.145808        58.3904 
 244   0.0000       2.149383        58.4877 
 245   0.0000       2.156381        58.6781 
 246   0.0000       2.189609        59.5823 
 247   0.0000       2.211673        60.1827 
 248   0.0000       2.250333        61.2347 
 249   0.0000       2.260818        61.5200 
 250   0.0000       2.303608        62.6844 
 251   0.0000       2.322761        63.2055 
 252   0.0000       2.353870        64.0521 
 253   0.0000       2.362953        64.2992 
 254   0.0000       2.370051        64.4924 
 255   0.0000       2.377707        64.7007 
 256   0.0000       2.398693        65.2718 
 257   0.0000       2.406658        65.4885 
 258   0.0000       2.414309        65.6967 
 259   0.0000       2.430818        66.1459 
 260   0.0000       2.455309        66.8124 
 261   0.0000       2.462603        67.0108 
 262   0.0000       2.480639        67.5016 
 263   0.0000       2.506114        68.1948 
 264   0.0000       2.524482        68.6947 
 265   0.0000       2.558128        69.6102 
 266   0.0000       2.573780        70.0361 
 267   0.0000       2.593466        70.5718 
 268   0.0000       2.608038        70.9683 
 269   0.0000       2.620639        71.3112 
 270   0.0000       2.624502        71.4163 
 271   0.0000       2.632006        71.6205 
 272   0.0000       2.637508        71.7702 
 273   0.0000       2.687142        73.1208 
 274   0.0000       2.731800        74.3361 
 275   0.0000       2.769840        75.3712 
 276   0.0000       2.789387        75.9031 
 277   0.0000       2.793738        76.0215 
 278   0.0000       2.803355        76.2832 
 279   0.0000       2.812314        76.5270 
 280   0.0000       2.817083        76.6567 
 281   0.0000       2.851642        77.5971 
 282   0.0000       2.873302        78.1865 
 283   0.0000       2.886260        78.5391 
 284   0.0000       2.901871        78.9639 
 285   0.0000       2.922651        79.5294 
 286   0.0000       2.950672        80.2919 
 287   0.0000       2.972556        80.8873 
 288   0.0000       3.005607        81.7867 
 289   0.0000       3.031422        82.4892 
 290   0.0000       3.064972        83.4021 
 291   0.0000       3.084300        83.9281 
 292   0.0000       3.141270        85.4783 
 293   0.0000       3.200687        87.0951 
 294   0.0000       3.209509        87.3352 
 295   0.0000       3.515487        95.6613 
 296   0.0000       3.611722        98.2799 
 297   0.0000       3.703591       100.7798 
 298   0.0000      13.334417       362.8479 
 299   0.0000      13.579624       369.5204 
 300   0.0000      13.649697       371.4271 
 301   0.0000      13.862764       377.2250 
 302   0.0000      13.873868       377.5271 
 303   0.0000      13.944953       379.4614 
 304   0.0000      14.132862       384.5747 
 305   0.0000      14.241630       387.5344 
 306   0.0000      14.272828       388.3834 
 307   0.0000      14.347724       390.4214 
 308   0.0000      14.439641       392.9226 
 309   0.0000      14.600404       397.2972 
 310   0.0000      14.666644       399.0997 
 311   0.0000      19.652485       534.7713 
 312   0.0000      51.804629      1409.6756 

                    ********************************
                    * MULLIKEN POPULATION ANALYSIS *
                    ********************************

-----------------------
MULLIKEN ATOMIC CHARGES
-----------------------
   0 Pd:    0.184786
   1 Cl:   -0.384500
   2 Cl:   -0.387992
   3 Cl:   -0.464339
   4 N :   -0.584349
   5 C :    0.029067
   6 C :   -0.340160
   7 C :   -0.156100
   8 C :    0.400616
   9 C :    0.051582
  10 H :    0.207227
  11 H :    0.289381
  12 H :    0.216839
  13 C :    0.031492
  14 C :   -0.307713
  15 C :   -0.295587
  16 C :    0.147101
  17 H :    0.191021
  18 H :    0.193795
  19 C :   -0.076079
  20 C :   -0.333025
  21 C :   -0.345724
  22 C :   -0.187845
  23 H :    0.183597
  24 H :    0.191691
  25 H :    0.320970
  26 H :    0.224250
Sum of atomic charges:   -1.0000000

--------------------------------
MULLIKEN REDUCED ORBITAL CHARGES
--------------------------------
  0 Pds       :     2.565789  s :     2.565789
      pz      :     2.125901  p :     6.389974
      px      :     2.139507
      py      :     2.124566
      dz2     :     1.959690  d :     8.855301
      dxz     :     1.511277
      dyz     :     1.808879
      dx2y2   :     1.691511
      dxy     :     1.883943
      f0      :     0.000509  f :     0.004150
      f+1     :     0.000538
      f-1     :     0.000211
      f+2     :     0.001085
      f-2     :     0.000776
      f+3     :     0.000742
      f-3     :     0.000289
  1 Cls       :     5.937018  s :     5.937018
      pz      :     3.885272  p :    11.433605
      px      :     3.849497
      py      :     3.698835
      dz2     :     0.002027  d :     0.013877
      dxz     :     0.001564
      dyz     :     0.003499
      dx2y2   :     0.003097
      dxy     :     0.003690
  2 Cls       :     5.957378  s :     5.957378
      pz      :     3.894686  p :    11.404739
      px      :     3.734034
      py      :     3.776018
      dz2     :     0.001808  d :     0.025876
      dxz     :     0.005921
      dyz     :     0.004849
      dx2y2   :     0.000680
      dxy     :     0.012617
  3 Cls       :     5.944449  s :     5.944449
      pz      :     3.824854  p :    11.510360
      px      :     3.764459
      py      :     3.921046
      dz2     :     0.001614  d :     0.009530
      dxz     :     0.003260
      dyz     :     0.001054
      dx2y2   :     0.002052
      dxy     :     0.001550
  4 N s       :     3.653113  s :     3.653113
      pz      :     1.200757  p :     3.885052
      px      :     1.252187
      py      :     1.432108
      dz2     :     0.010318  d :     0.046184
      dxz     :     0.008717
      dyz     :     0.011089
      dx2y2   :     0.008105
      dxy     :     0.007955
  5 C s       :     3.160464  s :     3.160464
      pz      :     0.910575  p :     2.750645
      px      :     0.949658
      py      :     0.890412
      dz2     :     0.013999  d :     0.059825
      dxz     :     0.012875
      dyz     :     0.014932
      dx2y2   :     0.008294
      dxy     :     0.009724
  6 C s       :     3.286389  s :     3.286389
      pz      :     1.080390  p :     3.015137
      px      :     0.970654
      py      :     0.964092
      dz2     :     0.007830  d :     0.038635
      dxz     :     0.006862
      dyz     :     0.009390
      dx2y2   :     0.007252
      dxy     :     0.007301
  7 C s       :     3.254480  s :     3.254480
      pz      :     0.930393  p :     2.860174
      px      :     0.947685
      py      :     0.982096
      dz2     :     0.010194  d :     0.041447
      dxz     :     0.007463
      dyz     :     0.008940
      dx2y2   :     0.006965
      dxy     :     0.007884
  8 C s       :     3.138438  s :     3.138438
      pz      :     0.827869  p :     2.396738
      px      :     0.809602
      py      :     0.759267
      dz2     :     0.013578  d :     0.064208
      dxz     :     0.012735
      dyz     :     0.013432
      dx2y2   :     0.011876
      dxy     :     0.012587
  9 C s       :     3.216633  s :     3.216633
      pz      :     0.869870  p :     2.685857
      px      :     0.952503
      py      :     0.863484
      dz2     :     0.010370  d :     0.045927
      dxz     :     0.008761
      dyz     :     0.010009
      dx2y2   :     0.008564
      dxy     :     0.008223
 10 H s       :     0.792773  s :     0.792773
 11 H s       :     0.710619  s :     0.710619
 12 H s       :     0.783161  s :     0.783161
 13 C s       :     3.244495  s :     3.244495
      pz      :     0.935542  p :     2.678310
      px      :     0.898040
      py      :     0.844728
      dz2     :     0.009242  d :     0.045703
      dxz     :     0.007299
      dyz     :     0.011820
      dx2y2   :     0.008142
      dxy     :     0.009199
 14 C s       :     3.280921  s :     3.280921
      pz      :     0.966882  p :     2.986558
      px      :     0.993572
      py      :     1.026104
      dz2     :     0.009663  d :     0.040234
      dxz     :     0.008145
      dyz     :     0.008559
      dx2y2   :     0.006312
      dxy     :     0.007555
 15 C s       :     3.296752  s :     3.296752
      pz      :     0.982918  p :     2.957802
      px      :     1.007517
      py      :     0.967367
      dz2     :     0.008068  d :     0.041032
      dxz     :     0.009128
      dyz     :     0.009361
      dx2y2   :     0.006388
      dxy     :     0.008088
 16 C s       :     3.234953  s :     3.234953
      pz      :     0.871084  p :     2.570543
      px      :     0.893007
      py      :     0.806452
      dz2     :     0.010656  d :     0.047403
      dxz     :     0.008630
      dyz     :     0.010489
      dx2y2   :     0.008722
      dxy     :     0.008906
 17 H s       :     0.808979  s :     0.808979
 18 H s       :     0.806205  s :     0.806205
 19 C s       :     3.372992  s :     3.372992
      pz      :     0.912978  p :     2.661424
      px      :     0.922249
      py      :     0.826198
      dz2     :     0.010800  d :     0.041663
      dxz     :     0.006626
      dyz     :     0.007334
      dx2y2   :     0.007210
      dxy     :     0.009693
 20 C s       :     3.286082  s :     3.286082
      pz      :     0.990483  p :     3.007049
      px      :     1.041978
      py      :     0.974589
      dz2     :     0.007002  d :     0.039894
      dxz     :     0.008480
      dyz     :     0.009751
      dx2y2   :     0.006696
      dxy     :     0.007966
 21 C s       :     3.296274  s :     3.296274
      pz      :     0.980394  p :     3.009789
      px      :     0.963212
      py      :     1.066183
      dz2     :     0.007967  d :     0.039661
      dxz     :     0.008249
      dyz     :     0.008810
      dx2y2   :     0.007366
      dxy     :     0.007268
 22 C s       :     3.235365  s :     3.235365
      pz      :     1.004024  p :     2.911275
      px      :     0.959391
      py      :     0.947860
      dz2     :     0.007369  d :     0.041205
      dxz     :     0.006446
      dyz     :     0.010400
      dx2y2   :     0.008955
      dxy     :     0.008035
 23 H s       :     0.816403  s :     0.816403
 24 H s       :     0.808309  s :     0.808309
 25 H s       :     0.679030  s :     0.679030
 26 H s       :     0.775750  s :     0.775750


                     *******************************
                     * LOEWDIN POPULATION ANALYSIS *
                     *******************************

----------------------
LOEWDIN ATOMIC CHARGES
----------------------
   0 Pd:   -0.788772
   1 Cl:   -0.106663
   2 Cl:   -0.252141
   3 Cl:   -0.220041
   4 N :    0.043832
   5 C :   -0.001240
   6 C :   -0.172848
   7 C :   -0.090697
   8 C :    0.090895
   9 C :   -0.060296
  10 H :    0.133138
  11 H :    0.169608
  12 H :    0.138984
  13 C :   -0.030460
  14 C :   -0.144641
  15 C :   -0.115786
  16 C :   -0.036398
  17 H :    0.128307
  18 H :    0.130010
  19 C :   -0.002701
  20 C :   -0.161280
  21 C :   -0.128490
  22 C :   -0.125762
  23 H :    0.122723
  24 H :    0.125624
  25 H :    0.209280
  26 H :    0.145813

-------------------------------
LOEWDIN REDUCED ORBITAL CHARGES
-------------------------------
  0 Pds       :     2.588442  s :     2.588442
      pz      :     2.294755  p :     6.921122
      px      :     2.335730
      py      :     2.290636
      dz2     :     2.009511  d :     9.273409
      dxz     :     1.620755
      dyz     :     1.892930
      dx2y2   :     1.784185
      dxy     :     1.966028
      f0      :     0.000739  f :     0.005799
      f+1     :     0.000713
      f-1     :     0.000267
      f+2     :     0.001524
      f-2     :     0.001115
      f+3     :     0.001077
      f-3     :     0.000362
  1 Cls       :     5.762999  s :     5.762999
      pz      :     3.851024  p :    11.329523
      px      :     3.810481
      py      :     3.668017
      dz2     :     0.002096  d :     0.014140
      dxz     :     0.001544
      dyz     :     0.003578
      dx2y2   :     0.003054
      dxy     :     0.003869
  2 Cls       :     5.852325  s :     5.852325
      pz      :     3.890659  p :    11.374267
      px      :     3.720632
      py      :     3.762977
      dz2     :     0.001798  d :     0.025548
      dxz     :     0.005839
      dyz     :     0.004774
      dx2y2   :     0.000689
      dxy     :     0.012449
  3 Cls       :     5.785655  s :     5.785655
      pz      :     3.798709  p :    11.424571
      px      :     3.734241
      py      :     3.891620
      dz2     :     0.001642  d :     0.009815
      dxz     :     0.003429
      dyz     :     0.001099
      dx2y2   :     0.002125
      dxy     :     0.001519
  4 N s       :     3.092369  s :     3.092369
      pz      :     1.198491  p :     3.757908
      px      :     1.220763
      py      :     1.338653
      dz2     :     0.024424  d :     0.105891
      dxz     :     0.022934
      dyz     :     0.025896
      dx2y2   :     0.016237
      dxy     :     0.016401
  5 C s       :     2.875147  s :     2.875147
      pz      :     0.988264  p :     2.993986
      px      :     0.990181
      py      :     1.015541
      dz2     :     0.030244  d :     0.132108
      dxz     :     0.026797
      dyz     :     0.036559
      dx2y2   :     0.019175
      dxy     :     0.019333
  6 C s       :     2.889013  s :     2.889013
      pz      :     1.066396  p :     3.194172
      px      :     1.057400
      py      :     1.070376
      dz2     :     0.017323  d :     0.089663
      dxz     :     0.015213
      dyz     :     0.021161
      dx2y2   :     0.016783
      dxy     :     0.019183
  7 C s       :     2.886399  s :     2.886399
      pz      :     1.047999  p :     3.110602
      px      :     1.017817
      py      :     1.044786
      dz2     :     0.023612  d :     0.093697
      dxz     :     0.018747
      dyz     :     0.020652
      dx2y2   :     0.014289
      dxy     :     0.016396
  8 C s       :     2.806018  s :     2.806018
      pz      :     0.993758  p :     2.951665
      px      :     0.943875
      py      :     1.014033
      dz2     :     0.031885  d :     0.151422
      dxz     :     0.029660
      dyz     :     0.031695
      dx2y2   :     0.026064
      dxy     :     0.032118
  9 C s       :     2.828764  s :     2.828764
      pz      :     1.041792  p :     3.117867
      px      :     1.025124
      py      :     1.050952
      dz2     :     0.025014  d :     0.113665
      dxz     :     0.021008
      dyz     :     0.026785
      dx2y2   :     0.020310
      dxy     :     0.020547
 10 H s       :     0.866862  s :     0.866862
 11 H s       :     0.830392  s :     0.830392
 12 H s       :     0.861016  s :     0.861016
 13 C s       :     2.822904  s :     2.822904
      pz      :     1.021486  p :     3.094241
      px      :     1.027202
      py      :     1.045553
      dz2     :     0.023274  d :     0.113314
      dxz     :     0.018641
      dyz     :     0.029248
      dx2y2   :     0.018560
      dxy     :     0.023591
 14 C s       :     2.881391  s :     2.881391
      pz      :     1.069621  p :     3.171576
      px      :     1.040821
      py      :     1.061134
      dz2     :     0.022370  d :     0.091674
      dxz     :     0.019939
      dyz     :     0.020794
      dx2y2   :     0.013680
      dxy     :     0.014891
 15 C s       :     2.884607  s :     2.884607
      pz      :     1.061844  p :     3.138381
      px      :     1.025192
      py      :     1.051345
      dz2     :     0.018631  d :     0.092798
      dxz     :     0.018567
      dyz     :     0.023762
      dx2y2   :     0.014852
      dxy     :     0.016987
 16 C s       :     2.828047  s :     2.828047
      pz      :     1.045400  p :     3.092039
      px      :     1.017044
      py      :     1.029596
      dz2     :     0.026135  d :     0.116312
      dxz     :     0.021177
      dyz     :     0.026328
      dx2y2   :     0.020528
      dxy     :     0.022144
 17 H s       :     0.871693  s :     0.871693
 18 H s       :     0.869990  s :     0.869990
 19 C s       :     2.902651  s :     2.902651
      pz      :     1.022532  p :     3.005935
      px      :     0.996059
      py      :     0.987344
      dz2     :     0.022978  d :     0.094115
      dxz     :     0.015278
      dyz     :     0.018541
      dx2y2   :     0.016248
      dxy     :     0.021070
 20 C s       :     2.879963  s :     2.879963
      pz      :     1.056856  p :     3.189982
      px      :     1.056507
      py      :     1.076619
      dz2     :     0.016755  d :     0.091334
      dxz     :     0.016820
      dyz     :     0.024490
      dx2y2   :     0.015424
      dxy     :     0.017845
 21 C s       :     2.888422  s :     2.888422
      pz      :     1.060206  p :     3.150909
      px      :     1.026392
      py      :     1.064311
      dz2     :     0.018223  d :     0.089160
      dxz     :     0.020729
      dyz     :     0.020173
      dx2y2   :     0.015328
      dxy     :     0.014707
 22 C s       :     2.889360  s :     2.889360
      pz      :     1.043688  p :     3.142472
      px      :     1.036701
      py      :     1.062083
      dz2     :     0.016284  d :     0.093930
      dxz     :     0.014123
      dyz     :     0.022471
      dx2y2   :     0.020566
      dxy     :     0.020486
 23 H s       :     0.877277  s :     0.877277
 24 H s       :     0.874376  s :     0.874376
 25 H s       :     0.790720  s :     0.790720
 26 H s       :     0.854187  s :     0.854187


                      *****************************
                      * MAYER POPULATION ANALYSIS *
                      *****************************

  NA   - Mulliken gross atomic population
  ZA   - Total nuclear charge
  QA   - Mulliken gross atomic charge
  VA   - Mayer's total valence
  BVA  - Mayer's bonded valence
  FA   - Mayer's free valence

  ATOM       NA         ZA         QA         VA         BVA        FA
  0 Pd    17.8152    18.0000     0.1848     2.7808     2.7808     0.0000
  1 Cl    17.3845    17.0000    -0.3845     1.0675     1.0675    -0.0000
  2 Cl    17.3880    17.0000    -0.3880     0.8347     0.8347    -0.0000
  3 Cl    17.4643    17.0000    -0.4643     0.9291     0.9291    -0.0000
  4 N      7.5843     7.0000    -0.5843     3.2475     3.2475    -0.0000
  5 C      5.9709     6.0000     0.0291     3.7310     3.7310    -0.0000
  6 C      6.3402     6.0000    -0.3402     3.8041     3.8041     0.0000
  7 C      6.1561     6.0000    -0.1561     3.6986     3.6986    -0.0000
  8 C      5.5994     6.0000     0.4006     3.4796     3.4796     0.0000
  9 C      5.9484     6.0000     0.0516     3.7022     3.7022     0.0000
 10 H      0.7928     1.0000     0.2072     0.9161     0.9161     0.0000
 11 H      0.7106     1.0000     0.2894     0.9115     0.9115     0.0000
 12 H      0.7832     1.0000     0.2168     0.9205     0.9205    -0.0000
 13 C      5.9685     6.0000     0.0315     3.6430     3.6430    -0.0000
 14 C      6.3077     6.0000    -0.3077     3.8144     3.8144     0.0000
 15 C      6.2956     6.0000    -0.2956     3.7959     3.7959     0.0000
 16 C      5.8529     6.0000     0.1471     3.6634     3.6634     0.0000
 17 H      0.8090     1.0000     0.1910     0.9227     0.9227     0.0000
 18 H      0.8062     1.0000     0.1938     0.9210     0.9210    -0.0000
 19 C      6.0761     6.0000    -0.0761     3.6142     3.6142    -0.0000
 20 C      6.3330     6.0000    -0.3330     3.8096     3.8096     0.0000
 21 C      6.3457     6.0000    -0.3457     3.8698     3.8698    -0.0000
 22 C      6.1878     6.0000    -0.1878     3.8044     3.8044    -0.0000
 23 H      0.8164     1.0000     0.1836     0.9235     0.9235     0.0000
 24 H      0.8083     1.0000     0.1917     0.9180     0.9180    -0.0000
 25 H      0.6790     1.0000     0.3210     0.9092     0.9092    -0.0000
 26 H      0.7757     1.0000     0.2243     0.9261     0.9261    -0.0000

  Mayer bond orders larger than 0.100000
B(  0-Pd,  1-Cl) :   0.7597 B(  0-Pd,  3-Cl) :   0.6928 B(  0-Pd,  4-N ) :   0.4254 
B(  0-Pd, 19-C ) :   0.8007 B(  1-Cl, 25-H ) :   0.1365 B(  2-Cl, 25-H ) :   0.7677 
B(  3-Cl, 19-C ) :   0.1041 B(  4-N ,  5-C ) :   1.4878 B(  4-N ,  8-C ) :   1.1222 
B(  5-C ,  6-C ) :   1.2988 B(  5-C , 11-H ) :   0.8511 B(  6-C ,  7-C ) :   1.4581 
B(  6-C , 12-H ) :   0.9225 B(  7-C ,  9-C ) :   1.2766 B(  7-C , 10-H ) :   0.9299 
B(  8-C ,  9-C ) :   1.2303 B(  8-C , 13-C ) :   1.1475 B(  9-C , 14-C ) :   1.1650 
B( 13-C , 16-C ) :   1.2571 B( 13-C , 19-C ) :   1.1841 B( 14-C , 15-C ) :   1.6493 
B( 14-C , 17-H ) :   0.9306 B( 15-C , 16-C ) :   1.1557 B( 15-C , 18-H ) :   0.9290 
B( 16-C , 20-C ) :   1.2826 B( 19-C , 21-C ) :   1.4543 B( 20-C , 22-C ) :   1.4865 
B( 20-C , 23-H ) :   0.9318 B( 21-C , 22-C ) :   1.3502 B( 21-C , 26-H ) :   0.9039 
B( 22-C , 24-H ) :   0.9262 


------------------
HIRSHFELD ANALYSIS
------------------

Total integrated alpha density =     81.999653280
Total integrated beta density  =     81.999653280

  ATOM     CHARGE      SPIN    
   0 Pd   0.413616    0.000000
   1 Cl  -0.432269    0.000000
   2 Cl  -0.236257    0.000000
   3 Cl  -0.544492    0.000000
   4 N   -0.124733    0.000000
   5 C    0.047879    0.000000
   6 C   -0.057254    0.000000
   7 C   -0.027362    0.000000
   8 C    0.057138    0.000000
   9 C   -0.018620    0.000000
  10 H    0.043662    0.000000
  11 H    0.043661    0.000000
  12 H    0.043835    0.000000
  13 C   -0.038336    0.000000
  14 C   -0.061222    0.000000
  15 C   -0.044908    0.000000
  16 C   -0.014858    0.000000
  17 H    0.034586    0.000000
  18 H    0.036890    0.000000
  19 C   -0.129324    0.000000
  20 C   -0.071440    0.000000
  21 C   -0.058324    0.000000
  22 C   -0.048043    0.000000
  23 H    0.029275    0.000000
  24 H    0.033060    0.000000
  25 H    0.092918    0.000000
  26 H    0.031615    0.000000

  TOTAL  -0.999307    0.000000

-------
TIMINGS
-------

Total SCF time: 0 days 0 hours 12 min 35 sec 

Total time                  ....     755.993 sec
Sum of individual times     ....     751.523 sec  ( 99.4%)

Fock matrix formation       ....     744.766 sec  ( 98.5%)
  Split-RI-J                ....     114.793 sec  ( 15.4% of F)
  Chain of spheres X        ....     558.555 sec  ( 75.0% of F)
  XC integration            ....      71.089 sec  (  9.5% of F)
    Basis function eval.    ....      22.379 sec  ( 31.5% of XC)
    Density eval.           ....      17.668 sec  ( 24.9% of XC)
    XC-Functional eval.     ....       3.088 sec  (  4.3% of XC)
    XC-Potential eval.      ....      23.264 sec  ( 32.7% of XC)
Diagonalization             ....       0.391 sec  (  0.1%)
Density matrix formation    ....       0.094 sec  (  0.0%)
Population analysis         ....       1.047 sec  (  0.1%)
Initial guess               ....       0.144 sec  (  0.0%)
Orbital Transformation      ....       0.382 sec  (  0.1%)
Orbital Orthonormalization  ....       0.000 sec  (  0.0%)
DIIS solution               ....       0.141 sec  (  0.0%)
Grid generation             ....       4.557 sec  (  0.6%)

Maximum memory used throughout the entire SCF-calculation: 146.3 MB


-------------------------------------------------------------------------------
                          DFT DISPERSION CORRECTION                            
                                                                               
                              DFTD3 V3.1  Rev 1                                
                          USING Becke-Johnson damping                          
-------------------------------------------------------------------------------
The PBEh-3c composite method is recognized
Using three-body term ABC
Active option DFTDOPT                   ...         4   

molecular C6(AA) [au] = 16645.526108 


            DFT-D V3
 parameters
 s6 scaling factor         :     1.0000 
 a1 scaling factor         :     0.4860 
 s8 scaling factor         :     0.0000 
 a2 scaling factor         :     4.5000 
 Damping factor alpha9(ATM):    16.0000 
 ad hoc parameters k1-k3   :    16.0000     1.3333    -4.0000 

 Edisp/kcal,au: -15.036373898579  -0.023961984506 
 E6   /kcal   : -15.070699980 
 E8   /kcal   :  -0.000000000 
 E6(ABC)      :   0.034326082 
 % E8         :   0.000000000 
 % E6(ABC)    :  -0.228286966 

-------------------------   ----------------
Dispersion correction           -0.023961985
-------------------------   ----------------

 ** NOTE ** -> element pd will be treated as ni
------------------   -----------------
gCP correction             0.041966923
------------------   -----------------

-------------------------   --------------------
FINAL SINGLE POINT ENERGY     -2061.531935045949
-------------------------   --------------------

------------------------------------------------------------------------------
                         ORCA SCF GRADIENT CALCULATION
------------------------------------------------------------------------------

 ... reading COSX grid (gridx3)
Gradient of the Kohn-Sham DFT energy:
Kohn-Sham wavefunction type      ... RKS
Hartree-Fock exchange scaling    ...    0.420
Number of operators              ...    1
Number of atoms                  ...   27
Basis set dimensions             ...  313
Integral neglect threshold       ... 2.5e-11
Integral primitive cutoff        ... 2.5e-12
SHARK Integral package           ... ON

Nuc. rep. gradient       (SHARK) ... done (  0.0 sec)
HCore & Overlap gradient (SHARK) ... done (  1.0 sec)
ECP gradient             (SHARK) ... done (  1.6 sec)
RI-J gradient            (SHARK) ... done (  5.8 sec)
COSX-gradient                    ... done ( 45.9 sec)
Exchange-correlation gradient    ... done
Dispersion correction            ... done
gCP correction                   ... done

------------------
CARTESIAN GRADIENT
------------------

   1   Pd  :   -0.004136999    0.000772587    0.003464702
   2   Cl  :   -0.005553274    0.000264238    0.005116072
   3   Cl  :   -0.002671552   -0.000521985    0.001875507
   4   Cl  :   -0.000307857    0.001429169   -0.002326407
   5   N   :   -0.001593816   -0.003234921    0.003716602
   6   C   :    0.000783691   -0.001033048   -0.000470175
   7   C   :    0.000794931   -0.000903771   -0.002318065
   8   C   :   -0.002770649   -0.001397185   -0.000292372
   9   C   :    0.000517123   -0.000789894    0.001162755
  10   C   :    0.001185273    0.004034967    0.000783756
  11   H   :    0.001198948   -0.000268447   -0.001103175
  12   H   :    0.000876809   -0.000388775    0.001316049
  13   H   :   -0.000068298    0.001353596   -0.000287522
  14   C   :    0.004342941    0.000156810   -0.004412261
  15   C   :   -0.000372896   -0.002586184   -0.003414917
  16   C   :   -0.001089999   -0.001333871   -0.000837945
  17   C   :    0.000467838    0.001423659    0.002812994
  18   H   :   -0.000322536   -0.000164834    0.001258415
  19   H   :   -0.002514944   -0.000450041    0.001957316
  20   C   :   -0.002930721    0.002417943    0.006635319
  21   C   :   -0.000352857   -0.003944502   -0.003574941
  22   C   :    0.007537285   -0.002556702   -0.010940513
  23   C   :    0.003631626    0.004052852    0.000851388
  24   H   :   -0.001837447    0.000907307    0.001493942
  25   H   :    0.000248752    0.003058079    0.002163512
  26   H   :    0.005048168    0.001762812   -0.003114470
  27   H   :    0.000914746   -0.002181503   -0.002076631

Difference to translation invariance:
           :    0.0010242874   -0.0001216444   -0.0005610648

Difference to rotation invariance:
           :    0.0064455284   -0.0073144117    0.0098981633

Norm of the cartesian gradient     ...    0.0251028168
RMS gradient                       ...    0.0027892019
MAX gradient                       ...    0.0109405132

-------
TIMINGS
-------

Total SCF gradient time            ...       64.242 sec

One electron gradient       ....       2.589 sec  (  4.0%)
RI-J Coulomb gradient       ....       5.752 sec  (  9.0%)
COSX gradient               ....      45.875 sec  ( 71.4%)
XC gradient                 ....       8.579 sec  ( 13.4%)

Maximum memory used throughout the entire SCFGRAD-calculation: 115.7 MB

                            ***************************************
                            *     ORCA property calculations      *
                            ***************************************

                                    ---------------------
                                    Active property flags
                                    ---------------------
   (+) Dipole Moment


------------------------------------------------------------------------------
                       ORCA ELECTRIC PROPERTIES CALCULATION
------------------------------------------------------------------------------

Dipole Moment Calculation                       ... on
Quadrupole Moment Calculation                   ... off
Polarizability Calculation                      ... off
GBWName                                         ... 10_7_orca.gbw
Electron density                                ... 10_7_orca.scfp
The origin for moment calculation is the CENTER OF MASS  = (-1.870633, -1.908857  0.469152)

-------------
DIPOLE MOMENT
-------------
                                X             Y             Z
Electronic contribution:    -78.72214     -45.96014      16.94926
Nuclear contribution   :     81.56303      49.38639     -17.03036
                        -----------------------------------------
Total Dipole Moment    :      2.84089       3.42624      -0.08111
                        -----------------------------------------
Magnitude (a.u.)       :      4.45156
Magnitude (Debye)      :     11.31496



--------------------
Rotational spectrum 
--------------------
 
Rotational constants in cm-1:     0.011062     0.007809     0.005352 
Rotational constants in MHz :   331.642863   234.107669   160.444227 

 Dipole components along the rotational axes: 
x,y,z [a.u.] :     4.377871    -0.652313     0.474451 
x,y,z [Debye]:    11.127665    -1.658048     1.205959 

 

Timings for individual modules:

Sum of individual times         ...      821.131 sec (=  13.686 min)
GTO integral calculation        ...        0.828 sec (=   0.014 min)   0.1 %
SCF iterations                  ...      756.030 sec (=  12.600 min)  92.1 %
SCF Gradient evaluation         ...       64.273 sec (=   1.071 min)   7.8 %
                             ****ORCA TERMINATED NORMALLY****
TOTAL RUN TIME: 0 days 0 hours 13 minutes 41 seconds 623 msec
