9
	Energy:      47.4545257
Pt        -1.60344        1.04799        7.63417
Cl        -1.83927        2.00110        9.78287
Cl        -3.49477       -0.12322        8.41470
Cl        -1.84619        0.24788        5.43223
C          0.05144        2.17256        6.86853
H          1.02806        1.76400        7.21933
H         -0.91258       -0.50299        7.92706
H          0.07419        2.18265        5.75055
H         -0.01983        3.20361        7.24488
