
                                 *****************
                                 * O   R   C   A *
                                 *****************

                                            #,                                       
                                            ###                                      
                                            ####                                     
                                            #####                                    
                                            ######                                   
                                           ########,                                 
                                     ,,################,,,,,                         
                               ,,#################################,,                 
                          ,,##########################################,,             
                       ,#########################################, ''#####,          
                    ,#############################################,,   '####,        
                  ,##################################################,,,,####,       
                ,###########''''           ''''###############################       
              ,#####''   ,,,,##########,,,,          '''####'''          '####       
            ,##' ,,,,###########################,,,                        '##       
           ' ,,###''''                  '''############,,,                           
         ,,##''                                '''############,,,,        ,,,,,,###''
      ,#''                                            '''#######################'''  
     '                                                          ''''####''''         
             ,#######,   #######,   ,#######,      ##                                
            ,#'     '#,  ##    ##  ,#'     '#,    #''#        ######   ,####,        
            ##       ##  ##   ,#'  ##            #'  '#       #        #'  '#        
            ##       ##  #######   ##           ,######,      #####,   #    #        
            '#,     ,#'  ##    ##  '#,     ,#' ,#      #,         ##   #,  ,#        
             '#######'   ##     ##  '#######'  #'      '#     #####' # '####'        



                  #######################################################
                  #                        -***-                        #
                  #          Department of theory and spectroscopy      #
                  #    Directorship and core code : Frank Neese         #
                  #        Max Planck Institute fuer Kohlenforschung    #
                  #                Kaiser Wilhelm Platz 1               #
                  #                 D-45470 Muelheim/Ruhr               #
                  #                      Germany                        #
                  #                                                     #
                  #                  All rights reserved                #
                  #                        -***-                        #
                  #######################################################


                         Program Version 5.0.3 -  RELEASE  -


 With contributions from (in alphabetic order):
   Daniel Aravena         : Magnetic Suceptibility
   Michael Atanasov       : Ab Initio Ligand Field Theory (pilot matlab implementation)
   Alexander A. Auer      : GIAO ZORA, VPT2 properties, NMR spectrum
   Ute Becker             : Parallelization
   Giovanni Bistoni       : ED, misc. LED, open-shell LED, HFLD
   Martin Brehm           : Molecular dynamics
   Dmytro Bykov           : SCF Hessian
   Vijay G. Chilkuri      : MRCI spin determinant printing, contributions to CSF-ICE
   Dipayan Datta          : RHF DLPNO-CCSD density
   Achintya Kumar Dutta   : EOM-CC, STEOM-CC
   Dmitry Ganyushin       : Spin-Orbit,Spin-Spin,Magnetic field MRCI
   Miquel Garcia          : C-PCM and meta-GGA Hessian, CC/C-PCM, Gaussian charge scheme
   Yang Guo               : DLPNO-NEVPT2, F12-NEVPT2, CIM, IAO-localization
   Andreas Hansen         : Spin unrestricted coupled pair/coupled cluster methods
   Benjamin Helmich-Paris : MC-RPA, TRAH-SCF, COSX integrals
   Lee Huntington         : MR-EOM, pCC
   Robert Izsak           : Overlap fitted RIJCOSX, COSX-SCS-MP3, EOM
   Marcus Kettner         : VPT2
   Christian Kollmar      : KDIIS, OOCD, Brueckner-CCSD(T), CCSD density, CASPT2, CASPT2-K
   Simone Kossmann        : Meta GGA functionals, TD-DFT gradient, OOMP2, MP2 Hessian
   Martin Krupicka        : Initial AUTO-CI
   Lucas Lang             : DCDCAS
   Marvin Lechner         : AUTO-CI (C++ implementation), FIC-MRCC
   Dagmar Lenk            : GEPOL surface, SMD
   Dimitrios Liakos       : Extrapolation schemes; Compound Job, initial MDCI parallelization
   Dimitrios Manganas     : Further ROCIS development; embedding schemes
   Dimitrios Pantazis     : SARC Basis sets
   Anastasios Papadopoulos: AUTO-CI, single reference methods and gradients
   Taras Petrenko         : DFT Hessian,TD-DFT gradient, ASA, ECA, R-Raman, ABS, FL, XAS/XES, NRVS
   Peter Pinski           : DLPNO-MP2, DLPNO-MP2 Gradient
   Christoph Reimann      : Effective Core Potentials
   Marius Retegan         : Local ZFS, SOC
   Christoph Riplinger    : Optimizer, TS searches, QM/MM, DLPNO-CCSD(T), (RO)-DLPNO pert. Triples
   Tobias Risthaus        : Range-separated hybrids, TD-DFT gradient, RPA, STAB
   Michael Roemelt        : Original ROCIS implementation
   Masaaki Saitow         : Open-shell DLPNO-CCSD energy and density
   Barbara Sandhoefer     : DKH picture change effects
   Avijit Sen             : IP-ROCIS
   Kantharuban Sivalingam : CASSCF convergence, NEVPT2, FIC-MRCI
   Bernardo de Souza      : ESD, SOC TD-DFT
   Georgi Stoychev        : AutoAux, RI-MP2 NMR, DLPNO-MP2 response
   Willem Van den Heuvel  : Paramagnetic NMR
   Boris Wezisla          : Elementary symmetry handling
   Frank Wennmohs         : Technical directorship


 We gratefully acknowledge several colleagues who have allowed us to
 interface, adapt or use parts of their codes:
   Stefan Grimme, W. Hujo, H. Kruse, P. Pracht,  : VdW corrections, initial TS optimization,
                  C. Bannwarth, S. Ehlert          DFT functionals, gCP, sTDA/sTD-DF
   Ed Valeev, F. Pavosevic, A. Kumar             : LibInt (2-el integral package), F12 methods
   Garnet Chan, S. Sharma, J. Yang, R. Olivares  : DMRG
   Ulf Ekstrom                                   : XCFun DFT Library
   Mihaly Kallay                                 : mrcc  (arbitrary order and MRCC methods)
   Jiri Pittner, Ondrej Demel                    : Mk-CCSD
   Frank Weinhold                                : gennbo (NPA and NBO analysis)
   Christopher J. Cramer and Donald G. Truhlar   : smd solvation model
   Lars Goerigk                                  : TD-DFT with DH, B97 family of functionals
   V. Asgeirsson, H. Jonsson                     : NEB implementation
   FAccTs GmbH                                   : IRC, NEB, NEB-TS, DLPNO-Multilevel, CI-OPT
                                                   MM, QMMM, 2- and 3-layer-ONIOM, Crystal-QMMM,
                                                   LR-CPCM, SF, NACMEs, symmetry and pop. for TD-DFT,
                                                   nearIR, NL-DFT gradient (VV10), updates on ESD,
                                                   ML-optimized integration grids
   S Lehtola, MJT Oliveira, MAL Marques          : LibXC Library
   Liviu Ungur et al                             : ANISO software


 Your calculation uses the libint2 library for the computation of 2-el integrals
 For citations please refer to: http://libint.valeyev.net

 Your ORCA version has been built with support for libXC version: 5.1.0
 For citations please refer to: https://tddft.org/programs/libxc/

 This ORCA versions uses:
   CBLAS   interface :  Fast vector & matrix operations
   LAPACKE interface :  Fast linear algebra routines
   SCALAPACK package :  Parallel linear algebra routines
   Shared memory     :  Shared parallel matrices
   BLAS/LAPACK       :  OpenBLAS 0.3.15  USE64BITINT DYNAMIC_ARCH NO_AFFINITY SkylakeX SINGLE_THREADED
        Core in use  :  SkylakeX
   Copyright (c) 2011-2014, The OpenBLAS Project


Your calculation utilizes the geometrical counterpoise correction gCP
Please cite in your paper:
H.Kruse, S. Grimme J.Chem.Phys., 136, (2012), 154101 
   

Your calculation utilizes the atom-pairwise dispersion correction
with the Becke-Johnson damping scheme (D3BJ)
Cite in your paper:
S.Grimme, S.Ehrlich, L.Goerigk, J Comput Chem, (2011), 32, 1456–1465 
S.Grimme, J.Antony, S.Ehrlich and H.Krieg, J.Chem.Phys., 132, (2010), 154104 
   

Your calculation employs the composite approach PBEh-3c.
Please cite in your paper:
S. Grimme, J. G. Brandenburg, C. Bannwarth, A. Hansen J.Chem.Phys., 143, (2015), 054107 
   

================================================================================

cite the ECPs for Pd [Def2-ECP] as follows:
Ce-Yb(ecp-28): M. Dolg, H. Stoll, H.Preuss, J. Chem. Phys., 1989, 90, 1730-1734.
Y-Cd(ecp-28), Hf-Hg(ecp-46): D. Andrae,U. Haeussermann, M. Dolg, H. Stoll, H. Preuss, Theor. Chim. Acta, 1990, 77, 123-141.
In-Sb(ecp-28), Tl-Bi(ecp-46): B. Metz, H. Stoll, M. Dolg, J. Chem. Phys., 2000, 113, 2563-2569.
Te-Xe(ecp-28), Po-Rn(ecp-46): K. A. Peterson, D. Figgen, E. Goll, H. Stoll, M. Dolg, J. Chem. Phys., 2003, 119, 11113-11123.
Rb(ecp-28), Cs(ecp-46): T. Leininger, A. Nicklass, W. Kuechle, H. Stoll, M. Dolg, A. Bergner, Chem. Phys. Lett., 1996, 255, 274-280.
Sr(ecp-28), Ba(ecp-46): M. Kaupp, P. V. Schleyer, H. Stoll and H. Preuss, J. Chem. Phys., 1991, 94, 1360-1366.
La(ecp-46): M. Dolg, H. Stoll, A. Savin, H. Preuss, Theor. Chim. Acta, 1989, 75, 173-194.
Lu(ecp-28): X. Cao, M. Dolg, J. Chem. Phys., 2001, 115, 7348-7355.

ECP parameters for Pd [Def2-ECP] have been obtained from:
TURBOMOLE (7.0.2)

----- Orbital basis set information -----
Your calculation utilizes the basis: def2-mSVP

----- AuxJ basis set information -----
Your calculation utilizes the auxiliary basis: def2/J
   F. Weigend, Phys. Chem. Chem. Phys. 8, 1057 (2006).

================================================================================
                                        WARNINGS
                       Please study these warnings very carefully!
================================================================================


INFO   : the flag for use of the SHARK integral package has been found!

================================================================================
                                       INPUT FILE
================================================================================
NAME = 9_3_orca.inp
|  1> ! EnGrad PBEh-3c
|  2> %output 
|  3> xyzfile=True 
|  4> end 
|  5> %scf 
|  6> maxiter 250 
|  7> end
|  8> %output
|  9> Print[P_Hirshfeld] = 1
| 10> end
| 11> % maxcore
| 12> 4000
| 13> *xyz -1 1
| 14> C   -1.75049601   0.03039582   0.47995907 
| 15> C   -1.63446808   1.03296380   1.49281071 
| 16> C   -3.10047191  -0.02481886  -0.02341355 
| 17> C   -4.12503081   0.88827226   0.26116675 
| 18> C   -3.87608989   1.93113779   1.13985463 
| 19> C   -2.64365677   1.99357656   1.75017970 
| 20> H   -1.74962253  -2.86266992  -2.26706372 
| 21> H   -3.37329390  -0.81972560  -0.70559572 
| 22> H   -2.49063763   2.76388144   2.50492981 
| 23> H   -5.11714025   0.77068922  -0.17083675 
| 24> H   -4.64424248   2.65305946   1.37711717 
| 25> C   -0.42913748   1.16596513   2.44472459 
| 26> C    0.81603651   0.29471220   2.25910918 
| 27> H   -0.81802427   0.95126931   3.43936165 
| 28> H   -0.11014907   2.20108580   2.45364179 
| 29> C    1.65077385   0.65105490   1.06199586 
| 30> H    0.55839152  -0.76114474   2.22603358 
| 31> H    1.43370396   0.42434256   3.15220726 
| 32> C    1.34548138   0.13139178  -0.20623488 
| 33> C    2.20336567   0.45561446  -1.26368786 
| 34> C    3.20369936   1.41246341  -1.11751841 
| 35> C    2.70716873   1.55226679   1.20887285 
| 36> C    3.46580595   1.96793906   0.12240363 
| 37> H    2.12281303  -0.05880357  -2.20708400 
| 38> H    3.85903578   1.62918376  -1.95267019 
| 39> H    3.03296469   1.83279802   2.20684512 
| 40> H    4.20809522   2.74894516   0.23511468 
| 41> Pd  -0.16110599  -1.27750797  -0.23210000 
| 42> Br  -1.61156806  -3.54234963   0.05403653 
| 43> P    1.54785532  -2.99444758  -0.28932544 
| 44> H    1.63451346  -3.70882370   0.93055728 
| 45> C   -0.01140141  -1.73757440  -3.75128397 
| 46> O    1.13333699  -1.70163884  -4.16820641 
| 47> O   -0.68666342  -2.76286971  -3.18759363 
| 48> O   -0.75505720  -0.58950322  -3.73789209 
| 49> H    2.90170168  -2.71109771  -0.40986489 
| 50> H    1.45200372  -4.09750609  -1.14142433 
| 51> H   -0.19072331   0.16792931  -3.97279113 
| 52> *
| 53> 
| 54>                          ****END OF INPUT****
================================================================================

                     *******************************
                     * Energy+Gradient Calculation *
                     *******************************

---------------------------------
CARTESIAN COORDINATES (ANGSTROEM)
---------------------------------
  C     -1.750496    0.030396    0.479959
  C     -1.634468    1.032964    1.492811
  C     -3.100472   -0.024819   -0.023414
  C     -4.125031    0.888272    0.261167
  C     -3.876090    1.931138    1.139855
  C     -2.643657    1.993577    1.750180
  H     -1.749623   -2.862670   -2.267064
  H     -3.373294   -0.819726   -0.705596
  H     -2.490638    2.763881    2.504930
  H     -5.117140    0.770689   -0.170837
  H     -4.644242    2.653059    1.377117
  C     -0.429137    1.165965    2.444725
  C      0.816037    0.294712    2.259109
  H     -0.818024    0.951269    3.439362
  H     -0.110149    2.201086    2.453642
  C      1.650774    0.651055    1.061996
  H      0.558392   -0.761145    2.226034
  H      1.433704    0.424343    3.152207
  C      1.345481    0.131392   -0.206235
  C      2.203366    0.455614   -1.263688
  C      3.203699    1.412463   -1.117518
  C      2.707169    1.552267    1.208873
  C      3.465806    1.967939    0.122404
  H      2.122813   -0.058804   -2.207084
  H      3.859036    1.629184   -1.952670
  H      3.032965    1.832798    2.206845
  H      4.208095    2.748945    0.235115
  Pd    -0.161106   -1.277508   -0.232100
  Br    -1.611568   -3.542350    0.054037
  P      1.547855   -2.994448   -0.289325
  H      1.634513   -3.708824    0.930557
  C     -0.011401   -1.737574   -3.751284
  O      1.133337   -1.701639   -4.168206
  O     -0.686663   -2.762870   -3.187594
  O     -0.755057   -0.589503   -3.737892
  H      2.901702   -2.711098   -0.409865
  H      1.452004   -4.097506   -1.141424
  H     -0.190723    0.167929   -3.972791

----------------------------
CARTESIAN COORDINATES (A.U.)
----------------------------
  NO LB      ZA    FRAG     MASS         X           Y           Z
   0 C     6.0000    0    12.011   -3.307958    0.057440    0.906991
   1 C     6.0000    0    12.011   -3.088697    1.952019    2.821003
   2 C     6.0000    0    12.011   -5.859043   -0.046901   -0.044245
   3 C     6.0000    0    12.011   -7.795179    1.678591    0.493534
   4 C     6.0000    0    12.011   -7.324748    3.649322    2.154013
   5 C     6.0000    0    12.011   -4.995787    3.767314    3.307360
   6 H     1.0000    0     1.008   -3.306307   -5.409662   -4.284130
   7 H     1.0000    0     1.008   -6.374602   -1.549057   -1.333383
   8 H     1.0000    0     1.008   -4.706623    5.222979    4.733631
   9 H     1.0000    0     1.008   -9.669994    1.456392   -0.322835
  10 H     1.0000    0     1.008   -8.776346    5.013556    2.602374
  11 C     6.0000    0    12.011   -0.810952    2.203355    4.619860
  12 C     6.0000    0    12.011    1.542086    0.556925    4.269098
  13 H     1.0000    0     1.008   -1.545842    1.797638    6.499452
  14 H     1.0000    0     1.008   -0.208152    4.159449    4.636711
  15 C     6.0000    0    12.011    3.119510    1.230315    2.006881
  16 H     1.0000    0     1.008    1.055207   -1.438355    4.206594
  17 H     1.0000    0     1.008    2.709308    0.801891    5.956808
  18 C     6.0000    0    12.011    2.542591    0.248294   -0.389727
  19 C     6.0000    0    12.011    4.163758    0.860987   -2.388024
  20 C     6.0000    0    12.011    6.054114    2.669169   -2.111804
  21 C     6.0000    0    12.011    5.115807    2.933359    2.284439
  22 C     6.0000    0    12.011    6.549424    3.718866    0.231309
  23 H     1.0000    0     1.008    4.011535   -0.111123   -4.170784
  24 H     1.0000    0     1.008    7.292521    3.078711   -3.690012
  25 H     1.0000    0     1.008    5.731473    3.463486    4.170333
  26 H     1.0000    0     1.008    7.952148    5.194754    0.444302
  27 Pd   18.0000*   0   106.400   -0.304446   -2.414140   -0.438605
  28 Br   35.0000    0    79.900   -3.045422   -6.694071    0.102114
  29 P    15.0000    0    30.974    2.925023   -5.658686   -0.546746
  30 H     1.0000    0     1.008    3.088783   -7.008661    1.758498
  31 C     6.0000    0    12.011   -0.021546   -3.283540   -7.088899
  32 O     8.0000    0    15.999    2.141697   -3.215631   -7.876769
  33 O     8.0000    0    15.999   -1.297606   -5.221067   -6.023679
  34 O     8.0000    0    15.999   -1.426851   -1.114000   -7.063592
  35 H     1.0000    0     1.008    5.483421   -5.123232   -0.774532
  36 H     1.0000    0     1.008    2.743889   -7.743164   -2.156979
  37 H     1.0000    0     1.008   -0.360415    0.317340   -7.507487
* core charge reduced due to ECP

--------------------------------
INTERNAL COORDINATES (ANGSTROEM)
--------------------------------
 C      0   0   0     0.000000000000     0.00000000     0.00000000
 C      1   0   0     1.429850859255     0.00000000     0.00000000
 C      1   2   0     1.441827862830   110.49543203     0.00000000
 C      3   1   2     1.401585630684   126.05752514     9.25909373
 C      4   3   1     1.386229593455   119.17844378   357.57019451
 C      5   4   3     1.376694115024   118.41759769   357.00925275
 H      3   1   2     3.861626441220    84.45987661   180.66434772
 H      3   1   2     1.082442181639   118.95574170   187.66556200
 H      6   5   4     1.089234682657   117.71186962   185.39496035
 H      4   3   1     1.088454838863   121.01963066   179.59677456
 H      5   4   3     1.080519695344   120.94081670   179.80716377
 C      2   1   3     1.541639141957   124.14766331   166.68810841
 C     12   2   1     1.531010455169   120.79212810     6.57266280
 H     12   2   1     1.089325530632   105.52588003   245.60274894
 H     12   2   1     1.083193391612   108.52830994   131.64141235
 C     13  12   2     1.502280548884   114.42703193    71.44864626
 H     13  12   2     1.087340247546   111.31957965   306.31614251
 H     13  12   2     1.093591006512   107.03121070   191.04385456
 C     16  13  12     1.404158986870   120.73913686   274.99156769
 C     19  16  13     1.399747336545   117.60357741   182.95636006
 C     20  19  16     1.391974465491   121.35500505   350.59791183
 C     16  13  12     1.396325844264   119.31753171    92.36644481
 C     21  20  19     1.383712299411   120.40936030     6.82761647
 H     20  19  16     1.077548567057   120.33209509   168.56445360
 H     21  20  19     1.083472209667   119.42118977   179.15943858
 H     22  16  13     1.086641353091   119.34434076    11.80576098
 H     23  21  20     1.083359436838   120.82491520   183.11700179
 Pd    19  16  13     2.062879786470   115.01626457   353.56399450
 Br     7   3   1     2.422504884499    70.69664232    64.18709901
 P     28  19  16     2.423160154519    88.23198339   260.89911882
 H     30  28  19     1.416318016764   112.34597240   108.98396976
 C      7   3   1     2.547579702708   104.63300851   296.38395028
 O     32   7   3     1.218827998482   148.55457005   125.08058837
 O     32   7   3     1.350909343467    23.17035943   168.23706495
 O     32   7   3     1.367943972097    89.65761615   326.96305221
 H     30  28  19     1.388422440873   123.03467268   354.17766675
 H     30  28  19     1.397139264370   121.69720990   223.86090634
 H     35  32   7     0.973321291197   109.60611655   159.41950689

---------------------------
INTERNAL COORDINATES (A.U.)
---------------------------
 C      0   0   0     0.000000000000     0.00000000     0.00000000
 C      1   0   0     2.702026536344     0.00000000     0.00000000
 C      1   2   0     2.724659793006   110.49543203     0.00000000
 C      3   1   2     2.648612995232   126.05752514     9.25909373
 C      4   3   1     2.619594290368   119.17844378   357.57019451
 C      5   4   3     2.601574847577   118.41759769   357.00925275
 H      3   1   2     7.297416405415    84.45987661   180.66434772
 H      3   1   2     2.045519279102   118.95574170   187.66556200
 H      6   5   4     2.058355245791   117.71186962   185.39496035
 H      4   3   1     2.056881554593   121.01963066   179.59677456
 H      5   4   3     2.041886306508   120.94081670   179.80716377
 C      2   1   3     2.913275775633   124.14766331   166.68810841
 C     12   2   1     2.893190468439   120.79212810     6.57266280
 H     12   2   1     2.058526923584   105.52588003   245.60274894
 H     12   2   1     2.046938860220   108.52830994   131.64141235
 C     13  12   2     2.838898813708   114.42703193    71.44864626
 H     13  12   2     2.054775282252   111.31957965   306.31614251
 H     13  12   2     2.066587504826   107.03121070   191.04385456
 C     16  13  12     2.653475933669   120.73913686   274.99156769
 C     19  16  13     2.645139122757   117.60357741   182.95636006
 C     20  19  16     2.630450525189   121.35500505   350.59791183
 C     16  13  12     2.638673439375   119.31753171    92.36644481
 C     21  20  19     2.614837294026   120.40936030     6.82761647
 H     20  19  16     2.036271687737   120.33209509   168.56445360
 H     21  20  19     2.047465749984   119.42118977   179.15943858
 H     22  16  13     2.053454563135   119.34434076    11.80576098
 H     23  21  20     2.047252640223   120.82491520   183.11700179
 Pd    19  16  13     3.898277843630   115.01626457   353.56399450
 Br     7   3   1     4.577870789790    70.69664232    64.18709901
 P     28  19  16     4.579109070671    88.23198339   260.89911882
 H     30  28  19     2.676453170222   112.34597240   108.98396976
 C      7   3   1     4.814227942454   104.63300851   296.38395028
 O     32   7   3     2.303251121486   148.55457005   125.08058837
 O     32   7   3     2.552848690908    23.17035943   168.23706495
 O     32   7   3     2.585039473812    89.65761615   326.96305221
 H     30  28  19     2.623738171441   123.03467268   354.17766675
 H     30  28  19     2.640210580608   121.69720990   223.86090634
 H     35  32   7     1.839310680677   109.60611655   159.41950689

---------------------
BASIS SET INFORMATION
---------------------
There are 6 groups of distinct atoms

 Group   1 Type C   : 8s4p1d contracted to 4s2p1d pattern {5111/31/1}
 Group   2 Type H   : 4s contracted to 2s pattern {31}
 Group   3 Type Pd  : 7s6p5d1f contracted to 5s3p2d1f pattern {31111/411/41/1}
 Group   4 Type Br  : 14s10p6d contracted to 5s4p3d pattern {63311/5311/411}
 Group   5 Type P   : 10s7p1d contracted to 4s3p1d pattern {5311/511/1}
 Group   6 Type O   : 8s4p1d contracted to 4s2p1d pattern {5111/31/1}

Atom   0C    basis set group =>   1
Atom   1C    basis set group =>   1
Atom   2C    basis set group =>   1
Atom   3C    basis set group =>   1
Atom   4C    basis set group =>   1
Atom   5C    basis set group =>   1
Atom   6H    basis set group =>   2
Atom   7H    basis set group =>   2
Atom   8H    basis set group =>   2
Atom   9H    basis set group =>   2
Atom  10H    basis set group =>   2
Atom  11C    basis set group =>   1
Atom  12C    basis set group =>   1
Atom  13H    basis set group =>   2
Atom  14H    basis set group =>   2
Atom  15C    basis set group =>   1
Atom  16H    basis set group =>   2
Atom  17H    basis set group =>   2
Atom  18C    basis set group =>   1
Atom  19C    basis set group =>   1
Atom  20C    basis set group =>   1
Atom  21C    basis set group =>   1
Atom  22C    basis set group =>   1
Atom  23H    basis set group =>   2
Atom  24H    basis set group =>   2
Atom  25H    basis set group =>   2
Atom  26H    basis set group =>   2
Atom  27Pd   basis set group =>   3
Atom  28Br   basis set group =>   4
Atom  29P    basis set group =>   5
Atom  30H    basis set group =>   2
Atom  31C    basis set group =>   1
Atom  32O    basis set group =>   6
Atom  33O    basis set group =>   6
Atom  34O    basis set group =>   6
Atom  35H    basis set group =>   2
Atom  36H    basis set group =>   2
Atom  37H    basis set group =>   2
---------------------------------
AUXILIARY/J BASIS SET INFORMATION
---------------------------------
There are 6 groups of distinct atoms

 Group   1 Type C   : 12s5p4d2f1g contracted to 6s4p3d1f1g pattern {711111/2111/211/2/1}
 Group   2 Type H   : 5s2p1d contracted to 3s1p1d pattern {311/2/1}
 Group   3 Type Pd  : 11s5p5d3f3g contracted to 8s5p5d2f3g pattern {41111111/11111/11111/21/111}
 Group   4 Type Br  : 19s5p5d3f1g contracted to 8s4p3d2f1g pattern {121111111/2111/311/21/1}
 Group   5 Type P   : 14s5p5d2f1g contracted to 8s4p3d1f1g pattern {71111111/2111/311/2/1}
 Group   6 Type O   : 12s5p4d2f1g contracted to 6s4p3d1f1g pattern {711111/2111/211/2/1}

Atom   0C    basis set group =>   1
Atom   1C    basis set group =>   1
Atom   2C    basis set group =>   1
Atom   3C    basis set group =>   1
Atom   4C    basis set group =>   1
Atom   5C    basis set group =>   1
Atom   6H    basis set group =>   2
Atom   7H    basis set group =>   2
Atom   8H    basis set group =>   2
Atom   9H    basis set group =>   2
Atom  10H    basis set group =>   2
Atom  11C    basis set group =>   1
Atom  12C    basis set group =>   1
Atom  13H    basis set group =>   2
Atom  14H    basis set group =>   2
Atom  15C    basis set group =>   1
Atom  16H    basis set group =>   2
Atom  17H    basis set group =>   2
Atom  18C    basis set group =>   1
Atom  19C    basis set group =>   1
Atom  20C    basis set group =>   1
Atom  21C    basis set group =>   1
Atom  22C    basis set group =>   1
Atom  23H    basis set group =>   2
Atom  24H    basis set group =>   2
Atom  25H    basis set group =>   2
Atom  26H    basis set group =>   2
Atom  27Pd   basis set group =>   3
Atom  28Br   basis set group =>   4
Atom  29P    basis set group =>   5
Atom  30H    basis set group =>   2
Atom  31C    basis set group =>   1
Atom  32O    basis set group =>   6
Atom  33O    basis set group =>   6
Atom  34O    basis set group =>   6
Atom  35H    basis set group =>   2
Atom  36H    basis set group =>   2
Atom  37H    basis set group =>   2
-------------------------
ECP PARAMETER INFORMATION
-------------------------

 Group 1, Type Pd ECP Def2-ECP (replacing 28 core electrons, lmax=3)

Atom  27Pd   ECP group =>   1

------------------------------------------------------------------------------
                           ORCA GTO INTEGRAL CALCULATION
                           -- RI-GTO INTEGRALS CHOSEN --
------------------------------------------------------------------------------
------------------------------------------------------------------------------
                   ___                                                        
                  /   \      - P O W E R E D   B Y -                         
                 /     \                                                     
                 |  |  |   _    _      __       _____    __    __             
                 |  |  |  | |  | |    /  \     |  _  \  |  |  /  |          
                  \  \/   | |  | |   /    \    | | | |  |  | /  /          
                 / \  \   | |__| |  /  /\  \   | |_| |  |  |/  /          
                |  |  |   |  __  | /  /__\  \  |    /   |      \           
                |  |  |   | |  | | |   __   |  |    \   |  |\   \          
                \     /   | |  | | |  |  |  |  | |\  \  |  | \   \       
                 \___/    |_|  |_| |__|  |__|  |_| \__\ |__|  \__/        
                                                                              
                      - O R C A' S   B I G   F R I E N D -                    
                                      &                                       
                       - I N T E G R A L  F E E D E R -                       
                                                                              
 v1 FN, 2020, v2 2021                                                         
------------------------------------------------------------------------------


Reading SHARK input file 9_3_orca.SHARKINP.tmp ... ok
----------------------
SHARK INTEGRAL PACKAGE
----------------------

Number of atoms                             ...     38
Number of basis functions                   ...    385
Number of shells                            ...    191
Maximum angular momentum                    ...      3
Integral batch strategy                     ... SHARK/LIBINT Hybrid
RI-J (if used) integral strategy            ... SPLIT-RIJ (Revised 2003 algorithm where possible)
Printlevel                                  ...      1
Contraction scheme used                     ... SEGMENTED contraction
Coulomb Range Separation                    ... NOT USED
Exchange Range Separation                   ... NOT USED
Finite Nucleus Model                        ... NOT USED
Auxiliary Coulomb fitting basis             ... AVAILABLE
   # of basis functions in Aux-J            ...   1267
   # of shells in Aux-J                     ...    413
   Maximum angular momentum in Aux-J        ...      4
Auxiliary J/K fitting basis                 ... NOT available
Auxiliary Correlation fitting basis         ... NOT available
Auxiliary 'external' fitting basis          ... NOT available
Integral threshold                          ...     2.500000e-11
Primitive cut-off                           ...     2.500000e-12
Primitive pair pre-selection threshold      ...     2.500000e-12

Calculating pre-screening integrals         ... done (  0.1 sec) Dimension = 191
Organizing shell pair data                  ... done (  0.1 sec)
Shell pair information
Total number of shell pairs                 ...     18336
Shell pairs after pre-screening             ...     12506
Total number of primitive shell pairs       ...     68628
Primitive shell pairs kept                  ...     28626
          la=0 lb=0:   4420 shell pairs
          la=1 lb=0:   4187 shell pairs
          la=1 lb=1:    947 shell pairs
          la=2 lb=0:   1763 shell pairs
          la=2 lb=1:    857 shell pairs
          la=2 lb=2:    188 shell pairs
          la=3 lb=0:     80 shell pairs
          la=3 lb=1:     43 shell pairs
          la=3 lb=2:     20 shell pairs
          la=3 lb=3:      1 shell pairs

Calculating one electron integrals          ... done (  0.1 sec)
Calculating ECP integrals                   ... done (  0.5 sec)
Calculating RI/J V-Matrix + Cholesky decomp.... done (  0.1 sec)
Calculating Nuclear repulsion               ... done (  0.0 sec) ENN=   2537.916204202522 Eh

SHARK setup successfully completed in   1.2 seconds

Maximum memory used throughout the entire GTOINT-calculation: 96.8 MB
-------------------------------------------------------------------------------
                                 ORCA SCF
-------------------------------------------------------------------------------

------------
SCF SETTINGS
------------
Hamiltonian:
 Density Functional     Method          .... DFT(GTOs)
 Exchange Functional    Exchange        .... PBE
   PBE kappa parameter   XKappa         ....  1.024500
   PBE mue parameter    XMuePBE         ....  0.123457
 Correlation Functional Correlation     .... PBE
   PBE beta parameter  CBetaPBE         ....  0.030000
 LDA part of GGA corr.  LDAOpt          .... PW91-LDA
 Gradients option       PostSCFGGA      .... off
 Hybrid DFT is turned on
   Fraction HF Exchange ScalHFX         ....  0.420000
   Scaling of DF-GGA-X  ScalDFX         ....  0.580000
   Scaling of DF-GGA-C  ScalDFC         ....  1.000000
   Scaling of DF-LDA-C  ScalLDAC        ....  1.000000
   Perturbative correction              ....  0.000000
   Density functional embedding theory  .... OFF
 RI-approximation to the Coulomb term is turned on
   Number of AuxJ basis functions       .... 1267
   RIJ-ON(X) (HFX calculated with O(N)) .... on
   Number of AuxJ basis functions       .... 1267
   RIJ-COSX (HFX calculated with COS-X)).... on


General Settings:
 Integral files         IntName         .... 9_3_orca
 Hartree-Fock type      HFTyp           .... RHF
 Total Charge           Charge          ....   -1
 Multiplicity           Mult            ....    1
 Number of Electrons    NEL             ....  200
 Basis Dimension        Dim             ....  385
 Nuclear Repulsion      ENuc            ....   2537.9162042025 Eh

Convergence Acceleration:
 DIIS                   CNVDIIS         .... on
   Start iteration      DIISMaxIt       ....    12
   Startup error        DIISStart       ....  0.200000
   # of expansion vecs  DIISMaxEq       ....     5
   Bias factor          DIISBfac        ....   1.050
   Max. coefficient     DIISMaxC        ....  10.000
 Trust-Rad. Augm. Hess. CNVTRAH         .... auto
   Auto Start mean grad. ratio tolernc. ....  1.125000
   Auto Start start iteration           ....    20
   Auto Start num. interpolation iter.  ....    10
   Max. Number of Micro iterations      ....    16
   Max. Number of Macro iterations      .... Maxiter - #DIIS iter
   Number of Davidson start vectors     ....     2
   Converg. threshold I  (grad. norm)   ....   1.000e-05
   Converg. threshold II (energy diff.) ....   1.000e-08
   Grad. Scal. Fac. for Micro threshold ....   0.100
   Minimum threshold for Micro iter.    ....   0.010
   NR start threshold (gradient norm)   ....   0.001
   Initial trust radius                 ....   0.400
   Minimum AH scaling param. (alpha)    ....   1.000
   Maximum AH scaling param. (alpha)    .... 1000.000
   Orbital update algorithm             .... Taylor
   White noise on init. David. guess    .... on
   Maximum white noise                  ....   0.010
   Quad. conv. algorithm                .... NR
   COSX micro iterations for RIJONX calc.... off
 SOSCF                  CNVSOSCF        .... off
 Level Shifting         CNVShift        .... on
   Level shift para.    LevelShift      ....    0.2500
   Turn off err/grad.   ShiftErr        ....    0.0010
 Zerner damping         CNVZerner       .... off
 Static damping         CNVDamp         .... on
   Fraction old density DampFac         ....    0.7000
   Max. Damping (<1)    DampMax         ....    0.9800
   Min. Damping (>=0)   DampMin         ....    0.0000
   Turn off err/grad.   DampErr         ....    0.1000
 Fernandez-Rico         CNVRico         .... off

SCF Procedure:
 Maximum # iterations   MaxIter         ....   250
 SCF integral mode      SCFMode         .... Direct
   Integral package                     .... SHARK and LIBINT hybrid scheme
 Reset frequency        DirectResetFreq ....    20
 Integral Threshold     Thresh          ....  2.500e-11 Eh
 Primitive CutOff       TCut            ....  2.500e-12 Eh

Convergence Tolerance:
 Convergence Check Mode ConvCheckMode   .... Total+1el-Energy
 Convergence forced     ConvForced      .... 0
 Energy Change          TolE            ....  1.000e-08 Eh
 1-El. energy change                    ....  1.000e-05 Eh
 DIIS Error             TolErr          ....  5.000e-07


Diagonalization of the overlap matrix:
Smallest eigenvalue                        ... 4.718e-04
Time for diagonalization                   ...    0.024 sec
Threshold for overlap eigenvalues          ... 1.000e-08
Number of eigenvalues below threshold      ... 0
Time for construction of square roots      ...    0.008 sec
Total time needed                          ...    0.033 sec

--------------------------------
INITIAL GUESS: MINIMAL BASIS EHT
--------------------------------
The minimal basis has 147 functions
EHT matrix was diagonalized
Basis set overlap was calculated now projecting the orbitals
Using GuessMode=FMatrix for the initial guess
C*T matrix was formed
Effective Fockian was calculated
Effective Fockian was diagonalized
Initial density was built
                      ------------------
                      INITIAL GUESS DONE
                      ------------------
-------------------
DFT GRID GENERATION
-------------------

General Integration Accuracy     IntAcc      ... 4.159
Radial Grid Type                 RadialGrid  ... OptM3 with GC (2021)
Angular Grid (max. ang.)         AngularGrid ... 3 (Lebedev-194)
Angular grid pruning method      GridPruning ... 4 (adaptive)
Weight generation scheme         WeightScheme... Becke
Basis function cutoff            BFCut       ... 1.0000e-11
Integration weight cutoff        WCut        ... 1.0000e-14
Angular grids for H and He will be reduced by one unit
Partially contracted basis set               ... off
Rotationally invariant grid construction     ... off

Total number of grid points                  ...    96679
Total number of batches                      ...     1527
Average number of points per batch           ...       63
Average number of grid points per atom       ...     2544
Time for grid setup =    2.045 sec

--------------------
COSX GRID GENERATION
--------------------

GRIDX 1
-------
General Integration Accuracy     IntAcc      ... 3.816
Radial Grid Type                 RadialGrid  ... OptM3 with GC (2021)
Angular Grid (max. ang.)         AngularGrid ... 1 (Lebedev-50)
Angular grid pruning method      GridPruning ... 4 (adaptive)
Weight generation scheme         WeightScheme... Becke
Basis function cutoff            BFCut       ... 1.0000e-11
Integration weight cutoff        WCut        ... 1.0000e-14
Angular grids for H and He will be reduced by one unit
Partially contracted basis set               ... on
Rotationally invariant grid construction     ... off

Total number of grid points                  ...    23630
Total number of batches                      ...      385
Average number of points per batch           ...       61
Average number of grid points per atom       ...      622
UseSFitting                                  ... on

GRIDX 2
-------
General Integration Accuracy     IntAcc      ... 4.020
Radial Grid Type                 RadialGrid  ... OptM3 with GC (2021)
Angular Grid (max. ang.)         AngularGrid ... 2 (Lebedev-110)
Angular grid pruning method      GridPruning ... 4 (adaptive)
Weight generation scheme         WeightScheme... Becke
Basis function cutoff            BFCut       ... 1.0000e-11
Integration weight cutoff        WCut        ... 1.0000e-14
Angular grids for H and He will be reduced by one unit
Partially contracted basis set               ... on
Rotationally invariant grid construction     ... off

Total number of grid points                  ...    51189
Total number of batches                      ...      818
Average number of points per batch           ...       62
Average number of grid points per atom       ...     1347
UseSFitting                                  ... on

GRIDX 3
-------
General Integration Accuracy     IntAcc      ... 4.338
Radial Grid Type                 RadialGrid  ... OptM3 with GC (2021)
Angular Grid (max. ang.)         AngularGrid ... 3 (Lebedev-194)
Angular grid pruning method      GridPruning ... 4 (adaptive)
Weight generation scheme         WeightScheme... Becke
Basis function cutoff            BFCut       ... 1.0000e-11
Integration weight cutoff        WCut        ... 1.0000e-14
Angular grids for H and He will be reduced by one unit
Partially contracted basis set               ... on
Rotationally invariant grid construction     ... off

Total number of grid points                  ...   111735
Total number of batches                      ...     1766
Average number of points per batch           ...       63
Average number of grid points per atom       ...     2940
UseSFitting                                  ... on

Time for X-Grid setup             =    5.348 sec

--------------
SCF ITERATIONS
--------------
ITER       Energy         Delta-E        Max-DP      RMS-DP      [F,P]     Damp
               ***  Starting incremental Fock matrix formation  ***
  0  -3826.4192076400   0.000000000000 5.45918865  0.05714467  5.1341768 0.7000
  1  -3815.2870797742  11.132127865802 4.98885235  0.05422460  3.9490788 0.7000
  2  -3817.9213235961  -2.634243821860 2.32219570  0.02499330  2.6252420 0.7000
  3  -3823.1179408734  -5.196617277308 3.67389414  0.02847046  1.9258656 0.7000
  4  -3824.2995649823  -1.181624108944 2.26160536  0.02173580  1.2478946 0.7000
  5  -3826.4889761741  -2.189411191740 2.44922081  0.02351813  0.9693862 0.7000
  6  -3825.6814040742   0.807572099843 2.25387893  0.02121481  0.6702229 0.7000
  7  -3827.0965902700  -1.415186195783 2.69372487  0.02482988  0.5142891 0.7000
  8  -3824.6656655227   2.430924747289 2.38626638  0.02461378  0.3406576 0.7000
  9  -3824.6305304040   0.035135118675 2.44236309  0.02308079  0.3089590 0.7000
 10  -3823.5385261526   1.092004251439 2.40630410  0.02331648  0.2689744 0.7000
 11  -3823.7008484015  -0.162322248917 2.42700499  0.02367524  0.3138261 0.7000
                               ***Turning on DIIS***
 12  -3823.0395171187   0.661331282839 2.41222319  0.02324290  0.3038417 0.7000
 13  -3823.3086313210  -0.269114202285 1.59324962  0.01715472  0.3179315 0.7000
 14  -3831.0146988362  -7.706067515237 1.11493041  0.01206936  0.2652512 0.7000
 15  -3836.2885380660  -5.273839229834 0.77805181  0.00848260  0.2339529 0.7000
 16  -3839.8601215811  -3.571583515113 0.54653359  0.00598273  0.1741135 0.7000
 17  -3842.2749138576  -2.414792276462 0.38769435  0.00423713  0.1133517 0.7000
 18  -3843.9179253858  -1.643011528203 0.92085676  0.01001233  0.0743690 0.0000
 19  -3847.6648710464  -3.746945660639 0.01862213  0.00040050  0.0149471 0.0000
               *** Restarting incremental Fock matrix formation ***
                                   *** Resetting DIIS ***
 20  -3847.6686231081  -0.003752061617 0.01842336  0.00036316  0.0060880 0.0000
 21  -3847.6703592436  -0.001736135497 0.00429777  0.00010724  0.0044312 0.0000
 22  -3847.6707537905  -0.000394546933 0.00299231  0.00005446  0.0014854 0.0000
 23  -3847.6708306592  -0.000076868675 0.00217603  0.00002957  0.0011978 0.0000
 24  -3847.6708597059  -0.000029046726 0.00338125  0.00003333  0.0008038 0.0000
               *** Restarting incremental Fock matrix formation ***
                                   *** Resetting DIIS ***
 25  -3847.6722420140  -0.001382308060 0.00523454  0.00010281  0.0014329 0.0000
 26  -3847.6722686126  -0.000026598682 0.00205160  0.00003010  0.0003322 0.0000
 27  -3847.6722703468  -0.000001734191 0.00092544  0.00000719  0.0005860 0.0000
 28  -3847.6722717609  -0.000001414072 0.00046535  0.00000374  0.0002260 0.0000
 29  -3847.6722719907  -0.000000229765 0.00020050  0.00000159  0.0001020 0.0000
 30  -3847.6722720674  -0.000000076686 0.00015140  0.00000087  0.0000399 0.0000
 31  -3847.6722720833  -0.000000015923 0.00009804  0.00000054  0.0000208 0.0000
 32  -3847.6722720915  -0.000000008206 0.00004920  0.00000026  0.0000088 0.0000
 33  -3847.6722720881   0.000000003425 0.00001452  0.00000009  0.0000039 0.0000
 34  -3847.6722721120  -0.000000023904 0.00000650  0.00000005  0.0000025 0.0000
 35  -3847.6722721064   0.000000005596 0.00000543  0.00000004  0.0000033 0.0000
                            ***DIIS convergence achieved***

               *****************************************************
               *                     SUCCESS                       *
               *           SCF CONVERGED AFTER  36 CYCLES          *
               *****************************************************

Old exchange energy                            =    -97.650854007 Eh
New exchange energy                            =    -97.650825878 Eh
Exchange energy change after final integration =      0.000028129 Eh
Total energy after final integration           =  -3847.672243988 Eh
Final COS-X integration done in                =    66.529 sec

----------------
TOTAL SCF ENERGY
----------------

Total Energy       :        -3847.67224399 Eh         -104700.48463 eV

Components:
Nuclear Repulsion  :         2537.91620420 Eh           69060.21087 eV
Electronic Energy  :        -6385.58844819 Eh         -173760.69550 eV
One Electron Energy:       -10460.67774363 Eh         -284649.51271 eV
Two Electron Energy:         4075.08929544 Eh          110888.81721 eV
Max COSX asymmetry :            0.00001597 Eh               0.00043 eV

Virial components:
Potential Energy   :        -7605.95286344 Eh         -206968.49949 eV
Kinetic Energy     :         3758.28061945 Eh          102268.01486 eV
Virial Ratio       :            2.02378524


DFT components:
N(Alpha)           :      100.000159322631 electrons
N(Beta)            :      100.000159322631 electrons
N(Total)           :      200.000318645263 electrons
E(X)               :     -130.723954931642 Eh       
E(C)               :       -9.698086872125 Eh       
E(XC)              :     -140.422041803767 Eh       
DFET-embed. en.    :        0.000000000000 Eh       

---------------
SCF CONVERGENCE
---------------

  Last Energy change         ...   -1.0701e-08  Tolerance :   1.0000e-08
  Last MAX-Density change    ...    0.0000e+00  Tolerance :   1.0000e-07
  Last RMS-Density change    ...    0.0000e+00  Tolerance :   5.0000e-09
  Last DIIS Error            ...    7.2855e-07  Tolerance :   5.0000e-07

             **** THE GBW FILE WAS UPDATED (9_3_orca.gbw) ****
             **** DENSITY 9_3_orca.scfp WAS UPDATED ****
             **** ENERGY FILE WAS UPDATED (9_3_orca.en.tmp) ****
             **** THE GBW FILE WAS UPDATED (9_3_orca.gbw) ****
             **** DENSITY 9_3_orca.scfp WAS UPDATED ****
----------------
ORBITAL ENERGIES
----------------

  NO   OCC          E(Eh)            E(eV) 
   0   2.0000    -484.353714    -13179.9346 
   1   2.0000     -77.657130     -2113.1579 
   2   2.0000     -63.014798     -1714.7198 
   3   2.0000     -56.718185     -1543.3803 
   4   2.0000     -56.717787     -1543.3694 
   5   2.0000     -56.717336     -1543.3572 
   6   2.0000     -19.415961      -528.3352 
   7   2.0000     -19.404699      -528.0287 
   8   2.0000     -19.363974      -526.9205 
   9   2.0000     -10.507656      -285.9278 
  10   2.0000     -10.333160      -281.1796 
  11   2.0000     -10.332373      -281.1582 
  12   2.0000     -10.332309      -281.1564 
  13   2.0000     -10.332018      -281.1485 
  14   2.0000     -10.331337      -281.1300 
  15   2.0000     -10.327397      -281.0228 
  16   2.0000     -10.324112      -280.9334 
  17   2.0000     -10.322962      -280.9021 
  18   2.0000     -10.322638      -280.8933 
  19   2.0000     -10.318488      -280.7803 
  20   2.0000     -10.317289      -280.7477 
  21   2.0000     -10.316969      -280.7390 
  22   2.0000     -10.316620      -280.7295 
  23   2.0000     -10.312876      -280.6276 
  24   2.0000      -8.841797      -240.5975 
  25   2.0000      -6.733312      -183.2227 
  26   2.0000      -6.609818      -179.8623 
  27   2.0000      -6.608490      -179.8262 
  28   2.0000      -6.605587      -179.7471 
  29   2.0000      -4.824230      -131.2740 
  30   2.0000      -4.823956      -131.2665 
  31   2.0000      -4.822190      -131.2185 
  32   2.0000      -3.506279       -95.4107 
  33   2.0000      -2.624581       -71.4185 
  34   2.0000      -2.624524       -71.4169 
  35   2.0000      -2.622069       -71.3501 
  36   2.0000      -2.620840       -71.3167 
  37   2.0000      -2.620333       -71.3029 
  38   2.0000      -2.149899       -58.5017 
  39   2.0000      -2.148040       -58.4511 
  40   2.0000      -2.122115       -57.7457 
  41   2.0000      -1.107532       -30.1375 
  42   2.0000      -0.998513       -27.1709 
  43   2.0000      -0.972916       -26.4744 
  44   2.0000      -0.838810       -22.8252 
  45   2.0000      -0.816277       -22.2120 
  46   2.0000      -0.769028       -20.9263 
  47   2.0000      -0.720189       -19.5973 
  48   2.0000      -0.711433       -19.3591 
  49   2.0000      -0.690942       -18.8015 
  50   2.0000      -0.670321       -18.2404 
  51   2.0000      -0.663357       -18.0509 
  52   2.0000      -0.633534       -17.2393 
  53   2.0000      -0.598119       -16.2756 
  54   2.0000      -0.575735       -15.6665 
  55   2.0000      -0.558575       -15.1996 
  56   2.0000      -0.539276       -14.6745 
  57   2.0000      -0.534330       -14.5399 
  58   2.0000      -0.506373       -13.7791 
  59   2.0000      -0.476629       -12.9697 
  60   2.0000      -0.455468       -12.3939 
  61   2.0000      -0.439818       -11.9680 
  62   2.0000      -0.431060       -11.7297 
  63   2.0000      -0.412542       -11.2258 
  64   2.0000      -0.408147       -11.1063 
  65   2.0000      -0.400484       -10.8977 
  66   2.0000      -0.381210       -10.3732 
  67   2.0000      -0.378309       -10.2943 
  68   2.0000      -0.371772       -10.1164 
  69   2.0000      -0.362943        -9.8762 
  70   2.0000      -0.357227        -9.7206 
  71   2.0000      -0.353429        -9.6173 
  72   2.0000      -0.346750        -9.4356 
  73   2.0000      -0.342854        -9.3295 
  74   2.0000      -0.331158        -9.0113 
  75   2.0000      -0.323432        -8.8010 
  76   2.0000      -0.311949        -8.4886 
  77   2.0000      -0.297761        -8.1025 
  78   2.0000      -0.289444        -7.8762 
  79   2.0000      -0.285412        -7.7665 
  80   2.0000      -0.280333        -7.6282 
  81   2.0000      -0.276654        -7.5281 
  82   2.0000      -0.269603        -7.3363 
  83   2.0000      -0.264376        -7.1940 
  84   2.0000      -0.251097        -6.8327 
  85   2.0000      -0.245648        -6.6844 
  86   2.0000      -0.241603        -6.5744 
  87   2.0000      -0.236662        -6.4399 
  88   2.0000      -0.227843        -6.1999 
  89   2.0000      -0.213900        -5.8205 
  90   2.0000      -0.207625        -5.6498 
  91   2.0000      -0.190171        -5.1748 
  92   2.0000      -0.183956        -5.0057 
  93   2.0000      -0.172556        -4.6955 
  94   2.0000      -0.169350        -4.6082 
  95   2.0000      -0.162559        -4.4235 
  96   2.0000      -0.155338        -4.2270 
  97   2.0000      -0.149061        -4.0561 
  98   2.0000      -0.143485        -3.9044 
  99   2.0000      -0.124928        -3.3995 
 100   0.0000       0.088097         2.3973 
 101   0.0000       0.099892         2.7182 
 102   0.0000       0.129908         3.5350 
 103   0.0000       0.135373         3.6837 
 104   0.0000       0.147648         4.0177 
 105   0.0000       0.152880         4.1601 
 106   0.0000       0.166045         4.5183 
 107   0.0000       0.167319         4.5530 
 108   0.0000       0.192502         5.2382 
 109   0.0000       0.195088         5.3086 
 110   0.0000       0.210291         5.7223 
 111   0.0000       0.219102         5.9621 
 112   0.0000       0.235111         6.3977 
 113   0.0000       0.251106         6.8329 
 114   0.0000       0.263733         7.1765 
 115   0.0000       0.274929         7.4812 
 116   0.0000       0.288246         7.8436 
 117   0.0000       0.291074         7.9205 
 118   0.0000       0.305615         8.3162 
 119   0.0000       0.307880         8.3778 
 120   0.0000       0.316278         8.6064 
 121   0.0000       0.317245         8.6327 
 122   0.0000       0.331598         9.0232 
 123   0.0000       0.339436         9.2365 
 124   0.0000       0.340387         9.2624 
 125   0.0000       0.349371         9.5069 
 126   0.0000       0.357514         9.7284 
 127   0.0000       0.367285         9.9943 
 128   0.0000       0.369022        10.0416 
 129   0.0000       0.378280        10.2935 
 130   0.0000       0.392296        10.6749 
 131   0.0000       0.394939        10.7468 
 132   0.0000       0.401524        10.9260 
 133   0.0000       0.419117        11.4048 
 134   0.0000       0.421258        11.4630 
 135   0.0000       0.436053        11.8656 
 136   0.0000       0.445177        12.1139 
 137   0.0000       0.458127        12.4663 
 138   0.0000       0.464500        12.6397 
 139   0.0000       0.470811        12.8114 
 140   0.0000       0.480721        13.0811 
 141   0.0000       0.488083        13.2814 
 142   0.0000       0.500054        13.6071 
 143   0.0000       0.508211        13.8291 
 144   0.0000       0.521498        14.1907 
 145   0.0000       0.550836        14.9890 
 146   0.0000       0.560280        15.2460 
 147   0.0000       0.566392        15.4123 
 148   0.0000       0.573586        15.6081 
 149   0.0000       0.585640        15.9361 
 150   0.0000       0.589277        16.0350 
 151   0.0000       0.597347        16.2546 
 152   0.0000       0.621770        16.9192 
 153   0.0000       0.624484        16.9931 
 154   0.0000       0.641823        17.4649 
 155   0.0000       0.651028        17.7154 
 156   0.0000       0.657848        17.9009 
 157   0.0000       0.664150        18.0724 
 158   0.0000       0.664178        18.0732 
 159   0.0000       0.669146        18.2084 
 160   0.0000       0.674800        18.3622 
 161   0.0000       0.682448        18.5704 
 162   0.0000       0.689520        18.7628 
 163   0.0000       0.691665        18.8212 
 164   0.0000       0.701952        19.1011 
 165   0.0000       0.711458        19.3598 
 166   0.0000       0.718280        19.5454 
 167   0.0000       0.722029        19.6474 
 168   0.0000       0.730332        19.8733 
 169   0.0000       0.733721        19.9656 
 170   0.0000       0.736050        20.0289 
 171   0.0000       0.737239        20.0613 
 172   0.0000       0.739901        20.1337 
 173   0.0000       0.743138        20.2218 
 174   0.0000       0.750059        20.4102 
 175   0.0000       0.757308        20.6074 
 176   0.0000       0.759208        20.6591 
 177   0.0000       0.759731        20.6733 
 178   0.0000       0.766661        20.8619 
 179   0.0000       0.774171        21.0663 
 180   0.0000       0.786589        21.4042 
 181   0.0000       0.792209        21.5571 
 182   0.0000       0.797340        21.6967 
 183   0.0000       0.812212        22.1014 
 184   0.0000       0.819107        22.2890 
 185   0.0000       0.825772        22.4704 
 186   0.0000       0.833329        22.6760 
 187   0.0000       0.836252        22.7556 
 188   0.0000       0.847379        23.0584 
 189   0.0000       0.849909        23.1272 
 190   0.0000       0.862389        23.4668 
 191   0.0000       0.877035        23.8653 
 192   0.0000       0.879686        23.9375 
 193   0.0000       0.890781        24.2394 
 194   0.0000       0.901078        24.5196 
 195   0.0000       0.907503        24.6944 
 196   0.0000       0.921302        25.0699 
 197   0.0000       0.934578        25.4312 
 198   0.0000       0.945154        25.7189 
 199   0.0000       0.954852        25.9828 
 200   0.0000       0.961939        26.1757 
 201   0.0000       0.975091        26.5336 
 202   0.0000       0.990294        26.9473 
 203   0.0000       1.000811        27.2335 
 204   0.0000       1.016242        27.6534 
 205   0.0000       1.026920        27.9439 
 206   0.0000       1.034872        28.1603 
 207   0.0000       1.044028        28.4094 
 208   0.0000       1.055399        28.7189 
 209   0.0000       1.060877        28.8679 
 210   0.0000       1.070086        29.1185 
 211   0.0000       1.074365        29.2350 
 212   0.0000       1.089233        29.6395 
 213   0.0000       1.094175        29.7740 
 214   0.0000       1.102102        29.9897 
 215   0.0000       1.103540        30.0288 
 216   0.0000       1.112482        30.2722 
 217   0.0000       1.115603        30.3571 
 218   0.0000       1.123287        30.5662 
 219   0.0000       1.140007        31.0212 
 220   0.0000       1.143529        31.1170 
 221   0.0000       1.150639        31.3105 
 222   0.0000       1.161849        31.6155 
 223   0.0000       1.174914        31.9710 
 224   0.0000       1.182526        32.1782 
 225   0.0000       1.184947        32.2440 
 226   0.0000       1.190738        32.4016 
 227   0.0000       1.198342        32.6085 
 228   0.0000       1.204698        32.7815 
 229   0.0000       1.211684        32.9716 
 230   0.0000       1.215001        33.0619 
 231   0.0000       1.227027        33.3891 
 232   0.0000       1.230813        33.4921 
 233   0.0000       1.240062        33.7438 
 234   0.0000       1.245042        33.8793 
 235   0.0000       1.252182        34.0736 
 236   0.0000       1.261057        34.3151 
 237   0.0000       1.273785        34.6615 
 238   0.0000       1.280284        34.8383 
 239   0.0000       1.299017        35.3481 
 240   0.0000       1.315551        35.7980 
 241   0.0000       1.327840        36.1324 
 242   0.0000       1.330091        36.1936 
 243   0.0000       1.350024        36.7360 
 244   0.0000       1.370274        37.2870 
 245   0.0000       1.379248        37.5312 
 246   0.0000       1.393332        37.9145 
 247   0.0000       1.398078        38.0437 
 248   0.0000       1.410103        38.3709 
 249   0.0000       1.428171        38.8625 
 250   0.0000       1.435902        39.0729 
 251   0.0000       1.448145        39.4060 
 252   0.0000       1.461999        39.7830 
 253   0.0000       1.477338        40.2004 
 254   0.0000       1.487458        40.4758 
 255   0.0000       1.492510        40.6133 
 256   0.0000       1.506475        40.9933 
 257   0.0000       1.553580        42.2751 
 258   0.0000       1.560772        42.4708 
 259   0.0000       1.579311        42.9752 
 260   0.0000       1.581711        43.0405 
 261   0.0000       1.607695        43.7476 
 262   0.0000       1.629442        44.3394 
 263   0.0000       1.644521        44.7497 
 264   0.0000       1.677005        45.6336 
 265   0.0000       1.690137        45.9910 
 266   0.0000       1.695917        46.1482 
 267   0.0000       1.707415        46.4611 
 268   0.0000       1.724301        46.9206 
 269   0.0000       1.743668        47.4476 
 270   0.0000       1.748442        47.5775 
 271   0.0000       1.769461        48.1495 
 272   0.0000       1.789056        48.6827 
 273   0.0000       1.793307        48.7984 
 274   0.0000       1.820813        49.5468 
 275   0.0000       1.885380        51.3038 
 276   0.0000       1.901846        51.7519 
 277   0.0000       1.927302        52.4446 
 278   0.0000       1.931154        52.5494 
 279   0.0000       1.969278        53.5868 
 280   0.0000       1.977533        53.8114 
 281   0.0000       1.988864        54.1197 
 282   0.0000       2.004052        54.5330 
 283   0.0000       2.006005        54.5862 
 284   0.0000       2.029187        55.2170 
 285   0.0000       2.034529        55.3623 
 286   0.0000       2.049171        55.7608 
 287   0.0000       2.051351        55.8201 
 288   0.0000       2.064415        56.1756 
 289   0.0000       2.081615        56.6436 
 290   0.0000       2.087294        56.7981 
 291   0.0000       2.099547        57.1316 
 292   0.0000       2.114906        57.5495 
 293   0.0000       2.126476        57.8644 
 294   0.0000       2.143360        58.3238 
 295   0.0000       2.154834        58.6360 
 296   0.0000       2.168706        59.0135 
 297   0.0000       2.178726        59.2862 
 298   0.0000       2.184887        59.4538 
 299   0.0000       2.231654        60.7264 
 300   0.0000       2.243520        61.0493 
 301   0.0000       2.252750        61.3004 
 302   0.0000       2.299870        62.5827 
 303   0.0000       2.305515        62.7363 
 304   0.0000       2.313308        62.9483 
 305   0.0000       2.321998        63.1848 
 306   0.0000       2.328459        63.3606 
 307   0.0000       2.332468        63.4697 
 308   0.0000       2.342260        63.7361 
 309   0.0000       2.344759        63.8041 
 310   0.0000       2.367964        64.4356 
 311   0.0000       2.369308        64.4722 
 312   0.0000       2.388038        64.9818 
 313   0.0000       2.412814        65.6560 
 314   0.0000       2.440557        66.4109 
 315   0.0000       2.462744        67.0147 
 316   0.0000       2.470605        67.2286 
 317   0.0000       2.497383        67.9572 
 318   0.0000       2.505041        68.1656 
 319   0.0000       2.512720        68.3746 
 320   0.0000       2.543637        69.2159 
 321   0.0000       2.564952        69.7959 
 322   0.0000       2.578914        70.1758 
 323   0.0000       2.602655        70.8218 
 324   0.0000       2.603983        70.8580 
 325   0.0000       2.618434        71.2512 
 326   0.0000       2.635473        71.7149 
 327   0.0000       2.639917        71.8358 
 328   0.0000       2.648160        72.0601 
 329   0.0000       2.660559        72.3975 
 330   0.0000       2.666696        72.5645 
 331   0.0000       2.681040        72.9548 
 332   0.0000       2.688003        73.1443 
 333   0.0000       2.706346        73.6434 
 334   0.0000       2.758089        75.0514 
 335   0.0000       2.769839        75.3712 
 336   0.0000       2.786023        75.8115 
 337   0.0000       2.803475        76.2864 
 338   0.0000       2.825796        76.8938 
 339   0.0000       2.835273        77.1517 
 340   0.0000       2.844559        77.4044 
 341   0.0000       2.856440        77.7277 
 342   0.0000       2.881647        78.4136 
 343   0.0000       2.883451        78.4627 
 344   0.0000       2.892759        78.7160 
 345   0.0000       2.909830        79.1805 
 346   0.0000       2.929788        79.7236 
 347   0.0000       2.949846        80.2694 
 348   0.0000       2.957694        80.4829 
 349   0.0000       2.962134        80.6038 
 350   0.0000       2.964841        80.6774 
 351   0.0000       3.026428        82.3533 
 352   0.0000       3.031658        82.4956 
 353   0.0000       3.042175        82.7818 
 354   0.0000       3.130874        85.1954 
 355   0.0000       3.198896        87.0464 
 356   0.0000       3.255108        88.5760 
 357   0.0000       3.271939        89.0340 
 358   0.0000       3.291717        89.5722 
 359   0.0000       3.527814        95.9967 
 360   0.0000       3.565287        97.0164 
 361   0.0000       3.707485       100.8858 
 362   0.0000       3.736806       101.6837 
 363   0.0000       3.770514       102.6009 
 364   0.0000       3.783214       102.9465 
 365   0.0000       3.981710       108.3478 
 366   0.0000      13.420795       365.1984 
 367   0.0000      13.426278       365.3476 
 368   0.0000      13.769073       374.6755 
 369   0.0000      13.796243       375.4149 
 370   0.0000      13.829095       376.3088 
 371   0.0000      13.837713       376.5433 
 372   0.0000      14.029488       381.7618 
 373   0.0000      14.061634       382.6365 
 374   0.0000      14.196009       386.2930 
 375   0.0000      14.236826       387.4037 
 376   0.0000      14.246751       387.6738 
 377   0.0000      14.270789       388.3279 
 378   0.0000      14.307346       389.3227 
 379   0.0000      14.606061       397.4511 
 380   0.0000      14.638879       398.3441 
 381   0.0000      25.649007       697.9450 
 382   0.0000      25.706480       699.5089 
 383   0.0000      25.853719       703.5155 
 384   0.0000      51.788221      1409.2291 

                    ********************************
                    * MULLIKEN POPULATION ANALYSIS *
                    ********************************

-----------------------
MULLIKEN ATOMIC CHARGES
-----------------------
   0 C :   -0.050243
   1 C :    0.031515
   2 C :   -0.283142
   3 C :   -0.214298
   4 C :   -0.237311
   5 C :   -0.229312
   6 H :    0.413795
   7 H :    0.189041
   8 H :    0.167368
   9 H :    0.174189
  10 H :    0.171998
  11 C :   -0.455886
  12 C :   -0.520687
  13 H :    0.209834
  14 H :    0.213384
  15 C :    0.133576
  16 H :    0.271106
  17 H :    0.193487
  18 C :   -0.097913
  19 C :   -0.317877
  20 C :   -0.225624
  21 C :   -0.280520
  22 C :   -0.234107
  23 H :    0.234671
  24 H :    0.182512
  25 H :    0.172279
  26 H :    0.179579
  27 Pd:    0.030356
  28 Br:   -0.492589
  29 P :   -0.149110
  30 H :    0.105897
  31 C :    0.734504
  32 O :   -0.475209
  33 O :   -0.602562
  34 O :   -0.600735
  35 H :    0.090973
  36 H :    0.129721
  37 H :    0.437339
Sum of atomic charges:   -1.0000000

--------------------------------
MULLIKEN REDUCED ORBITAL CHARGES
--------------------------------
  0 C s       :     3.357957  s :     3.357957
      pz      :     0.840445  p :     2.655940
      px      :     0.911806
      py      :     0.903688
      dz2     :     0.006108  d :     0.036346
      dxz     :     0.007302
      dyz     :     0.007113
      dx2y2   :     0.010917
      dxy     :     0.004907
  1 C s       :     3.213101  s :     3.213101
      pz      :     0.923019  p :     2.711024
      px      :     0.895721
      py      :     0.892284
      dz2     :     0.007859  d :     0.044361
      dxz     :     0.010943
      dyz     :     0.006780
      dx2y2   :     0.008720
      dxy     :     0.010060
  2 C s       :     3.283609  s :     3.283609
      pz      :     1.028107  p :     2.959734
      px      :     0.926126
      py      :     1.005501
      dz2     :     0.003850  d :     0.039799
      dxz     :     0.007916
      dyz     :     0.007566
      dx2y2   :     0.009750
      dxy     :     0.010717
  3 C s       :     3.228235  s :     3.228235
      pz      :     1.003158  p :     2.946166
      px      :     0.988132
      py      :     0.954877
      dz2     :     0.005894  d :     0.039897
      dxz     :     0.007480
      dyz     :     0.006605
      dx2y2   :     0.011958
      dxy     :     0.007960
  4 C s       :     3.229668  s :     3.229668
      pz      :     0.988053  p :     2.966586
      px      :     0.979331
      py      :     0.999202
      dz2     :     0.008021  d :     0.041057
      dxz     :     0.007368
      dyz     :     0.005695
      dx2y2   :     0.007354
      dxy     :     0.012619
  5 C s       :     3.252221  s :     3.252221
      pz      :     1.014784  p :     2.937564
      px      :     0.923202
      py      :     0.999578
      dz2     :     0.004519  d :     0.039527
      dxz     :     0.007801
      dyz     :     0.008444
      dx2y2   :     0.009940
      dxy     :     0.008824
  6 H s       :     0.586205  s :     0.586205
  7 H s       :     0.810959  s :     0.810959
  8 H s       :     0.832632  s :     0.832632
  9 H s       :     0.825811  s :     0.825811
 10 H s       :     0.828002  s :     0.828002
 11 C s       :     3.332707  s :     3.332707
      pz      :     1.065168  p :     3.079152
      px      :     0.941568
      py      :     1.072416
      dz2     :     0.011860  d :     0.044027
      dxz     :     0.010272
      dyz     :     0.002253
      dx2y2   :     0.011018
      dxy     :     0.008623
 12 C s       :     3.370441  s :     3.370441
      pz      :     1.011954  p :     3.105957
      px      :     0.979844
      py      :     1.114159
      dz2     :     0.009321  d :     0.044289
      dxz     :     0.013727
      dyz     :     0.003475
      dx2y2   :     0.010629
      dxy     :     0.007136
 13 H s       :     0.790166  s :     0.790166
 14 H s       :     0.786616  s :     0.786616
 15 C s       :     3.160183  s :     3.160183
      pz      :     0.866203  p :     2.659970
      px      :     0.916674
      py      :     0.877094
      dz2     :     0.012721  d :     0.046271
      dxz     :     0.011728
      dyz     :     0.008538
      dx2y2   :     0.006503
      dxy     :     0.006782
 16 H s       :     0.728894  s :     0.728894
 17 H s       :     0.806513  s :     0.806513
 18 C s       :     3.319545  s :     3.319545
      pz      :     0.841375  p :     2.737858
      px      :     0.925226
      py      :     0.971257
      dz2     :     0.008911  d :     0.040511
      dxz     :     0.011745
      dyz     :     0.009148
      dx2y2   :     0.006769
      dxy     :     0.003938
 19 C s       :     3.266503  s :     3.266503
      pz      :     1.079732  p :     3.010888
      px      :     0.958826
      py      :     0.972329
      dz2     :     0.010746  d :     0.040486
      dxz     :     0.007131
      dyz     :     0.009240
      dx2y2   :     0.006755
      dxy     :     0.006613
 20 C s       :     3.239121  s :     3.239121
      pz      :     0.971626  p :     2.945819
      px      :     0.991743
      py      :     0.982450
      dz2     :     0.008949  d :     0.040684
      dxz     :     0.012324
      dyz     :     0.007413
      dx2y2   :     0.006571
      dxy     :     0.005426
 21 C s       :     3.273210  s :     3.273210
      pz      :     0.993285  p :     2.967007
      px      :     0.976045
      py      :     0.997677
      dz2     :     0.011107  d :     0.040303
      dxz     :     0.009966
      dyz     :     0.006715
      dx2y2   :     0.006649
      dxy     :     0.005866
 22 C s       :     3.232337  s :     3.232337
      pz      :     0.920180  p :     2.961471
      px      :     1.042171
      py      :     0.999120
      dz2     :     0.011830  d :     0.040299
      dxz     :     0.009266
      dyz     :     0.008888
      dx2y2   :     0.002555
      dxy     :     0.007760
 23 H s       :     0.765329  s :     0.765329
 24 H s       :     0.817488  s :     0.817488
 25 H s       :     0.827721  s :     0.827721
 26 H s       :     0.820421  s :     0.820421
 27 Pds       :     2.617325  s :     2.617325
      pz      :     2.081525  p :     6.305951
      px      :     2.112715
      py      :     2.111711
      dz2     :     1.944737  d :     9.043839
      dxz     :     1.946626
      dyz     :     1.956234
      dx2y2   :     1.955975
      dxy     :     1.240267
      f0      :     0.000188  f :     0.002529
      f+1     :     0.000285
      f-1     :     0.000311
      f+2     :     0.000048
      f-2     :     0.000279
      f+3     :     0.000591
      f-3     :     0.000827
 28 Brs       :     7.963352  s :     7.963352
      pz      :     5.820855  p :    17.517640
      px      :     5.889176
      py      :     5.807609
      dz2     :     2.002601  d :    10.011596
      dxz     :     2.001074
      dyz     :     2.002293
      dx2y2   :     2.002466
      dxy     :     2.003162
 29 P s       :     5.615189  s :     5.615189
      pz      :     2.978969  p :     9.362102
      px      :     3.149765
      py      :     3.233368
      dz2     :     0.029813  d :     0.171818
      dxz     :     0.006315
      dyz     :     0.063195
      dx2y2   :     0.062564
      dxy     :     0.009931
 30 H s       :     0.894103  s :     0.894103
 31 C s       :     2.809861  s :     2.809861
      pz      :     0.759449  p :     2.286814
      px      :     0.799562
      py      :     0.727802
      dz2     :     0.018107  d :     0.168821
      dxz     :     0.027431
      dyz     :     0.023214
      dx2y2   :     0.039221
      dxy     :     0.060849
 32 O s       :     3.769633  s :     3.769633
      pz      :     1.532578  p :     4.675779
      px      :     1.381156
      py      :     1.762045
      dz2     :     0.004375  d :     0.029797
      dxz     :     0.009764
      dyz     :     0.000950
      dx2y2   :     0.007931
      dxy     :     0.006776
 33 O s       :     3.816520  s :     3.816520
      pz      :     1.604916  p :     4.767670
      px      :     1.567684
      py      :     1.595071
      dz2     :     0.002408  d :     0.018372
      dxz     :     0.002265
      dyz     :     0.004912
      dx2y2   :     0.003963
      dxy     :     0.004824
 34 O s       :     3.811435  s :     3.811435
      pz      :     1.821626  p :     4.760610
      px      :     1.661824
      py      :     1.277159
      dz2     :     0.004139  d :     0.028690
      dxz     :     0.004282
      dyz     :     0.002898
      dx2y2   :     0.002534
      dxy     :     0.014837
 35 H s       :     0.909027  s :     0.909027
 36 H s       :     0.870279  s :     0.870279
 37 H s       :     0.562661  s :     0.562661


                     *******************************
                     * LOEWDIN POPULATION ANALYSIS *
                     *******************************

----------------------
LOEWDIN ATOMIC CHARGES
----------------------
   0 C :   -0.057364
   1 C :   -0.038552
   2 C :   -0.120986
   3 C :   -0.171626
   4 C :   -0.167419
   5 C :   -0.159454
   6 H :    0.391704
   7 H :    0.129666
   8 H :    0.116004
   9 H :    0.116838
  10 H :    0.113644
  11 C :   -0.217819
  12 C :   -0.211105
  13 H :    0.126327
  14 H :    0.127884
  15 C :   -0.037978
  16 H :    0.160914
  17 H :    0.116614
  18 C :   -0.010449
  19 C :   -0.144037
  20 C :   -0.154251
  21 C :   -0.147695
  22 C :   -0.168193
  23 H :    0.144557
  24 H :    0.120476
  25 H :    0.118602
  26 H :    0.118611
  27 Pd:   -0.843596
  28 Br:   -0.269909
  29 P :    0.340657
  30 H :    0.047636
  31 C :    0.169163
  32 O :   -0.289620
  33 O :   -0.355926
  34 O :   -0.317630
  35 H :    0.033801
  36 H :    0.058786
  37 H :    0.331724

-------------------------------
LOEWDIN REDUCED ORBITAL CHARGES
-------------------------------
  0 C s       :     2.936918  s :     2.936918
      pz      :     0.957739  p :     3.041164
      px      :     1.079560
      py      :     1.003865
      dz2     :     0.012575  d :     0.079282
      dxz     :     0.016355
      dyz     :     0.015777
      dx2y2   :     0.023138
      dxy     :     0.011436
  1 C s       :     2.859317  s :     2.859317
      pz      :     1.029061  p :     3.075356
      px      :     1.009692
      py      :     1.036603
      dz2     :     0.016929  d :     0.103880
      dxz     :     0.025660
      dyz     :     0.016264
      dx2y2   :     0.020895
      dxy     :     0.024131
  2 C s       :     2.895932  s :     2.895932
      pz      :     1.014557  p :     3.137303
      px      :     1.080441
      py      :     1.042305
      dz2     :     0.008451  d :     0.087751
      dxz     :     0.017245
      dyz     :     0.013095
      dx2y2   :     0.023438
      dxy     :     0.025522
  3 C s       :     2.892290  s :     2.892290
      pz      :     1.051411  p :     3.188316
      px      :     1.063917
      py      :     1.072988
      dz2     :     0.012327  d :     0.091020
      dxz     :     0.015462
      dyz     :     0.016223
      dx2y2   :     0.026700
      dxy     :     0.020307
  4 C s       :     2.885230  s :     2.885230
      pz      :     1.054115  p :     3.187835
      px      :     1.075222
      py      :     1.058498
      dz2     :     0.016737  d :     0.094353
      dxz     :     0.018363
      dyz     :     0.013327
      dx2y2   :     0.018576
      dxy     :     0.027350
  5 C s       :     2.889432  s :     2.889432
      pz      :     1.044365  p :     3.179533
      px      :     1.079743
      py      :     1.055424
      dz2     :     0.010309  d :     0.090489
      dxz     :     0.018584
      dyz     :     0.015412
      dx2y2   :     0.023902
      dxy     :     0.022282
  6 H s       :     0.608296  s :     0.608296
  7 H s       :     0.870334  s :     0.870334
  8 H s       :     0.883996  s :     0.883996
  9 H s       :     0.883162  s :     0.883162
 10 H s       :     0.886356  s :     0.886356
 11 C s       :     2.903964  s :     2.903964
      pz      :     1.086404  p :     3.225331
      px      :     1.047738
      py      :     1.091190
      dz2     :     0.022159  d :     0.088524
      dxz     :     0.021395
      dyz     :     0.004260
      dx2y2   :     0.022181
      dxy     :     0.018528
 12 C s       :     2.891447  s :     2.891447
      pz      :     1.063295  p :     3.229428
      px      :     1.058981
      py      :     1.107152
      dz2     :     0.019268  d :     0.090229
      dxz     :     0.028004
      dyz     :     0.007108
      dx2y2   :     0.020010
      dxy     :     0.015838
 13 H s       :     0.873673  s :     0.873673
 14 H s       :     0.872116  s :     0.872116
 15 C s       :     2.839485  s :     2.839485
      pz      :     1.067694  p :     3.086830
      px      :     1.019644
      py      :     0.999493
      dz2     :     0.030841  d :     0.111663
      dxz     :     0.029415
      dyz     :     0.021635
      dx2y2   :     0.013357
      dxy     :     0.016415
 16 H s       :     0.839086  s :     0.839086
 17 H s       :     0.883386  s :     0.883386
 18 C s       :     2.890643  s :     2.890643
      pz      :     1.051622  p :     3.027870
      px      :     1.011604
      py      :     0.964644
      dz2     :     0.024164  d :     0.091937
      dxz     :     0.027380
      dyz     :     0.020508
      dx2y2   :     0.011958
      dxy     :     0.007927
 19 C s       :     2.882551  s :     2.882551
      pz      :     1.081224  p :     3.169776
      px      :     1.049554
      py      :     1.038998
      dz2     :     0.023622  d :     0.091710
      dxz     :     0.017993
      dyz     :     0.019100
      dx2y2   :     0.014393
      dxy     :     0.016601
 20 C s       :     2.888977  s :     2.888977
      pz      :     1.072787  p :     3.172335
      px      :     1.048703
      py      :     1.050845
      dz2     :     0.021825  d :     0.092939
      dxz     :     0.026646
      dyz     :     0.018061
      dx2y2   :     0.013513
      dxy     :     0.012894
 21 C s       :     2.888034  s :     2.888034
      pz      :     1.067534  p :     3.167679
      px      :     1.057614
      py      :     1.042531
      dz2     :     0.024619  d :     0.091982
      dxz     :     0.023890
      dyz     :     0.015361
      dx2y2   :     0.014022
      dxy     :     0.014091
 22 C s       :     2.886324  s :     2.886324
      pz      :     1.094362  p :     3.189613
      px      :     1.051974
      py      :     1.043277
      dz2     :     0.029982  d :     0.092257
      dxz     :     0.022765
      dyz     :     0.021715
      dx2y2   :     0.004438
      dxy     :     0.013358
 23 H s       :     0.855443  s :     0.855443
 24 H s       :     0.879524  s :     0.879524
 25 H s       :     0.881398  s :     0.881398
 26 H s       :     0.881389  s :     0.881389
 27 Pds       :     2.603241  s :     2.603241
      pz      :     2.163973  p :     6.891847
      px      :     2.354807
      py      :     2.373067
      dz2     :     1.991931  d :     9.345241
      dxz     :     1.973530
      dyz     :     1.984355
      dx2y2   :     1.995029
      dxy     :     1.400397
      f0      :     0.000218  f :     0.003268
      f+1     :     0.000377
      f-1     :     0.000420
      f+2     :     0.000053
      f-2     :     0.000336
      f+3     :     0.000785
      f-3     :     0.001077
 28 Brs       :     7.841108  s :     7.841108
      pz      :     5.793514  p :    17.414864
      px      :     5.855500
      py      :     5.765851
      dz2     :     2.003196  d :    10.013936
      dxz     :     2.001215
      dyz     :     2.002391
      dx2y2   :     2.002807
      dxy     :     2.004328
 29 P s       :     5.290385  s :     5.290385
      pz      :     2.954273  p :     9.169012
      px      :     3.079013
      py      :     3.135725
      dz2     :     0.035268  d :     0.199946
      dxz     :     0.007196
      dyz     :     0.073247
      dx2y2   :     0.071828
      dxy     :     0.012408
 30 H s       :     0.952364  s :     0.952364
 31 C s       :     2.793806  s :     2.793806
      pz      :     0.803825  p :     2.665838
      px      :     0.982205
      py      :     0.879809
      dz2     :     0.039504  d :     0.371192
      dxz     :     0.058815
      dyz     :     0.049886
      dx2y2   :     0.084973
      dxy     :     0.138015
 32 O s       :     3.528025  s :     3.528025
      pz      :     1.522181  p :     4.708274
      px      :     1.460018
      py      :     1.726075
      dz2     :     0.007230  d :     0.053322
      dxz     :     0.016479
      dyz     :     0.001468
      dx2y2   :     0.017707
      dxy     :     0.010438
 33 O s       :     3.555463  s :     3.555463
      pz      :     1.592884  p :     4.764256
      px      :     1.557346
      py      :     1.614025
      dz2     :     0.004406  d :     0.036207
      dxz     :     0.005319
      dyz     :     0.008782
      dx2y2   :     0.007832
      dxy     :     0.009867
 34 O s       :     3.508287  s :     3.508287
      pz      :     1.795642  p :     4.758971
      px      :     1.661184
      py      :     1.302145
      dz2     :     0.006799  d :     0.050372
      dxz     :     0.004825
      dyz     :     0.005817
      dx2y2   :     0.006793
      dxy     :     0.026137
 35 H s       :     0.966199  s :     0.966199
 36 H s       :     0.941214  s :     0.941214
 37 H s       :     0.668276  s :     0.668276


                      *****************************
                      * MAYER POPULATION ANALYSIS *
                      *****************************

  NA   - Mulliken gross atomic population
  ZA   - Total nuclear charge
  QA   - Mulliken gross atomic charge
  VA   - Mayer's total valence
  BVA  - Mayer's bonded valence
  FA   - Mayer's free valence

  ATOM       NA         ZA         QA         VA         BVA        FA
  0 C      6.0502     6.0000    -0.0502     3.6489     3.6489     0.0000
  1 C      5.9685     6.0000     0.0315     3.7570     3.7570     0.0000
  2 C      6.2831     6.0000    -0.2831     3.8673     3.8673    -0.0000
  3 C      6.2143     6.0000    -0.2143     3.8008     3.8008     0.0000
  4 C      6.2373     6.0000    -0.2373     3.8659     3.8659     0.0000
  5 C      6.2293     6.0000    -0.2293     3.7785     3.7785    -0.0000
  6 H      0.5862     1.0000     0.4138     0.8303     0.8303    -0.0000
  7 H      0.8110     1.0000     0.1890     0.9259     0.9259    -0.0000
  8 H      0.8326     1.0000     0.1674     0.9288     0.9288     0.0000
  9 H      0.8258     1.0000     0.1742     0.9241     0.9241     0.0000
 10 H      0.8280     1.0000     0.1720     0.9229     0.9229     0.0000
 11 C      6.4559     6.0000    -0.4559     3.7286     3.7286    -0.0000
 12 C      6.5207     6.0000    -0.5207     3.7367     3.7367    -0.0000
 13 H      0.7902     1.0000     0.2098     0.8989     0.8989    -0.0000
 14 H      0.7866     1.0000     0.2134     0.9026     0.9026    -0.0000
 15 C      5.8664     6.0000     0.1336     3.6982     3.6982     0.0000
 16 H      0.7289     1.0000     0.2711     0.8840     0.8840     0.0000
 17 H      0.8065     1.0000     0.1935     0.9110     0.9110     0.0000
 18 C      6.0979     6.0000    -0.0979     3.7455     3.7455    -0.0000
 19 C      6.3179     6.0000    -0.3179     3.8242     3.8242    -0.0000
 20 C      6.2256     6.0000    -0.2256     3.8254     3.8254     0.0000
 21 C      6.2805     6.0000    -0.2805     3.8215     3.8215     0.0000
 22 C      6.2341     6.0000    -0.2341     3.8354     3.8354     0.0000
 23 H      0.7653     1.0000     0.2347     0.9200     0.9200    -0.0000
 24 H      0.8175     1.0000     0.1825     0.9228     0.9228     0.0000
 25 H      0.8277     1.0000     0.1723     0.9298     0.9298     0.0000
 26 H      0.8204     1.0000     0.1796     0.9230     0.9230    -0.0000
 27 Pd    17.9696    18.0000     0.0304     2.6912     2.6912     0.0000
 28 Br    35.4926    35.0000    -0.4926     0.8967     0.8967     0.0000
 29 P     15.1491    15.0000    -0.1491     3.4478     3.4478    -0.0000
 30 H      0.8941     1.0000     0.1059     0.9616     0.9616     0.0000
 31 C      5.2655     6.0000     0.7345     4.2499     4.2499     0.0000
 32 O      8.4752     8.0000    -0.4752     2.1370     2.1370     0.0000
 33 O      8.6026     8.0000    -0.6026     1.9842     1.9842     0.0000
 34 O      8.6007     8.0000    -0.6007     1.9642     1.9642    -0.0000
 35 H      0.9090     1.0000     0.0910     0.9593     0.9593     0.0000
 36 H      0.8703     1.0000     0.1297     0.9583     0.9583    -0.0000
 37 H      0.5627     1.0000     0.4373     0.7946     0.7946     0.0000

  Mayer bond orders larger than 0.100000
B(  0-C ,  1-C ) :   1.3881 B(  0-C ,  2-C ) :   1.3603 B(  0-C , 27-Pd) :   0.7061 
B(  1-C ,  5-C ) :   1.3464 B(  1-C , 11-C ) :   0.9626 B(  2-C ,  3-C ) :   1.4365 
B(  2-C ,  7-H ) :   0.9199 B(  3-C ,  4-C ) :   1.4049 B(  3-C ,  9-H ) :   0.9295 
B(  4-C ,  5-C ) :   1.4614 B(  4-C , 10-H ) :   0.9283 B(  5-C ,  8-H ) :   0.9313 
B(  6-H , 28-Br) :   0.2361 B(  6-H , 33-O ) :   0.5303 B( 11-C , 12-C ) :   0.9875 
B( 11-C , 13-H ) :   0.9143 B( 11-C , 14-H ) :   0.9162 B( 12-C , 15-C ) :   0.9668 
B( 12-C , 16-H ) :   0.8757 B( 12-C , 17-H ) :   0.9229 B( 15-C , 18-C ) :   1.3413 
B( 15-C , 21-C ) :   1.4065 B( 18-C , 19-C ) :   1.4080 B( 18-C , 27-Pd) :   0.7924 
B( 19-C , 20-C ) :   1.4177 B( 19-C , 23-H ) :   0.8951 B( 20-C , 22-C ) :   1.4336 
B( 20-C , 24-H ) :   0.9276 B( 21-C , 22-C ) :   1.4203 B( 21-C , 25-H ) :   0.9285 
B( 22-C , 26-H ) :   0.9288 B( 27-Pd, 28-Br) :   0.4134 B( 27-Pd, 29-P ) :   0.4551 
B( 29-P , 30-H ) :   0.9422 B( 29-P , 35-H ) :   0.9250 B( 29-P , 36-H ) :   0.9367 
B( 31-C , 32-O ) :   1.9153 B( 31-C , 33-O ) :   1.2302 B( 31-C , 34-O ) :   1.0649 
B( 34-O , 37-H ) :   0.7613 


------------------
HIRSHFELD ANALYSIS
------------------

Total integrated alpha density =    100.000159322
Total integrated beta density  =    100.000159322

  ATOM     CHARGE      SPIN    
   0 C   -0.156802    0.000000
   1 C   -0.022763    0.000000
   2 C   -0.073476    0.000000
   3 C   -0.077830    0.000000
   4 C   -0.079991    0.000000
   5 C   -0.076498    0.000000
   6 H    0.227311    0.000000
   7 H    0.010453    0.000000
   8 H    0.022137    0.000000
   9 H    0.024592    0.000000
  10 H    0.022522    0.000000
  11 C   -0.051129    0.000000
  12 C   -0.058784    0.000000
  13 H    0.017772    0.000000
  14 H    0.016216    0.000000
  15 C   -0.024935    0.000000
  16 H    0.007063    0.000000
  17 H    0.014765    0.000000
  18 C   -0.119654    0.000000
  19 C   -0.075350    0.000000
  20 C   -0.068791    0.000000
  21 C   -0.067262    0.000000
  22 C   -0.076899    0.000000
  23 H    0.023111    0.000000
  24 H    0.027079    0.000000
  25 H    0.023461    0.000000
  26 H    0.025929    0.000000
  27 Pd   0.357253    0.000000
  28 Br  -0.460595    0.000000
  29 P    0.099956    0.000000
  30 H    0.002071    0.000000
  31 C    0.275444    0.000000
  32 O   -0.357635    0.000000
  33 O   -0.304886    0.000000
  34 O   -0.238167    0.000000
  35 H   -0.004821    0.000000
  36 H    0.012435    0.000000
  37 H    0.186378    0.000000

  TOTAL  -1.000319    0.000000

-------
TIMINGS
-------

Total SCF time: 0 days 0 hours 14 min 34 sec 

Total time                  ....     874.647 sec
Sum of individual times     ....     874.004 sec  ( 99.9%)

Fock matrix formation       ....     863.279 sec  ( 98.7%)
  Split-RI-J                ....      91.460 sec  ( 10.6% of F)
  Chain of spheres X        ....     703.935 sec  ( 81.5% of F)
  XC integration            ....      67.661 sec  (  7.8% of F)
    Basis function eval.    ....      25.111 sec  ( 37.1% of XC)
    Density eval.           ....      18.455 sec  ( 27.3% of XC)
    XC-Functional eval.     ....       4.909 sec  (  7.3% of XC)
    XC-Potential eval.      ....      17.385 sec  ( 25.7% of XC)
Diagonalization             ....       1.115 sec  (  0.1%)
Density matrix formation    ....       0.148 sec  (  0.0%)
Population analysis         ....       1.581 sec  (  0.2%)
Initial guess               ....       0.082 sec  (  0.0%)
Orbital Transformation      ....       0.000 sec  (  0.0%)
Orbital Orthonormalization  ....       0.000 sec  (  0.0%)
DIIS solution               ....       0.406 sec  (  0.0%)
Grid generation             ....       7.392 sec  (  0.8%)

Maximum memory used throughout the entire SCF-calculation: 181.9 MB


-------------------------------------------------------------------------------
                          DFT DISPERSION CORRECTION                            
                                                                               
                              DFTD3 V3.1  Rev 1                                
                          USING Becke-Johnson damping                          
-------------------------------------------------------------------------------
The PBEh-3c composite method is recognized
Using three-body term ABC
Active option DFTDOPT                   ...         4   

molecular C6(AA) [au] = 24381.982027 


            DFT-D V3
 parameters
 s6 scaling factor         :     1.0000 
 a1 scaling factor         :     0.4860 
 s8 scaling factor         :     0.0000 
 a2 scaling factor         :     4.5000 
 Damping factor alpha9(ATM):    16.0000 
 ad hoc parameters k1-k3   :    16.0000     1.3333    -4.0000 

 Edisp/kcal,au: -20.027321809011  -0.031915565422 
 E6   /kcal   : -20.299687208 
 E8   /kcal   :  -0.000000000 
 E6(ABC)      :   0.272365399 
 % E8         :   0.000000000 
 % E6(ABC)    :  -1.359969154 

-------------------------   ----------------
Dispersion correction           -0.031915565
-------------------------   ----------------

 ** NOTE ** -> element pd will be treated as ni
------------------   -----------------
gCP correction             0.066436300
------------------   -----------------

-------------------------   --------------------
FINAL SINGLE POINT ENERGY     -3847.637723253460
-------------------------   --------------------

------------------------------------------------------------------------------
                         ORCA SCF GRADIENT CALCULATION
------------------------------------------------------------------------------

 ... reading COSX grid (gridx3)
Gradient of the Kohn-Sham DFT energy:
Kohn-Sham wavefunction type      ... RKS
Hartree-Fock exchange scaling    ...    0.420
Number of operators              ...    1
Number of atoms                  ...   38
Basis set dimensions             ...  385
Integral neglect threshold       ... 2.5e-11
Integral primitive cutoff        ... 2.5e-12
SHARK Integral package           ... ON

Nuc. rep. gradient       (SHARK) ... done (  0.0 sec)
HCore & Overlap gradient (SHARK) ... done (  1.9 sec)
ECP gradient             (SHARK) ... done (  2.9 sec)
RI-J gradient            (SHARK) ... done (  9.7 sec)
COSX-gradient                    ... done ( 84.8 sec)
Exchange-correlation gradient    ... done
Dispersion correction            ... done
gCP correction                   ... done

------------------
CARTESIAN GRADIENT
------------------

   1   C   :    0.019085975   -0.020553316   -0.006747457
   2   C   :   -0.016879984    0.000766432    0.005034289
   3   C   :   -0.015078377    0.000405256    0.006412083
   4   C   :   -0.011531532    0.008647146   -0.003077930
   5   C   :    0.001144521    0.002342014    0.002444517
   6   C   :   -0.005708180    0.013992183   -0.001370341
   7   H   :   -0.077896381   -0.019051991    0.044948947
   8   H   :   -0.003657792    0.002263348    0.002811924
   9   H   :   -0.004683473    0.002711473    0.001534670
  10   H   :   -0.004660518    0.001788133    0.001022197
  11   H   :    0.001281583   -0.002450196    0.000216350
  12   C   :    0.006159655    0.009209041    0.011897390
  13   C   :   -0.002211765   -0.003199921   -0.000176048
  14   H   :    0.000708344   -0.000533796   -0.004423351
  15   H   :   -0.002522592   -0.007449652   -0.001415015
  16   C   :    0.002966536   -0.007014455    0.005456410
  17   H   :    0.003370662    0.001958374   -0.002450795
  18   H   :    0.000237285   -0.000548485   -0.002178293
  19   C   :    0.011184970    0.007934329   -0.008204325
  20   C   :    0.007182624   -0.000330390   -0.004818469
  21   C   :   -0.004718724    0.006886951    0.000188329
  22   C   :   -0.005560615    0.006437261   -0.001268975
  23   C   :    0.007377261   -0.002960720   -0.000086137
  24   H   :    0.003741393    0.000009436    0.005599916
  25   H   :    0.002259905   -0.002639093    0.001823435
  26   H   :    0.006101132   -0.005876851   -0.000133801
  27   H   :   -0.003698575    0.003893407   -0.001187205
  28   Pd  :    0.000116292    0.000607568   -0.015668402
  29   Br  :    0.003897731   -0.011271676    0.016161202
  30   P   :    0.018501934   -0.009889404   -0.002856542
  31   H   :    0.001004275   -0.003536566    0.003948209
  32   C   :    0.026966052   -0.016453786   -0.036107718
  33   O   :    0.026796792    0.023869450   -0.008132909
  34   O   :    0.019740815   -0.002797927   -0.015969282
  35   O   :   -0.003280289    0.008520693    0.001908874
  36   H   :   -0.009932992   -0.000830595    0.003052437
  37   H   :   -0.001674492    0.001716518    0.002497488
  38   H   :    0.003369472    0.012025001   -0.001903713

Difference to translation invariance:
           :   -0.0005010718   -0.0014048068   -0.0012180414

Difference to rotation invariance:
           :    0.0095645365   -0.0057429281   -0.0025201445

Norm of the cartesian gradient     ...    0.1318891452
RMS gradient                       ...    0.0123525502
MAX gradient                       ...    0.0778963812

-------
TIMINGS
-------

Total SCF gradient time            ...      113.420 sec

One electron gradient       ....       4.822 sec  (  4.3%)
RI-J Coulomb gradient       ....       9.720 sec  (  8.6%)
COSX gradient               ....      84.780 sec  ( 74.7%)
XC gradient                 ....      12.044 sec  ( 10.6%)

Maximum memory used throughout the entire SCFGRAD-calculation: 147.1 MB

                            ***************************************
                            *     ORCA property calculations      *
                            ***************************************

                                    ---------------------
                                    Active property flags
                                    ---------------------
   (+) Dipole Moment


------------------------------------------------------------------------------
                       ORCA ELECTRIC PROPERTIES CALCULATION
------------------------------------------------------------------------------

Dipole Moment Calculation                       ... on
Quadrupole Moment Calculation                   ... off
Polarizability Calculation                      ... off
GBWName                                         ... 9_3_orca.gbw
Electron density                                ... 9_3_orca.scfp
The origin for moment calculation is the CENTER OF MASS  = (-0.516093, -1.839853 -0.533991)

-------------
DIPOLE MOMENT
-------------
                                X             Y             Z
Electronic contribution:     -9.22848     -62.31292      -2.43951
Nuclear contribution   :     10.26617      62.39381       3.22911
                        -----------------------------------------
Total Dipole Moment    :      1.03768       0.08090       0.78960
                        -----------------------------------------
Magnitude (a.u.)       :      1.30644
Magnitude (Debye)      :      3.32072



--------------------
Rotational spectrum 
--------------------
 
Rotational constants in cm-1:     0.007003     0.006450     0.004806 
Rotational constants in MHz :   209.932954   193.361085   144.073067 

 Dipole components along the rotational axes: 
x,y,z [a.u.] :    -0.661426    -0.638326     0.928360 
x,y,z [Debye]:    -1.681211    -1.622496     2.359703 

 

Timings for individual modules:

Sum of individual times         ...      989.411 sec (=  16.490 min)
GTO integral calculation        ...        1.261 sec (=   0.021 min)   0.1 %
SCF iterations                  ...      874.684 sec (=  14.578 min)  88.4 %
SCF Gradient evaluation         ...      113.465 sec (=   1.891 min)  11.5 %
                             ****ORCA TERMINATED NORMALLY****
TOTAL RUN TIME: 0 days 0 hours 16 minutes 29 seconds 845 msec
