
                                 *****************
                                 * O   R   C   A *
                                 *****************

                                            #,                                       
                                            ###                                      
                                            ####                                     
                                            #####                                    
                                            ######                                   
                                           ########,                                 
                                     ,,################,,,,,                         
                               ,,#################################,,                 
                          ,,##########################################,,             
                       ,#########################################, ''#####,          
                    ,#############################################,,   '####,        
                  ,##################################################,,,,####,       
                ,###########''''           ''''###############################       
              ,#####''   ,,,,##########,,,,          '''####'''          '####       
            ,##' ,,,,###########################,,,                        '##       
           ' ,,###''''                  '''############,,,                           
         ,,##''                                '''############,,,,        ,,,,,,###''
      ,#''                                            '''#######################'''  
     '                                                          ''''####''''         
             ,#######,   #######,   ,#######,      ##                                
            ,#'     '#,  ##    ##  ,#'     '#,    #''#        ######   ,####,        
            ##       ##  ##   ,#'  ##            #'  '#       #        #'  '#        
            ##       ##  #######   ##           ,######,      #####,   #    #        
            '#,     ,#'  ##    ##  '#,     ,#' ,#      #,         ##   #,  ,#        
             '#######'   ##     ##  '#######'  #'      '#     #####' # '####'        



                  #######################################################
                  #                        -***-                        #
                  #          Department of theory and spectroscopy      #
                  #    Directorship and core code : Frank Neese         #
                  #        Max Planck Institute fuer Kohlenforschung    #
                  #                Kaiser Wilhelm Platz 1               #
                  #                 D-45470 Muelheim/Ruhr               #
                  #                      Germany                        #
                  #                                                     #
                  #                  All rights reserved                #
                  #                        -***-                        #
                  #######################################################


                         Program Version 5.0.3 -  RELEASE  -


 With contributions from (in alphabetic order):
   Daniel Aravena         : Magnetic Suceptibility
   Michael Atanasov       : Ab Initio Ligand Field Theory (pilot matlab implementation)
   Alexander A. Auer      : GIAO ZORA, VPT2 properties, NMR spectrum
   Ute Becker             : Parallelization
   Giovanni Bistoni       : ED, misc. LED, open-shell LED, HFLD
   Martin Brehm           : Molecular dynamics
   Dmytro Bykov           : SCF Hessian
   Vijay G. Chilkuri      : MRCI spin determinant printing, contributions to CSF-ICE
   Dipayan Datta          : RHF DLPNO-CCSD density
   Achintya Kumar Dutta   : EOM-CC, STEOM-CC
   Dmitry Ganyushin       : Spin-Orbit,Spin-Spin,Magnetic field MRCI
   Miquel Garcia          : C-PCM and meta-GGA Hessian, CC/C-PCM, Gaussian charge scheme
   Yang Guo               : DLPNO-NEVPT2, F12-NEVPT2, CIM, IAO-localization
   Andreas Hansen         : Spin unrestricted coupled pair/coupled cluster methods
   Benjamin Helmich-Paris : MC-RPA, TRAH-SCF, COSX integrals
   Lee Huntington         : MR-EOM, pCC
   Robert Izsak           : Overlap fitted RIJCOSX, COSX-SCS-MP3, EOM
   Marcus Kettner         : VPT2
   Christian Kollmar      : KDIIS, OOCD, Brueckner-CCSD(T), CCSD density, CASPT2, CASPT2-K
   Simone Kossmann        : Meta GGA functionals, TD-DFT gradient, OOMP2, MP2 Hessian
   Martin Krupicka        : Initial AUTO-CI
   Lucas Lang             : DCDCAS
   Marvin Lechner         : AUTO-CI (C++ implementation), FIC-MRCC
   Dagmar Lenk            : GEPOL surface, SMD
   Dimitrios Liakos       : Extrapolation schemes; Compound Job, initial MDCI parallelization
   Dimitrios Manganas     : Further ROCIS development; embedding schemes
   Dimitrios Pantazis     : SARC Basis sets
   Anastasios Papadopoulos: AUTO-CI, single reference methods and gradients
   Taras Petrenko         : DFT Hessian,TD-DFT gradient, ASA, ECA, R-Raman, ABS, FL, XAS/XES, NRVS
   Peter Pinski           : DLPNO-MP2, DLPNO-MP2 Gradient
   Christoph Reimann      : Effective Core Potentials
   Marius Retegan         : Local ZFS, SOC
   Christoph Riplinger    : Optimizer, TS searches, QM/MM, DLPNO-CCSD(T), (RO)-DLPNO pert. Triples
   Tobias Risthaus        : Range-separated hybrids, TD-DFT gradient, RPA, STAB
   Michael Roemelt        : Original ROCIS implementation
   Masaaki Saitow         : Open-shell DLPNO-CCSD energy and density
   Barbara Sandhoefer     : DKH picture change effects
   Avijit Sen             : IP-ROCIS
   Kantharuban Sivalingam : CASSCF convergence, NEVPT2, FIC-MRCI
   Bernardo de Souza      : ESD, SOC TD-DFT
   Georgi Stoychev        : AutoAux, RI-MP2 NMR, DLPNO-MP2 response
   Willem Van den Heuvel  : Paramagnetic NMR
   Boris Wezisla          : Elementary symmetry handling
   Frank Wennmohs         : Technical directorship


 We gratefully acknowledge several colleagues who have allowed us to
 interface, adapt or use parts of their codes:
   Stefan Grimme, W. Hujo, H. Kruse, P. Pracht,  : VdW corrections, initial TS optimization,
                  C. Bannwarth, S. Ehlert          DFT functionals, gCP, sTDA/sTD-DF
   Ed Valeev, F. Pavosevic, A. Kumar             : LibInt (2-el integral package), F12 methods
   Garnet Chan, S. Sharma, J. Yang, R. Olivares  : DMRG
   Ulf Ekstrom                                   : XCFun DFT Library
   Mihaly Kallay                                 : mrcc  (arbitrary order and MRCC methods)
   Jiri Pittner, Ondrej Demel                    : Mk-CCSD
   Frank Weinhold                                : gennbo (NPA and NBO analysis)
   Christopher J. Cramer and Donald G. Truhlar   : smd solvation model
   Lars Goerigk                                  : TD-DFT with DH, B97 family of functionals
   V. Asgeirsson, H. Jonsson                     : NEB implementation
   FAccTs GmbH                                   : IRC, NEB, NEB-TS, DLPNO-Multilevel, CI-OPT
                                                   MM, QMMM, 2- and 3-layer-ONIOM, Crystal-QMMM,
                                                   LR-CPCM, SF, NACMEs, symmetry and pop. for TD-DFT,
                                                   nearIR, NL-DFT gradient (VV10), updates on ESD,
                                                   ML-optimized integration grids
   S Lehtola, MJT Oliveira, MAL Marques          : LibXC Library
   Liviu Ungur et al                             : ANISO software


 Your calculation uses the libint2 library for the computation of 2-el integrals
 For citations please refer to: http://libint.valeyev.net

 Your ORCA version has been built with support for libXC version: 5.1.0
 For citations please refer to: https://tddft.org/programs/libxc/

 This ORCA versions uses:
   CBLAS   interface :  Fast vector & matrix operations
   LAPACKE interface :  Fast linear algebra routines
   SCALAPACK package :  Parallel linear algebra routines
   Shared memory     :  Shared parallel matrices
   BLAS/LAPACK       :  OpenBLAS 0.3.15  USE64BITINT DYNAMIC_ARCH NO_AFFINITY SkylakeX SINGLE_THREADED
        Core in use  :  SkylakeX
   Copyright (c) 2011-2014, The OpenBLAS Project


Your calculation utilizes the geometrical counterpoise correction gCP
Please cite in your paper:
H.Kruse, S. Grimme J.Chem.Phys., 136, (2012), 154101 
   

Your calculation utilizes the atom-pairwise dispersion correction
with the Becke-Johnson damping scheme (D3BJ)
Cite in your paper:
S.Grimme, S.Ehrlich, L.Goerigk, J Comput Chem, (2011), 32, 1456–1465 
S.Grimme, J.Antony, S.Ehrlich and H.Krieg, J.Chem.Phys., 132, (2010), 154104 
   

Your calculation employs the composite approach PBEh-3c.
Please cite in your paper:
S. Grimme, J. G. Brandenburg, C. Bannwarth, A. Hansen J.Chem.Phys., 143, (2015), 054107 
   

================================================================================

cite the ECPs for Ir [Def2-ECP] as follows:
Ce-Yb(ecp-28): M. Dolg, H. Stoll, H.Preuss, J. Chem. Phys., 1989, 90, 1730-1734.
Y-Cd(ecp-28), Hf-Hg(ecp-46): D. Andrae,U. Haeussermann, M. Dolg, H. Stoll, H. Preuss, Theor. Chim. Acta, 1990, 77, 123-141.
In-Sb(ecp-28), Tl-Bi(ecp-46): B. Metz, H. Stoll, M. Dolg, J. Chem. Phys., 2000, 113, 2563-2569.
Te-Xe(ecp-28), Po-Rn(ecp-46): K. A. Peterson, D. Figgen, E. Goll, H. Stoll, M. Dolg, J. Chem. Phys., 2003, 119, 11113-11123.
Rb(ecp-28), Cs(ecp-46): T. Leininger, A. Nicklass, W. Kuechle, H. Stoll, M. Dolg, A. Bergner, Chem. Phys. Lett., 1996, 255, 274-280.
Sr(ecp-28), Ba(ecp-46): M. Kaupp, P. V. Schleyer, H. Stoll and H. Preuss, J. Chem. Phys., 1991, 94, 1360-1366.
La(ecp-46): M. Dolg, H. Stoll, A. Savin, H. Preuss, Theor. Chim. Acta, 1989, 75, 173-194.
Lu(ecp-28): X. Cao, M. Dolg, J. Chem. Phys., 2001, 115, 7348-7355.

ECP parameters for Ir [Def2-ECP] have been obtained from:
TURBOMOLE (7.0.2)

----- Orbital basis set information -----
Your calculation utilizes the basis: def2-mSVP

----- AuxJ basis set information -----
Your calculation utilizes the auxiliary basis: def2/J
   F. Weigend, Phys. Chem. Chem. Phys. 8, 1057 (2006).

================================================================================
                                        WARNINGS
                       Please study these warnings very carefully!
================================================================================


WARNING: No Hueckel Guess possible with ECP basis!
  ===> : Switching to HCORE guess!

INFO   : the flag for use of the SHARK integral package has been found!

================================================================================
                                       INPUT FILE
================================================================================
NAME = 3_5_orca.inp
|  1> ! EnGrad PBEh-3c
|  2> %output 
|  3> xyzfile=True 
|  4> end 
|  5> %scf 
|  6> maxiter 250 
|  7> end
|  8> %output
|  9> Print[P_Hirshfeld] = 1
| 10> end
| 11> % maxcore
| 12> 4000
| 13> *xyz 1 1
| 14> Ir   0.45169961  -0.67886658   0.99733824 
| 15> C   -0.07844610  -2.66525027   1.71029778 
| 16> C    0.89662097  -2.10192813   2.60049952 
| 17> C    1.84496248  -2.35263135   0.52152090 
| 18> C    0.53152286  -2.86614070   0.44918793 
| 19> C    2.06058853  -1.85624347   1.84147760 
| 20> N   -0.96778434   0.01790103  -0.42519692 
| 21> C   -2.39671177   0.10041467   0.01206393 
| 22> C   -2.86476697   1.53135069   0.25983576 
| 23> H   -3.89601450   1.50857756   0.60535220 
| 24> H   -2.83883532   2.12262155  -0.66210451 
| 25> H   -2.26322749   2.02833570   1.03059100 
| 26> C   -3.34444403  -0.61633268  -0.94106244 
| 27> H   -2.43590018  -0.43213511   0.97512209 
| 28> H   -4.32321681  -0.68824798  -0.48156860 
| 29> H   -3.48781280  -0.07746507  -1.88167713 
| 30> H   -3.01073480  -1.63803231  -1.17471060 
| 31> C   -0.65713493   0.29504240  -1.63635139 
| 32> C    0.65648419   0.22450334  -2.22481396 
| 33> H   -1.49832867   0.56805357  -2.30602942 
| 34> C    1.90771459   0.34680583  -1.76459041 
| 35> C    2.92324423   0.05111395  -2.65468770 
| 36> S    0.73216049   0.02593529  -3.94844862 
| 37> C    2.42154479  -0.06554789  -3.92370283 
| 38> H    2.16170839   0.80159261  -0.78651263 
| 39> H    3.96175041   0.07305823  -2.41686137 
| 40> H    3.00849903  -0.16933783  -4.82396725 
| 41> H   -0.99101819  -3.15254760   2.04006143 
| 42> H    0.74345731  -1.90824285   3.64056921 
| 43> H    2.99251974  -1.44253376   2.21600295 
| 44> O    1.60784323   1.54395230   0.81946741 
| 45> O   -0.06633719   1.03988038   2.05390388 
| 46> C    0.75031027   1.90091273   1.66082624 
| 47> C    0.69939140   3.29999608   2.20585128 
| 48> H    0.79778857   4.04755797   1.41896665 
| 49> H    1.53664394   3.47577144   2.88600099 
| 50> H   -0.22688515   3.50606545   2.76862037 
| 51> H    2.57551341  -2.40621450  -0.26787722 
| 52> H    0.08187463  -3.38545271  -0.39122668 
| 53> *
| 54> 
| 55>                          ****END OF INPUT****
================================================================================

                     *******************************
                     * Energy+Gradient Calculation *
                     *******************************

---------------------------------
CARTESIAN COORDINATES (ANGSTROEM)
---------------------------------
  Ir     0.451700   -0.678867    0.997338
  C     -0.078446   -2.665250    1.710298
  C      0.896621   -2.101928    2.600500
  C      1.844962   -2.352631    0.521521
  C      0.531523   -2.866141    0.449188
  C      2.060589   -1.856243    1.841478
  N     -0.967784    0.017901   -0.425197
  C     -2.396712    0.100415    0.012064
  C     -2.864767    1.531351    0.259836
  H     -3.896014    1.508578    0.605352
  H     -2.838835    2.122622   -0.662105
  H     -2.263227    2.028336    1.030591
  C     -3.344444   -0.616333   -0.941062
  H     -2.435900   -0.432135    0.975122
  H     -4.323217   -0.688248   -0.481569
  H     -3.487813   -0.077465   -1.881677
  H     -3.010735   -1.638032   -1.174711
  C     -0.657135    0.295042   -1.636351
  C      0.656484    0.224503   -2.224814
  H     -1.498329    0.568054   -2.306029
  C      1.907715    0.346806   -1.764590
  C      2.923244    0.051114   -2.654688
  S      0.732160    0.025935   -3.948449
  C      2.421545   -0.065548   -3.923703
  H      2.161708    0.801593   -0.786513
  H      3.961750    0.073058   -2.416861
  H      3.008499   -0.169338   -4.823967
  H     -0.991018   -3.152548    2.040061
  H      0.743457   -1.908243    3.640569
  H      2.992520   -1.442534    2.216003
  O      1.607843    1.543952    0.819467
  O     -0.066337    1.039880    2.053904
  C      0.750310    1.900913    1.660826
  C      0.699391    3.299996    2.205851
  H      0.797789    4.047558    1.418967
  H      1.536644    3.475771    2.886001
  H     -0.226885    3.506065    2.768620
  H      2.575513   -2.406214   -0.267877
  H      0.081875   -3.385453   -0.391227

----------------------------
CARTESIAN COORDINATES (A.U.)
----------------------------
  NO LB      ZA    FRAG     MASS         X           Y           Z
   0 Ir   17.0000*   0   192.220    0.853589   -1.282872    1.884696
   1 C     6.0000    0    12.011   -0.148242   -5.036593    3.231994
   2 C     6.0000    0    12.011    1.694368   -3.972069    4.914232
   3 C     6.0000    0    12.011    3.486474   -4.445829    0.985532
   4 C     6.0000    0    12.011    1.004433   -5.416221    0.848842
   5 C     6.0000    0    12.011    3.893948   -3.507792    3.479888
   6 N     7.0000    0    14.007   -1.828847    0.033828   -0.803506
   7 C     6.0000    0    12.011   -4.529129    0.189756    0.022798
   8 C     6.0000    0    12.011   -5.413625    2.893833    0.491018
   9 H     1.0000    0     1.008   -7.362400    2.850798    1.143950
  10 H     1.0000    0     1.008   -5.364621    4.011173   -1.251196
  11 H     1.0000    0     1.008   -4.276880    3.832999    1.947535
  12 C     6.0000    0    12.011   -6.320083   -1.164700   -1.778350
  13 H     1.0000    0     1.008   -4.603184   -0.816617    1.842714
  14 H     1.0000    0     1.008   -8.169696   -1.300600   -0.910033
  15 H     1.0000    0     1.008   -6.591011   -0.146388   -3.555854
  16 H     1.0000    0     1.008   -5.689464   -3.095432   -2.219881
  17 C     6.0000    0    12.011   -1.241805    0.557549   -3.092256
  18 C     6.0000    0    12.011    1.240575    0.424250   -4.204289
  19 H     1.0000    0     1.008   -2.831431    1.073466   -4.357764
  20 C     6.0000    0    12.011    3.605058    0.655368   -3.334593
  21 C     6.0000    0    12.011    5.524131    0.096591   -5.016633
  22 S    16.0000    0    32.060    1.383583    0.049011   -7.461487
  23 C     6.0000    0    12.011    4.576056   -0.123868   -7.414724
  24 H     1.0000    0     1.008    4.085037    1.514791   -1.486293
  25 H     1.0000    0     1.008    7.486623    0.138060   -4.567206
  26 H     1.0000    0     1.008    5.685239   -0.320002   -9.115977
  27 H     1.0000    0     1.008   -1.872753   -5.957452    3.855157
  28 H     1.0000    0     1.008    1.404931   -3.606056    6.879679
  29 H     1.0000    0     1.008    5.655043   -2.725994    4.187639
  30 O     8.0000    0    15.999    3.038383    2.917647    1.548569
  31 O     8.0000    0    15.999   -0.125359    1.965089    3.881316
  32 C     6.0000    0    12.011    1.417881    3.592204    3.138507
  33 C     6.0000    0    12.011    1.321658    6.236089    4.168455
  34 H     1.0000    0     1.008    1.507602    7.648776    2.681458
  35 H     1.0000    0     1.008    2.903836    6.568256    5.453751
  36 H     1.0000    0     1.008   -0.428751    6.625504    5.231934
  37 H     1.0000    0     1.008    4.867015   -4.547086   -0.506215
  38 H     1.0000    0     1.008    0.154721   -6.397578   -0.739311
* core charge reduced due to ECP

--------------------------------
INTERNAL COORDINATES (ANGSTROEM)
--------------------------------
 Ir     0   0   0     0.000000000000     0.00000000     0.00000000
 C      1   0   0     2.176025262585     0.00000000     0.00000000
 C      2   1   0     1.435460470480    71.30469527     0.00000000
 C      1   2   3     2.229141554783    62.40569405    79.98443051
 C      4   1   2     1.412107484037    72.70033151    36.57578804
 C      3   2   1     1.411132774735   107.16061445   299.20013547
 N      1   2   3     2.126975803362   110.82866052   195.40955050
 C      7   1   2     1.496609218178   117.37733152    57.86098419
 C      8   7   1     1.525793053898   113.08149335   105.84592854
 H      9   8   7     1.087828889987   108.82939154   181.91760449
 H      9   8   7     1.095558096043   111.23723580    63.64054022
 H      9   8   7     1.096771391928   111.76708978   300.89939690
 C      8   7   1     1.523277084961   112.66090786   232.18738694
 H      8   7   1     1.101192998161   105.23819321   348.79610985
 H     13   8   7     1.083652413941   109.13910269   169.17455846
 H     13   8   7     1.093475605746   112.82598310   286.98313099
 H     13   8   7     1.099919745618   112.40935661    49.87242882
 C      7   1   2     1.280705096851   122.78554681   241.58225381
 C     18   7   1     1.441131204196   126.63148037   358.28308404
 H     18   7   1     1.109328928238   116.11787921   175.05482530
 C     19  18   7     1.338783451092   134.99678134   331.88335025
 C     21  19  18     1.382391884844   116.46766846   172.68264839
 S     19  18   7     1.736684373747   116.78100436   156.21605112
 C     22  21  19     1.369566250014   110.22602491    11.62463896
 H     21  19  18     1.108142594358   123.71922534   343.54045366
 H     22  21  19     1.065616253895   124.59840707   182.15167937
 H     24  22  21     1.079705356760   125.56576089   171.91650831
 H      2   1   3     1.085813322875   135.55628807   119.82031830
 H      3   2   1     1.068979913043   125.25079466   118.85358654
 H      6   3   2     1.086241567108   126.05229031   180.78493269
 O     25  21  19     1.853924597624   149.36665076     4.52336990
 O      1   2   3     2.082974841493   121.76556634   291.92393700
 C     32   1   2     1.250119919343   104.26261316   157.48734827
 C     33  32   1     1.502357895375   120.34484441   180.08915935
 H     34  33  32     1.089824849861   111.94993663   224.63228849
 H     34  33  32     1.092928369534   110.46130524   107.18735211
 H     34  33  32     1.103250597549   112.79618120   347.24295970
 H      4   1   2     1.076905384492   128.15776379   158.01787814
 H      5   4   1     1.085433190562   126.79508140   125.47402527

---------------------------
INTERNAL COORDINATES (A.U.)
---------------------------
 Ir     0   0   0     0.000000000000     0.00000000     0.00000000
 C      1   0   0     4.112091806779     0.00000000     0.00000000
 C      2   1   0     2.712627165278    71.30469527     0.00000000
 C      1   2   3     4.212467052282    62.40569405    79.98443051
 C      4   1   2     2.668496416490    72.70033151    36.57578804
 C      3   2   1     2.666654482850   107.16061445   299.20013547
 N      1   2   3     4.019401761832   110.82866052   195.40955050
 C      7   1   2     2.828181551858   117.37733152    57.86098419
 C      8   7   1     2.883331008906   113.08149335   105.84592854
 H      9   8   7     2.055698682644   108.82939154   181.91760449
 H      9   8   7     2.070304765321   111.23723580    63.64054022
 H      9   8   7     2.072597562263   111.76708978   300.89939690
 C      8   7   1     2.878576516653   112.66090786   232.18738694
 H      8   7   1     2.080953187116   105.23819321   348.79610985
 H     13   8   7     2.047806286712   109.13910269   169.17455846
 H     13   8   7     2.066369428984   112.82598310   286.98313099
 H     13   8   7     2.078547088511   112.40935661    49.87242882
 C      7   1   2     2.420181891365   122.78554681   241.58225381
 C     18   7   1     2.723343298978   126.63148037   358.28308404
 H     18   7   1     2.096327866805   116.11787921   175.05482530
 C     19  18   7     2.529934075191   134.99678134   331.88335025
 C     21  19  18     2.612342072110   116.46766846   172.68264839
 S     19  18   7     3.281857847442   116.78100436   156.21605112
 C     22  21  19     2.588105134788   110.22602491    11.62463896
 H     21  19  18     2.094086020670   123.71922534   343.54045366
 H     22  21  19     2.013722883716   124.59840707   182.15167937
 H     24  22  21     2.040347429605   125.56576089   171.91650831
 H      2   1   3     2.051889812797   135.55628807   119.82031830
 H      3   2   1     2.020079278315   125.25079466   118.85358654
 H      6   3   2     2.052699077115   126.05229031   180.78493269
 O     25  21  19     3.503409762450   149.36665076     4.52336990
 O      1   2   3     3.936251994269   121.76556634   291.92393700
 C     32   1   2     2.362384282119   104.26261316   157.48734827
 C     33  32   1     2.839044977394   120.34484441   180.08915935
 H     34  33  32     2.059470500179   111.94993663   224.63228849
 H     34  33  32     2.065335302413   110.46130524   107.18735211
 H     34  33  32     2.084841486452   112.79618120   347.24295970
 H      4   1   2     2.035056248835   128.15776379   158.01787814
 H      5   4   1     2.051171466831   126.79508140   125.47402527

---------------------
BASIS SET INFORMATION
---------------------
There are 6 groups of distinct atoms

 Group   1 Type Ir  : 7s6p5d1f contracted to 6s3p2d1f pattern {211111/411/41/1}
 Group   2 Type C   : 8s4p1d contracted to 4s2p1d pattern {5111/31/1}
 Group   3 Type N   : 8s4p1d contracted to 4s2p1d pattern {5111/31/1}
 Group   4 Type H   : 4s contracted to 2s pattern {31}
 Group   5 Type S   : 10s7p1d contracted to 4s3p1d pattern {5311/511/1}
 Group   6 Type O   : 8s4p1d contracted to 4s2p1d pattern {5111/31/1}

Atom   0Ir   basis set group =>   1
Atom   1C    basis set group =>   2
Atom   2C    basis set group =>   2
Atom   3C    basis set group =>   2
Atom   4C    basis set group =>   2
Atom   5C    basis set group =>   2
Atom   6N    basis set group =>   3
Atom   7C    basis set group =>   2
Atom   8C    basis set group =>   2
Atom   9H    basis set group =>   4
Atom  10H    basis set group =>   4
Atom  11H    basis set group =>   4
Atom  12C    basis set group =>   2
Atom  13H    basis set group =>   4
Atom  14H    basis set group =>   4
Atom  15H    basis set group =>   4
Atom  16H    basis set group =>   4
Atom  17C    basis set group =>   2
Atom  18C    basis set group =>   2
Atom  19H    basis set group =>   4
Atom  20C    basis set group =>   2
Atom  21C    basis set group =>   2
Atom  22S    basis set group =>   5
Atom  23C    basis set group =>   2
Atom  24H    basis set group =>   4
Atom  25H    basis set group =>   4
Atom  26H    basis set group =>   4
Atom  27H    basis set group =>   4
Atom  28H    basis set group =>   4
Atom  29H    basis set group =>   4
Atom  30O    basis set group =>   6
Atom  31O    basis set group =>   6
Atom  32C    basis set group =>   2
Atom  33C    basis set group =>   2
Atom  34H    basis set group =>   4
Atom  35H    basis set group =>   4
Atom  36H    basis set group =>   4
Atom  37H    basis set group =>   4
Atom  38H    basis set group =>   4
---------------------------------
AUXILIARY/J BASIS SET INFORMATION
---------------------------------
There are 6 groups of distinct atoms

 Group   1 Type Ir  : 11s5p5d3f3g contracted to 8s5p5d2f3g pattern {41111111/11111/11111/21/111}
 Group   2 Type C   : 12s5p4d2f1g contracted to 6s4p3d1f1g pattern {711111/2111/211/2/1}
 Group   3 Type N   : 12s5p4d2f1g contracted to 6s4p3d1f1g pattern {711111/2111/211/2/1}
 Group   4 Type H   : 5s2p1d contracted to 3s1p1d pattern {311/2/1}
 Group   5 Type S   : 14s5p5d2f1g contracted to 8s4p3d1f1g pattern {71111111/2111/311/2/1}
 Group   6 Type O   : 12s5p4d2f1g contracted to 6s4p3d1f1g pattern {711111/2111/211/2/1}

Atom   0Ir   basis set group =>   1
Atom   1C    basis set group =>   2
Atom   2C    basis set group =>   2
Atom   3C    basis set group =>   2
Atom   4C    basis set group =>   2
Atom   5C    basis set group =>   2
Atom   6N    basis set group =>   3
Atom   7C    basis set group =>   2
Atom   8C    basis set group =>   2
Atom   9H    basis set group =>   4
Atom  10H    basis set group =>   4
Atom  11H    basis set group =>   4
Atom  12C    basis set group =>   2
Atom  13H    basis set group =>   4
Atom  14H    basis set group =>   4
Atom  15H    basis set group =>   4
Atom  16H    basis set group =>   4
Atom  17C    basis set group =>   2
Atom  18C    basis set group =>   2
Atom  19H    basis set group =>   4
Atom  20C    basis set group =>   2
Atom  21C    basis set group =>   2
Atom  22S    basis set group =>   5
Atom  23C    basis set group =>   2
Atom  24H    basis set group =>   4
Atom  25H    basis set group =>   4
Atom  26H    basis set group =>   4
Atom  27H    basis set group =>   4
Atom  28H    basis set group =>   4
Atom  29H    basis set group =>   4
Atom  30O    basis set group =>   6
Atom  31O    basis set group =>   6
Atom  32C    basis set group =>   2
Atom  33C    basis set group =>   2
Atom  34H    basis set group =>   4
Atom  35H    basis set group =>   4
Atom  36H    basis set group =>   4
Atom  37H    basis set group =>   4
Atom  38H    basis set group =>   4
-------------------------
ECP PARAMETER INFORMATION
-------------------------

 Group 1, Type Ir ECP Def2-ECP (replacing 60 core electrons, lmax=3)

Atom   0Ir   ECP group =>   1

------------------------------------------------------------------------------
                           ORCA GTO INTEGRAL CALCULATION
                           -- RI-GTO INTEGRALS CHOSEN --
------------------------------------------------------------------------------
------------------------------------------------------------------------------
                   ___                                                        
                  /   \      - P O W E R E D   B Y -                         
                 /     \                                                     
                 |  |  |   _    _      __       _____    __    __             
                 |  |  |  | |  | |    /  \     |  _  \  |  |  /  |          
                  \  \/   | |  | |   /    \    | | | |  |  | /  /          
                 / \  \   | |__| |  /  /\  \   | |_| |  |  |/  /          
                |  |  |   |  __  | /  /__\  \  |    /   |      \           
                |  |  |   | |  | | |   __   |  |    \   |  |\   \          
                \     /   | |  | | |  |  |  |  | |\  \  |  | \   \       
                 \___/    |_|  |_| |__|  |__|  |_| \__\ |__|  \__/        
                                                                              
                      - O R C A' S   B I G   F R I E N D -                    
                                      &                                       
                       - I N T E G R A L  F E E D E R -                       
                                                                              
 v1 FN, 2020, v2 2021                                                         
------------------------------------------------------------------------------


Reading SHARK input file 3_5_orca.SHARKINP.tmp ... ok
----------------------
SHARK INTEGRAL PACKAGE
----------------------

Number of atoms                             ...     39
Number of basis functions                   ...    358
Number of shells                            ...    184
Maximum angular momentum                    ...      3
Integral batch strategy                     ... SHARK/LIBINT Hybrid
RI-J (if used) integral strategy            ... SPLIT-RIJ (Revised 2003 algorithm where possible)
Printlevel                                  ...      1
Contraction scheme used                     ... SEGMENTED contraction
Coulomb Range Separation                    ... NOT USED
Exchange Range Separation                   ... NOT USED
Finite Nucleus Model                        ... NOT USED
Auxiliary Coulomb fitting basis             ... AVAILABLE
   # of basis functions in Aux-J            ...   1231
   # of shells in Aux-J                     ...    405
   Maximum angular momentum in Aux-J        ...      4
Auxiliary J/K fitting basis                 ... NOT available
Auxiliary Correlation fitting basis         ... NOT available
Auxiliary 'external' fitting basis          ... NOT available
Integral threshold                          ...     2.500000e-11
Primitive cut-off                           ...     2.500000e-12
Primitive pair pre-selection threshold      ...     2.500000e-12

Calculating pre-screening integrals         ... done (  0.1 sec) Dimension = 184
Organizing shell pair data                  ... done (  0.1 sec)
Shell pair information
Total number of shell pairs                 ...     17020
Shell pairs after pre-screening             ...     12629
Total number of primitive shell pairs       ...     60705
Primitive shell pairs kept                  ...     28238
          la=0 lb=0:   4827 shell pairs
          la=1 lb=0:   4159 shell pairs
          la=1 lb=1:    848 shell pairs
          la=2 lb=0:   1690 shell pairs
          la=2 lb=1:    765 shell pairs
          la=2 lb=2:    170 shell pairs
          la=3 lb=0:    108 shell pairs
          la=3 lb=1:     41 shell pairs
          la=3 lb=2:     20 shell pairs
          la=3 lb=3:      1 shell pairs

Calculating one electron integrals          ... done (  0.1 sec)
Calculating ECP integrals                   ... done (  1.0 sec)
Calculating RI/J V-Matrix + Cholesky decomp.... done (  0.1 sec)
Calculating Nuclear repulsion               ... done (  0.0 sec) ENN=   1985.460992363997 Eh

SHARK setup successfully completed in   1.7 seconds

Maximum memory used throughout the entire GTOINT-calculation: 87.7 MB
-------------------------------------------------------------------------------
                                 ORCA SCF
-------------------------------------------------------------------------------

------------
SCF SETTINGS
------------
Hamiltonian:
 Density Functional     Method          .... DFT(GTOs)
 Exchange Functional    Exchange        .... PBE
   PBE kappa parameter   XKappa         ....  1.024500
   PBE mue parameter    XMuePBE         ....  0.123457
 Correlation Functional Correlation     .... PBE
   PBE beta parameter  CBetaPBE         ....  0.030000
 LDA part of GGA corr.  LDAOpt          .... PW91-LDA
 Gradients option       PostSCFGGA      .... off
 Hybrid DFT is turned on
   Fraction HF Exchange ScalHFX         ....  0.420000
   Scaling of DF-GGA-X  ScalDFX         ....  0.580000
   Scaling of DF-GGA-C  ScalDFC         ....  1.000000
   Scaling of DF-LDA-C  ScalLDAC        ....  1.000000
   Perturbative correction              ....  0.000000
   Density functional embedding theory  .... OFF
 RI-approximation to the Coulomb term is turned on
   Number of AuxJ basis functions       .... 1231
   RIJ-ON(X) (HFX calculated with O(N)) .... on
   Number of AuxJ basis functions       .... 1231
   RIJ-COSX (HFX calculated with COS-X)).... on


General Settings:
 Integral files         IntName         .... 3_5_orca
 Hartree-Fock type      HFTyp           .... RHF
 Total Charge           Charge          ....    1
 Multiplicity           Mult            ....    1
 Number of Electrons    NEL             ....  164
 Basis Dimension        Dim             ....  358
 Nuclear Repulsion      ENuc            ....   1985.4609923640 Eh

Convergence Acceleration:
 DIIS                   CNVDIIS         .... on
   Start iteration      DIISMaxIt       ....    12
   Startup error        DIISStart       ....  0.200000
   # of expansion vecs  DIISMaxEq       ....     5
   Bias factor          DIISBfac        ....   1.050
   Max. coefficient     DIISMaxC        ....  10.000
 Trust-Rad. Augm. Hess. CNVTRAH         .... auto
   Auto Start mean grad. ratio tolernc. ....  1.125000
   Auto Start start iteration           ....    20
   Auto Start num. interpolation iter.  ....    10
   Max. Number of Micro iterations      ....    16
   Max. Number of Macro iterations      .... Maxiter - #DIIS iter
   Number of Davidson start vectors     ....     2
   Converg. threshold I  (grad. norm)   ....   1.000e-05
   Converg. threshold II (energy diff.) ....   1.000e-08
   Grad. Scal. Fac. for Micro threshold ....   0.100
   Minimum threshold for Micro iter.    ....   0.010
   NR start threshold (gradient norm)   ....   0.001
   Initial trust radius                 ....   0.400
   Minimum AH scaling param. (alpha)    ....   1.000
   Maximum AH scaling param. (alpha)    .... 1000.000
   Orbital update algorithm             .... Taylor
   White noise on init. David. guess    .... on
   Maximum white noise                  ....   0.010
   Quad. conv. algorithm                .... NR
   COSX micro iterations for RIJONX calc.... off
 SOSCF                  CNVSOSCF        .... off
 Level Shifting         CNVShift        .... on
   Level shift para.    LevelShift      ....    0.2500
   Turn off err/grad.   ShiftErr        ....    0.0010
 Zerner damping         CNVZerner       .... off
 Static damping         CNVDamp         .... on
   Fraction old density DampFac         ....    0.7000
   Max. Damping (<1)    DampMax         ....    0.9800
   Min. Damping (>=0)   DampMin         ....    0.0000
   Turn off err/grad.   DampErr         ....    0.1000
 Fernandez-Rico         CNVRico         .... off

SCF Procedure:
 Maximum # iterations   MaxIter         ....   250
 SCF integral mode      SCFMode         .... Direct
   Integral package                     .... SHARK and LIBINT hybrid scheme
 Reset frequency        DirectResetFreq ....    20
 Integral Threshold     Thresh          ....  2.500e-11 Eh
 Primitive CutOff       TCut            ....  2.500e-12 Eh

Convergence Tolerance:
 Convergence Check Mode ConvCheckMode   .... Total+1el-Energy
 Convergence forced     ConvForced      .... 0
 Energy Change          TolE            ....  1.000e-08 Eh
 1-El. energy change                    ....  1.000e-05 Eh
 DIIS Error             TolErr          ....  5.000e-07


Diagonalization of the overlap matrix:
Smallest eigenvalue                        ... 8.874e-04
Time for diagonalization                   ...    0.022 sec
Threshold for overlap eigenvalues          ... 1.000e-08
Number of eigenvalues below threshold      ... 0
Time for construction of square roots      ...    0.010 sec
Total time needed                          ...    0.032 sec

--------------------
INITIAL GUESS: HCORE
--------------------
                      -----------------
                      INTIAL GUESS DONE 
                      -----------------
-------------------
DFT GRID GENERATION
-------------------

General Integration Accuracy     IntAcc      ... 4.159
Radial Grid Type                 RadialGrid  ... OptM3 with GC (2021)
Angular Grid (max. ang.)         AngularGrid ... 3 (Lebedev-194)
Angular grid pruning method      GridPruning ... 4 (adaptive)
Weight generation scheme         WeightScheme... Becke
Basis function cutoff            BFCut       ... 1.0000e-11
Integration weight cutoff        WCut        ... 1.0000e-14
Angular grids for H and He will be reduced by one unit
Partially contracted basis set               ... off
Rotationally invariant grid construction     ... off

Total number of grid points                  ...    93568
Total number of batches                      ...     1483
Average number of points per batch           ...       63
Average number of grid points per atom       ...     2399
Time for grid setup =    1.981 sec

--------------------
COSX GRID GENERATION
--------------------

GRIDX 1
-------
General Integration Accuracy     IntAcc      ... 3.816
Radial Grid Type                 RadialGrid  ... OptM3 with GC (2021)
Angular Grid (max. ang.)         AngularGrid ... 1 (Lebedev-50)
Angular grid pruning method      GridPruning ... 4 (adaptive)
Weight generation scheme         WeightScheme... Becke
Basis function cutoff            BFCut       ... 1.0000e-11
Integration weight cutoff        WCut        ... 1.0000e-14
Angular grids for H and He will be reduced by one unit
Partially contracted basis set               ... on
Rotationally invariant grid construction     ... off

Total number of grid points                  ...    23266
Total number of batches                      ...      382
Average number of points per batch           ...       60
Average number of grid points per atom       ...      597
UseSFitting                                  ... on

GRIDX 2
-------
General Integration Accuracy     IntAcc      ... 4.020
Radial Grid Type                 RadialGrid  ... OptM3 with GC (2021)
Angular Grid (max. ang.)         AngularGrid ... 2 (Lebedev-110)
Angular grid pruning method      GridPruning ... 4 (adaptive)
Weight generation scheme         WeightScheme... Becke
Basis function cutoff            BFCut       ... 1.0000e-11
Integration weight cutoff        WCut        ... 1.0000e-14
Angular grids for H and He will be reduced by one unit
Partially contracted basis set               ... on
Rotationally invariant grid construction     ... off

Total number of grid points                  ...    50529
Total number of batches                      ...      808
Average number of points per batch           ...       62
Average number of grid points per atom       ...     1296
UseSFitting                                  ... on

GRIDX 3
-------
General Integration Accuracy     IntAcc      ... 4.338
Radial Grid Type                 RadialGrid  ... OptM3 with GC (2021)
Angular Grid (max. ang.)         AngularGrid ... 3 (Lebedev-194)
Angular grid pruning method      GridPruning ... 4 (adaptive)
Weight generation scheme         WeightScheme... Becke
Basis function cutoff            BFCut       ... 1.0000e-11
Integration weight cutoff        WCut        ... 1.0000e-14
Angular grids for H and He will be reduced by one unit
Partially contracted basis set               ... on
Rotationally invariant grid construction     ... off

Total number of grid points                  ...   109309
Total number of batches                      ...     1728
Average number of points per batch           ...       63
Average number of grid points per atom       ...     2803
UseSFitting                                  ... on

Time for X-Grid setup             =    5.622 sec

--------------
SCF ITERATIONS
--------------
ITER       Energy         Delta-E        Max-DP      RMS-DP      [F,P]     Damp
               ***  Starting incremental Fock matrix formation  ***
  0   -875.4765312571   0.00000000000017.51931253  0.17249734  2.8504594 0.7000
  1  -1105.3623695326-229.88583827548318.48752262  0.19632523  1.3359773 0.7000
  2  -1164.3627069948 -59.000337462164 5.61733356  0.08057153  0.9096513 0.7000
  3  -1195.9165447070 -31.553837712207 3.67064796  0.05309669  0.6564199 0.7000
  4  -1214.8978191551 -18.981274448136 4.12130387  0.05138970  0.4357543 0.7000
  5  -1226.7223740946 -11.824554939512 3.08185029  0.03749126  0.3271289 0.7000
  6  -1238.0840283763 -11.361654281704 3.24099512  0.03613078  0.2415446 0.7000
  7  -1244.4846351373  -6.400606760953 2.83759696  0.03247306  0.2686822 0.7000
  8  -1249.5845551164  -5.099919979141 3.26997794  0.03321395  0.2642935 0.7000
  9  -1250.9500727482  -1.365517631813 2.96879652  0.03078979  0.3395814 0.7000
 10  -1255.2676285232  -4.317555774986 3.31589916  0.03321662  0.2875444 0.7000
 11  -1256.5105019015  -1.242873378292 3.07201238  0.03201598  0.3457672 0.7000
                               ***Turning on DIIS***
 12  -1258.1339150124  -1.623413110887 3.10332534  0.03132162  0.2895219 0.7000
 13  -1256.9818974929   1.152017519461 2.75674042  0.02819734  0.3814678 0.7000
 14  -1264.3943071109  -7.412409617992 2.08099073  0.02028295  0.3250023 0.7000
 15  -1272.2179884450  -7.823681334054 1.48458989  0.01429007  0.2368200 0.7000
 16  -1277.4710046220  -5.253016177033 1.05534700  0.01005956  0.1673783 0.7000
 17  -1280.9674532261  -3.496448604086 0.75524034  0.00710830  0.1154054 0.7000
 18  -1283.3407192056  -2.373265979560 1.76909755  0.01666052  0.0892488 0.0000
 19  -1288.4149782951  -5.074259089427 0.04648609  0.00061236  0.0423460 0.0000
               *** Restarting incremental Fock matrix formation ***
                                   *** Resetting DIIS ***
 20  -1288.4288775177  -0.013899222591 0.03776061  0.00070385  0.0209544 0.0000
 21  -1288.4333138567  -0.004436339053 0.01700169  0.00021877  0.0153384 0.0000
 22  -1288.4359386835  -0.002624826770 0.00771493  0.00009074  0.0039416 0.0000
 23  -1288.4362227029  -0.000284019406 0.00542955  0.00005679  0.0031618 0.0000
 24  -1288.4363411612  -0.000118458335 0.00370747  0.00003499  0.0013548 0.0000
 25  -1288.4363877463  -0.000046585069 0.00234341  0.00002422  0.0010842 0.0000
 26  -1288.4364107617  -0.000023015390 0.00476326  0.00004203  0.0008120 0.0000
               *** Restarting incremental Fock matrix formation ***
                                   *** Resetting DIIS ***
 27  -1288.4374711692  -0.001060407534 0.00358353  0.00007477  0.0006409 0.0000
 28  -1288.4374839210  -0.000012751821 0.00230671  0.00001960  0.0009118 0.0000
 29  -1288.4374851567  -0.000001235665 0.00133876  0.00001120  0.0009086 0.0000
 30  -1288.4374900207  -0.000004864000 0.00041072  0.00000332  0.0001759 0.0000
 31  -1288.4374903175  -0.000000296746 0.00029210  0.00000215  0.0001135 0.0000
 32  -1288.4374904555  -0.000000138085 0.00013287  0.00000114  0.0000467 0.0000
 33  -1288.4374904902  -0.000000034662 0.00014963  0.00000112  0.0000294 0.0000
 34  -1288.4374905179  -0.000000027703 0.00006052  0.00000046  0.0000115 0.0000
 35  -1288.4374905216  -0.000000003703 0.00002098  0.00000015  0.0000047 0.0000
 36  -1288.4374905160   0.000000005582 0.00001499  0.00000010  0.0000060 0.0000
 37  -1288.4374905208  -0.000000004732 0.00000297  0.00000003  0.0000017 0.0000
 38  -1288.4374905202   0.000000000548 0.00000141  0.00000002  0.0000019 0.0000
                            ***DIIS convergence achieved***

               *****************************************************
               *                     SUCCESS                       *
               *           SCF CONVERGED AFTER  39 CYCLES          *
               *****************************************************

Old exchange energy                            =    -59.647068285 Eh
New exchange energy                            =    -59.647034734 Eh
Exchange energy change after final integration =      0.000033551 Eh
Total energy after final integration           =  -1288.437456956 Eh
Final COS-X integration done in                =    71.307 sec

----------------
TOTAL SCF ENERGY
----------------

Total Energy       :        -1288.43745696 Eh          -35060.16563 eV

Components:
Nuclear Repulsion  :         1985.46099236 Eh           54027.14029 eV
Electronic Energy  :        -3273.89844932 Eh          -89087.30592 eV
One Electron Energy:        -5727.15418702 Eh         -155843.78837 eV
Two Electron Energy:         2453.25573770 Eh           66756.48246 eV
Max COSX asymmetry :            0.00001682 Eh               0.00046 eV

Virial components:
Potential Energy   :        -2501.51837687 Eh          -68069.77564 eV
Kinetic Energy     :         1213.08091992 Eh           33009.61001 eV
Virial Ratio       :            2.06211996


DFT components:
N(Alpha)           :       81.999492926584 electrons
N(Beta)            :       81.999492926584 electrons
N(Total)           :      163.998985853168 electrons
E(X)               :      -79.573525758538 Eh       
E(C)               :       -7.436825505032 Eh       
E(XC)              :      -87.010351263570 Eh       
DFET-embed. en.    :        0.000000000000 Eh       

---------------
SCF CONVERGENCE
---------------

  Last Energy change         ...    1.2637e-08  Tolerance :   1.0000e-08
  Last MAX-Density change    ...    0.0000e+00  Tolerance :   1.0000e-07
  Last RMS-Density change    ...    0.0000e+00  Tolerance :   5.0000e-09
  Last DIIS Error            ...    5.2397e-07  Tolerance :   5.0000e-07

             **** THE GBW FILE WAS UPDATED (3_5_orca.gbw) ****
             **** DENSITY 3_5_orca.scfp WAS UPDATED ****
             **** ENERGY FILE WAS UPDATED (3_5_orca.en.tmp) ****
             **** THE GBW FILE WAS UPDATED (3_5_orca.gbw) ****
             **** DENSITY 3_5_orca.scfp WAS UPDATED ****
----------------
ORBITAL ENERGIES
----------------

  NO   OCC          E(Eh)            E(eV) 
   0   2.0000     -89.739479     -2441.9354 
   1   2.0000     -19.633073      -534.2431 
   2   2.0000     -19.606442      -533.5184 
   3   2.0000     -14.826705      -403.4551 
   4   2.0000     -10.688495      -290.8487 
   5   2.0000     -10.655744      -289.9575 
   6   2.0000     -10.638122      -289.4780 
   7   2.0000     -10.637686      -289.4661 
   8   2.0000     -10.637203      -289.4530 
   9   2.0000     -10.637022      -289.4481 
  10   2.0000     -10.630160      -289.2614 
  11   2.0000     -10.611572      -288.7556 
  12   2.0000     -10.603248      -288.5291 
  13   2.0000     -10.597862      -288.3825 
  14   2.0000     -10.567496      -287.5562 
  15   2.0000     -10.562376      -287.4169 
  16   2.0000     -10.549409      -287.0640 
  17   2.0000     -10.546788      -286.9927 
  18   2.0000     -10.541870      -286.8589 
  19   2.0000      -8.379313      -228.0127 
  20   2.0000      -6.269395      -170.5989 
  21   2.0000      -6.265967      -170.5056 
  22   2.0000      -6.263794      -170.4465 
  23   2.0000      -4.033007      -109.7437 
  24   2.0000      -2.351973       -64.0004 
  25   2.0000      -2.315905       -63.0190 
  26   2.0000      -2.314667       -62.9853 
  27   2.0000      -1.331027       -36.2191 
  28   2.0000      -1.208680       -32.8899 
  29   2.0000      -1.191538       -32.4234 
  30   2.0000      -1.177650       -32.0455 
  31   2.0000      -1.118122       -30.4257 
  32   2.0000      -1.010124       -27.4869 
  33   2.0000      -0.986765       -26.8512 
  34   2.0000      -0.981446       -26.7065 
  35   2.0000      -0.957144       -26.0452 
  36   2.0000      -0.948440       -25.8084 
  37   2.0000      -0.936416       -25.4812 
  38   2.0000      -0.889250       -24.1977 
  39   2.0000      -0.862042       -23.4573 
  40   2.0000      -0.791267       -21.5315 
  41   2.0000      -0.788657       -21.4605 
  42   2.0000      -0.787287       -21.4232 
  43   2.0000      -0.776587       -21.1320 
  44   2.0000      -0.766259       -20.8510 
  45   2.0000      -0.745971       -20.2989 
  46   2.0000      -0.729451       -19.8494 
  47   2.0000      -0.714308       -19.4373 
  48   2.0000      -0.681517       -18.5450 
  49   2.0000      -0.667868       -18.1736 
  50   2.0000      -0.667102       -18.1528 
  51   2.0000      -0.654161       -17.8006 
  52   2.0000      -0.647142       -17.6096 
  53   2.0000      -0.643316       -17.5055 
  54   2.0000      -0.641779       -17.4637 
  55   2.0000      -0.631503       -17.1841 
  56   2.0000      -0.619151       -16.8480 
  57   2.0000      -0.612247       -16.6601 
  58   2.0000      -0.610067       -16.6008 
  59   2.0000      -0.606643       -16.5076 
  60   2.0000      -0.587459       -15.9856 
  61   2.0000      -0.580640       -15.8000 
  62   2.0000      -0.566569       -15.4171 
  63   2.0000      -0.564321       -15.3560 
  64   2.0000      -0.558731       -15.2038 
  65   2.0000      -0.555223       -15.1084 
  66   2.0000      -0.552298       -15.0288 
  67   2.0000      -0.540551       -14.7092 
  68   2.0000      -0.533816       -14.5259 
  69   2.0000      -0.524337       -14.2679 
  70   2.0000      -0.518784       -14.1168 
  71   2.0000      -0.513694       -13.9783 
  72   2.0000      -0.507452       -13.8085 
  73   2.0000      -0.502744       -13.6804 
  74   2.0000      -0.485827       -13.2200 
  75   2.0000      -0.476471       -12.9654 
  76   2.0000      -0.474034       -12.8991 
  77   2.0000      -0.455727       -12.4010 
  78   2.0000      -0.446446       -12.1484 
  79   2.0000      -0.425779       -11.5860 
  80   2.0000      -0.412157       -11.2154 
  81   2.0000      -0.396753       -10.7962 
  82   0.0000      -0.207542        -5.6475 
  83   0.0000      -0.168368        -4.5815 
  84   0.0000      -0.155666        -4.2359 
  85   0.0000      -0.082823        -2.2537 
  86   0.0000      -0.078662        -2.1405 
  87   0.0000      -0.073334        -1.9955 
  88   0.0000      -0.063247        -1.7210 
  89   0.0000      -0.050533        -1.3751 
  90   0.0000      -0.043907        -1.1948 
  91   0.0000      -0.018453        -0.5021 
  92   0.0000      -0.002306        -0.0627 
  93   0.0000       0.000928         0.0253 
  94   0.0000       0.005316         0.1447 
  95   0.0000       0.021921         0.5965 
  96   0.0000       0.030651         0.8341 
  97   0.0000       0.040148         1.0925 
  98   0.0000       0.060516         1.6467 
  99   0.0000       0.062103         1.6899 
 100   0.0000       0.069846         1.9006 
 101   0.0000       0.073179         1.9913 
 102   0.0000       0.078547         2.1374 
 103   0.0000       0.079567         2.1651 
 104   0.0000       0.085880         2.3369 
 105   0.0000       0.091697         2.4952 
 106   0.0000       0.092283         2.5111 
 107   0.0000       0.095208         2.5907 
 108   0.0000       0.106981         2.9111 
 109   0.0000       0.110218         2.9992 
 110   0.0000       0.117673         3.2020 
 111   0.0000       0.119592         3.2543 
 112   0.0000       0.122862         3.3433 
 113   0.0000       0.130537         3.5521 
 114   0.0000       0.132002         3.5920 
 115   0.0000       0.136253         3.7076 
 116   0.0000       0.145203         3.9512 
 117   0.0000       0.150949         4.1075 
 118   0.0000       0.161492         4.3944 
 119   0.0000       0.165542         4.5046 
 120   0.0000       0.170552         4.6409 
 121   0.0000       0.186420         5.0727 
 122   0.0000       0.188153         5.1199 
 123   0.0000       0.197614         5.3774 
 124   0.0000       0.206065         5.6073 
 125   0.0000       0.231243         6.2924 
 126   0.0000       0.248524         6.7627 
 127   0.0000       0.265574         7.2266 
 128   0.0000       0.293456         7.9853 
 129   0.0000       0.305170         8.3041 
 130   0.0000       0.307378         8.3642 
 131   0.0000       0.321907         8.7595 
 132   0.0000       0.331490         9.0203 
 133   0.0000       0.336193         9.1483 
 134   0.0000       0.354640         9.6503 
 135   0.0000       0.357009         9.7147 
 136   0.0000       0.368617        10.0306 
 137   0.0000       0.380725        10.3601 
 138   0.0000       0.392035        10.6678 
 139   0.0000       0.396543        10.7905 
 140   0.0000       0.404119        10.9966 
 141   0.0000       0.416759        11.3406 
 142   0.0000       0.429873        11.6974 
 143   0.0000       0.439932        11.9712 
 144   0.0000       0.446614        12.1530 
 145   0.0000       0.450547        12.2600 
 146   0.0000       0.461128        12.5479 
 147   0.0000       0.465029        12.6541 
 148   0.0000       0.470636        12.8067 
 149   0.0000       0.483893        13.1674 
 150   0.0000       0.494990        13.4694 
 151   0.0000       0.498235        13.5577 
 152   0.0000       0.504405        13.7256 
 153   0.0000       0.513519        13.9736 
 154   0.0000       0.521748        14.1975 
 155   0.0000       0.524835        14.2815 
 156   0.0000       0.527254        14.3473 
 157   0.0000       0.531659        14.4672 
 158   0.0000       0.540175        14.6989 
 159   0.0000       0.544435        14.8148 
 160   0.0000       0.560371        15.2485 
 161   0.0000       0.570685        15.5291 
 162   0.0000       0.576679        15.6922 
 163   0.0000       0.584458        15.9039 
 164   0.0000       0.588180        16.0052 
 165   0.0000       0.594400        16.1744 
 166   0.0000       0.602609        16.3978 
 167   0.0000       0.608689        16.5633 
 168   0.0000       0.620970        16.8974 
 169   0.0000       0.636051        17.3078 
 170   0.0000       0.644058        17.5257 
 171   0.0000       0.653883        17.7931 
 172   0.0000       0.670622        18.2485 
 173   0.0000       0.679747        18.4969 
 174   0.0000       0.688065        18.7232 
 175   0.0000       0.705567        19.1995 
 176   0.0000       0.707500        19.2521 
 177   0.0000       0.719285        19.5727 
 178   0.0000       0.721496        19.6329 
 179   0.0000       0.725853        19.7515 
 180   0.0000       0.727846        19.8057 
 181   0.0000       0.755132        20.5482 
 182   0.0000       0.767203        20.8766 
 183   0.0000       0.772946        21.0329 
 184   0.0000       0.778783        21.1918 
 185   0.0000       0.785747        21.3813 
 186   0.0000       0.798912        21.7395 
 187   0.0000       0.811315        22.0770 
 188   0.0000       0.822786        22.3891 
 189   0.0000       0.836108        22.7516 
 190   0.0000       0.850888        23.1539 
 191   0.0000       0.860054        23.4033 
 192   0.0000       0.866133        23.5687 
 193   0.0000       0.870128        23.6774 
 194   0.0000       0.884302        24.0631 
 195   0.0000       0.895521        24.3684 
 196   0.0000       0.899283        24.4707 
 197   0.0000       0.903681        24.5904 
 198   0.0000       0.911523        24.8038 
 199   0.0000       0.920305        25.0428 
 200   0.0000       0.927524        25.2392 
 201   0.0000       0.934037        25.4164 
 202   0.0000       0.940352        25.5883 
 203   0.0000       0.942951        25.6590 
 204   0.0000       0.949298        25.8317 
 205   0.0000       0.957673        26.0596 
 206   0.0000       0.963519        26.2187 
 207   0.0000       0.970253        26.4019 
 208   0.0000       0.976147        26.5623 
 209   0.0000       0.983826        26.7713 
 210   0.0000       0.990208        26.9449 
 211   0.0000       1.002403        27.2768 
 212   0.0000       1.009794        27.4779 
 213   0.0000       1.015323        27.6283 
 214   0.0000       1.028788        27.9948 
 215   0.0000       1.050944        28.5977 
 216   0.0000       1.053962        28.6798 
 217   0.0000       1.071443        29.1554 
 218   0.0000       1.087119        29.5820 
 219   0.0000       1.091597        29.7039 
 220   0.0000       1.101085        29.9620 
 221   0.0000       1.109389        30.1880 
 222   0.0000       1.116909        30.3926 
 223   0.0000       1.148292        31.2466 
 224   0.0000       1.152888        31.3717 
 225   0.0000       1.162797        31.6413 
 226   0.0000       1.175473        31.9862 
 227   0.0000       1.182516        32.1779 
 228   0.0000       1.196517        32.5589 
 229   0.0000       1.203530        32.7497 
 230   0.0000       1.215188        33.0670 
 231   0.0000       1.229241        33.4493 
 232   0.0000       1.249798        34.0087 
 233   0.0000       1.251861        34.0649 
 234   0.0000       1.263710        34.3873 
 235   0.0000       1.282821        34.9073 
 236   0.0000       1.304411        35.4948 
 237   0.0000       1.310834        35.6696 
 238   0.0000       1.335350        36.3367 
 239   0.0000       1.346583        36.6424 
 240   0.0000       1.350212        36.7411 
 241   0.0000       1.353421        36.8285 
 242   0.0000       1.367999        37.2252 
 243   0.0000       1.384641        37.6780 
 244   0.0000       1.404471        38.2176 
 245   0.0000       1.419080        38.6151 
 246   0.0000       1.429257        38.8921 
 247   0.0000       1.432710        38.9860 
 248   0.0000       1.448986        39.4289 
 249   0.0000       1.488493        40.5040 
 250   0.0000       1.506411        40.9915 
 251   0.0000       1.542234        41.9663 
 252   0.0000       1.550483        42.1908 
 253   0.0000       1.624099        44.1940 
 254   0.0000       1.628441        44.3121 
 255   0.0000       1.646445        44.8020 
 256   0.0000       1.656675        45.0804 
 257   0.0000       1.661101        45.2009 
 258   0.0000       1.690969        46.0136 
 259   0.0000       1.693601        46.0852 
 260   0.0000       1.723020        46.8858 
 261   0.0000       1.738271        47.3008 
 262   0.0000       1.759447        47.8770 
 263   0.0000       1.767290        48.0904 
 264   0.0000       1.783519        48.5320 
 265   0.0000       1.786247        48.6063 
 266   0.0000       1.806068        49.1456 
 267   0.0000       1.819071        49.4994 
 268   0.0000       1.840812        50.0911 
 269   0.0000       1.854455        50.4623 
 270   0.0000       1.877282        51.0835 
 271   0.0000       1.885480        51.3065 
 272   0.0000       1.889496        51.4158 
 273   0.0000       1.898012        51.6475 
 274   0.0000       1.900655        51.7195 
 275   0.0000       1.914007        52.0828 
 276   0.0000       1.920880        52.2698 
 277   0.0000       1.942102        52.8473 
 278   0.0000       1.947181        52.9855 
 279   0.0000       1.959854        53.3303 
 280   0.0000       1.969512        53.5931 
 281   0.0000       1.979498        53.8649 
 282   0.0000       1.989896        54.1478 
 283   0.0000       2.015900        54.8554 
 284   0.0000       2.031263        55.2735 
 285   0.0000       2.035367        55.3851 
 286   0.0000       2.049035        55.7571 
 287   0.0000       2.065932        56.2169 
 288   0.0000       2.083492        56.6947 
 289   0.0000       2.098393        57.1002 
 290   0.0000       2.107374        57.3446 
 291   0.0000       2.115398        57.5629 
 292   0.0000       2.136923        58.1486 
 293   0.0000       2.150493        58.5179 
 294   0.0000       2.160643        58.7941 
 295   0.0000       2.180255        59.3277 
 296   0.0000       2.191971        59.6466 
 297   0.0000       2.207625        60.0725 
 298   0.0000       2.210472        60.1500 
 299   0.0000       2.220825        60.4317 
 300   0.0000       2.225591        60.5614 
 301   0.0000       2.238154        60.9033 
 302   0.0000       2.244798        61.0841 
 303   0.0000       2.264755        61.6271 
 304   0.0000       2.287568        62.2479 
 305   0.0000       2.305752        62.7427 
 306   0.0000       2.320370        63.1405 
 307   0.0000       2.368693        64.4554 
 308   0.0000       2.375301        64.6352 
 309   0.0000       2.384013        64.8723 
 310   0.0000       2.405475        65.4563 
 311   0.0000       2.423735        65.9532 
 312   0.0000       2.428380        66.0796 
 313   0.0000       2.440533        66.4103 
 314   0.0000       2.452315        66.7309 
 315   0.0000       2.492223        67.8168 
 316   0.0000       2.529974        68.8441 
 317   0.0000       2.538941        69.0881 
 318   0.0000       2.546383        69.2906 
 319   0.0000       2.557552        69.5945 
 320   0.0000       2.564347        69.7794 
 321   0.0000       2.584167        70.3188 
 322   0.0000       2.612992        71.1031 
 323   0.0000       2.627605        71.5008 
 324   0.0000       2.654136        72.2227 
 325   0.0000       2.681836        72.9765 
 326   0.0000       2.751105        74.8614 
 327   0.0000       2.775202        75.5171 
 328   0.0000       2.804954        76.3267 
 329   0.0000       2.817159        76.6588 
 330   0.0000       2.823380        76.8281 
 331   0.0000       2.849092        77.5277 
 332   0.0000       2.869071        78.0714 
 333   0.0000       2.932935        79.8092 
 334   0.0000       2.986126        81.2566 
 335   0.0000       2.994136        81.4746 
 336   0.0000       3.118849        84.8682 
 337   0.0000       3.178018        86.4783 
 338   0.0000      13.289888       361.6362 
 339   0.0000      13.414196       365.0188 
 340   0.0000      13.504664       367.4806 
 341   0.0000      13.528113       368.1187 
 342   0.0000      13.578982       369.5029 
 343   0.0000      13.758523       374.3884 
 344   0.0000      13.768176       374.6511 
 345   0.0000      13.821096       376.0912 
 346   0.0000      13.834536       376.4568 
 347   0.0000      13.931456       379.0942 
 348   0.0000      14.017519       381.4361 
 349   0.0000      14.032572       381.8457 
 350   0.0000      14.129124       384.4730 
 351   0.0000      14.145235       384.9114 
 352   0.0000      14.247802       387.7024 
 353   0.0000      19.266284       524.2622 
 354   0.0000      25.617233       697.0803 
 355   0.0000      25.670335       698.5253 
 356   0.0000      57.184626      1556.0728 
 357   0.0000     359.493308      9782.3102 

                    ********************************
                    * MULLIKEN POPULATION ANALYSIS *
                    ********************************

-----------------------
MULLIKEN ATOMIC CHARGES
-----------------------
   0 Ir:    0.608850
   1 C :   -0.315760
   2 C :   -0.171060
   3 C :   -0.225626
   4 C :   -0.170899
   5 C :   -0.244433
   6 N :   -0.460847
   7 C :   -0.137382
   8 C :   -0.626171
   9 H :    0.250358
  10 H :    0.220541
  11 H :    0.259113
  12 C :   -0.659167
  13 H :    0.260173
  14 H :    0.265217
  15 H :    0.226915
  16 H :    0.239104
  17 C :    0.051817
  18 C :   -0.217973
  19 H :    0.269364
  20 C :   -0.248454
  21 C :   -0.142392
  22 S :    0.290692
  23 C :   -0.430298
  24 H :    0.355149
  25 H :    0.265456
  26 H :    0.293487
  27 H :    0.289196
  28 H :    0.302820
  29 H :    0.300516
  30 O :   -0.485231
  31 O :   -0.489357
  32 C :    0.644984
  33 C :   -0.773154
  34 H :    0.274741
  35 H :    0.277847
  36 H :    0.262292
  37 H :    0.297500
  38 H :    0.292074
Sum of atomic charges:    1.0000000

--------------------------------
MULLIKEN REDUCED ORBITAL CHARGES
--------------------------------
  0 Irs       :     2.550869  s :     2.550869
      pz      :     2.086418  p :     6.253493
      px      :     2.096089
      py      :     2.070986
      dz2     :     1.825548  d :     7.540254
      dxz     :     1.606289
      dyz     :     1.229528
      dx2y2   :     1.611479
      dxy     :     1.267411
      f0      :     0.004886  f :     0.046534
      f+1     :     0.003621
      f-1     :     0.006613
      f+2     :     0.007699
      f-2     :     0.008197
      f+3     :     0.007532
      f-3     :     0.007985
  1 C s       :     3.342495  s :     3.342495
      pz      :     0.904577  p :     2.924417
      px      :     1.047580
      py      :     0.972260
      dz2     :     0.009968  d :     0.048849
      dxz     :     0.013456
      dyz     :     0.009056
      dx2y2   :     0.007503
      dxy     :     0.008866
  2 C s       :     3.311234  s :     3.311234
      pz      :     1.022486  p :     2.810851
      px      :     0.886698
      py      :     0.901666
      dz2     :     0.011816  d :     0.048976
      dxz     :     0.013570
      dyz     :     0.008895
      dx2y2   :     0.007100
      dxy     :     0.007595
  3 C s       :     3.322099  s :     3.322099
      pz      :     0.997220  p :     2.855407
      px      :     0.967300
      py      :     0.890887
      dz2     :     0.011352  d :     0.048121
      dxz     :     0.013196
      dyz     :     0.006823
      dx2y2   :     0.008337
      dxy     :     0.008414
  4 C s       :     3.301070  s :     3.301070
      pz      :     0.996229  p :     2.822641
      px      :     0.928980
      py      :     0.897432
      dz2     :     0.011247  d :     0.047188
      dxz     :     0.011383
      dyz     :     0.008022
      dx2y2   :     0.008063
      dxy     :     0.008473
  5 C s       :     3.322158  s :     3.322158
      pz      :     0.895393  p :     2.873244
      px      :     1.016657
      py      :     0.961194
      dz2     :     0.010683  d :     0.049031
      dxz     :     0.012682
      dyz     :     0.008908
      dx2y2   :     0.007582
      dxy     :     0.009176
  6 N s       :     3.609333  s :     3.609333
      pz      :     1.225225  p :     3.812406
      px      :     1.280987
      py      :     1.306195
      dz2     :     0.011434  d :     0.039108
      dxz     :     0.008871
      dyz     :     0.008673
      dx2y2   :     0.005934
      dxy     :     0.004195
  7 C s       :     3.259953  s :     3.259953
      pz      :     1.072273  p :     2.816644
      px      :     0.735619
      py      :     1.008752
      dz2     :     0.011103  d :     0.060786
      dxz     :     0.010365
      dyz     :     0.012179
      dx2y2   :     0.016683
      dxy     :     0.010456
  8 C s       :     3.389890  s :     3.389890
      pz      :     1.134382  p :     3.200476
      px      :     1.132871
      py      :     0.933224
      dz2     :     0.005669  d :     0.035805
      dxz     :     0.005834
      dyz     :     0.010501
      dx2y2   :     0.009390
      dxy     :     0.004410
  9 H s       :     0.749642  s :     0.749642
 10 H s       :     0.779459  s :     0.779459
 11 H s       :     0.740887  s :     0.740887
 12 C s       :     3.390684  s :     3.390684
      pz      :     1.057850  p :     3.232404
      px      :     1.085520
      py      :     1.089034
      dz2     :     0.006868  d :     0.036079
      dxz     :     0.007645
      dyz     :     0.007837
      dx2y2   :     0.009381
      dxy     :     0.004349
 13 H s       :     0.739827  s :     0.739827
 14 H s       :     0.734783  s :     0.734783
 15 H s       :     0.773085  s :     0.773085
 16 H s       :     0.760896  s :     0.760896
 17 C s       :     3.219360  s :     3.219360
      pz      :     0.860750  p :     2.664788
      px      :     0.987272
      py      :     0.816767
      dz2     :     0.015551  d :     0.064035
      dxz     :     0.022327
      dyz     :     0.012680
      dx2y2   :     0.006255
      dxy     :     0.007222
 18 C s       :     3.242414  s :     3.242414
      pz      :     0.916607  p :     2.929337
      px      :     0.846373
      py      :     1.166357
      dz2     :     0.014007  d :     0.046221
      dxz     :     0.011338
      dyz     :     0.006006
      dx2y2   :     0.008213
      dxy     :     0.006656
 19 H s       :     0.730636  s :     0.730636
 20 C s       :     3.271110  s :     3.271110
      pz      :     1.132974  p :     2.933432
      px      :     0.869086
      py      :     0.931372
      dz2     :     0.009103  d :     0.043912
      dxz     :     0.012465
      dyz     :     0.005791
      dx2y2   :     0.006625
      dxy     :     0.009929
 21 C s       :     3.220313  s :     3.220313
      pz      :     0.862700  p :     2.880786
      px      :     1.009419
      py      :     1.008667
      dz2     :     0.010541  d :     0.041292
      dxz     :     0.012606
      dyz     :     0.006318
      dx2y2   :     0.007780
      dxy     :     0.004047
 22 S s       :     5.797426  s :     5.797426
      pz      :     3.073980  p :     9.790235
      px      :     3.094011
      py      :     3.622244
      dz2     :     0.043573  d :     0.121647
      dxz     :     0.015741
      dyz     :     0.017773
      dx2y2   :     0.024516
      dxy     :     0.020044
 23 C s       :     3.348883  s :     3.348883
      pz      :     1.084062  p :     3.039248
      px      :     0.927122
      py      :     1.028064
      dz2     :     0.012046  d :     0.042168
      dxz     :     0.011426
      dyz     :     0.005643
      dx2y2   :     0.006787
      dxy     :     0.006265
 24 H s       :     0.644851  s :     0.644851
 25 H s       :     0.734544  s :     0.734544
 26 H s       :     0.706513  s :     0.706513
 27 H s       :     0.710804  s :     0.710804
 28 H s       :     0.697180  s :     0.697180
 29 H s       :     0.699484  s :     0.699484
 30 O s       :     3.816385  s :     3.816385
      pz      :     1.479685  p :     4.643105
      px      :     1.514980
      py      :     1.648440
      dz2     :     0.007249  d :     0.025741
      dxz     :     0.007044
      dyz     :     0.003005
      dx2y2   :     0.004137
      dxy     :     0.004306
 31 O s       :     3.808568  s :     3.808568
      pz      :     1.651704  p :     4.651893
      px      :     1.578324
      py      :     1.421865
      dz2     :     0.004279  d :     0.028896
      dxz     :     0.004792
      dyz     :     0.006387
      dx2y2   :     0.005968
      dxy     :     0.007470
 32 C s       :     2.959550  s :     2.959550
      pz      :     0.730014  p :     2.252102
      px      :     0.731010
      py      :     0.791078
      dz2     :     0.025547  d :     0.143364
      dxz     :     0.022438
      dyz     :     0.027765
      dx2y2   :     0.034154
      dxy     :     0.033459
 33 C s       :     3.432127  s :     3.432127
      pz      :     1.155122  p :     3.308181
      px      :     1.189359
      py      :     0.963700
      dz2     :     0.002184  d :     0.032846
      dxz     :     0.009322
      dyz     :     0.009025
      dx2y2   :     0.010178
      dxy     :     0.002137
 34 H s       :     0.725259  s :     0.725259
 35 H s       :     0.722153  s :     0.722153
 36 H s       :     0.737708  s :     0.737708
 37 H s       :     0.702500  s :     0.702500
 38 H s       :     0.707926  s :     0.707926


                     *******************************
                     * LOEWDIN POPULATION ANALYSIS *
                     *******************************

----------------------
LOEWDIN ATOMIC CHARGES
----------------------
   0 Ir:   -0.139776
   1 C :   -0.056432
   2 C :   -0.022949
   3 C :   -0.032787
   4 C :   -0.041566
   5 C :   -0.060473
   6 N :   -0.046229
   7 C :   -0.062076
   8 C :   -0.350249
   9 H :    0.148368
  10 H :    0.133536
  11 H :    0.146168
  12 C :   -0.358488
  13 H :    0.147494
  14 H :    0.153649
  15 H :    0.133105
  16 H :    0.137016
  17 C :    0.037575
  18 C :   -0.234104
  19 H :    0.154639
  20 C :   -0.131649
  21 C :   -0.174244
  22 S :    0.447468
  23 C :   -0.248879
  24 H :    0.198181
  25 H :    0.157097
  26 H :    0.166699
  27 H :    0.185136
  28 H :    0.190843
  29 H :    0.190930
  30 O :   -0.244530
  31 O :   -0.169771
  32 C :    0.155060
  33 C :   -0.379382
  34 H :    0.166605
  35 H :    0.172145
  36 H :    0.157674
  37 H :    0.187471
  38 H :    0.186730

-------------------------------
LOEWDIN REDUCED ORBITAL CHARGES
-------------------------------
  0 Irs       :     2.479549  s :     2.479549
      pz      :     2.225666  p :     6.700288
      px      :     2.212944
      py      :     2.261678
      dz2     :     1.861679  d :     7.883186
      dxz     :     1.684707
      dyz     :     1.323991
      dx2y2   :     1.659272
      dxy     :     1.353536
      f0      :     0.008597  f :     0.076753
      f+1     :     0.005920
      f-1     :     0.010129
      f+2     :     0.013240
      f-2     :     0.014248
      f+3     :     0.012060
      f-3     :     0.012559
  1 C s       :     2.874303  s :     2.874303
      pz      :     1.041366  p :     3.079384
      px      :     1.086618
      py      :     0.951400
      dz2     :     0.023504  d :     0.102745
      dxz     :     0.031752
      dyz     :     0.018943
      dx2y2   :     0.012602
      dxy     :     0.015944
  2 C s       :     2.880014  s :     2.880014
      pz      :     1.078119  p :     3.040397
      px      :     1.029686
      py      :     0.932592
      dz2     :     0.023444  d :     0.102538
      dxz     :     0.031909
      dyz     :     0.015209
      dx2y2   :     0.015890
      dxy     :     0.016086
  3 C s       :     2.880523  s :     2.880523
      pz      :     1.074340  p :     3.051081
      px      :     1.048805
      py      :     0.927936
      dz2     :     0.025883  d :     0.101184
      dxz     :     0.027982
      dyz     :     0.013794
      dx2y2   :     0.016321
      dxy     :     0.017203
  4 C s       :     2.879154  s :     2.879154
      pz      :     1.080563  p :     3.061784
      px      :     1.050061
      py      :     0.931160
      dz2     :     0.025128  d :     0.100628
      dxz     :     0.026394
      dyz     :     0.015163
      dx2y2   :     0.017186
      dxy     :     0.016757
  5 C s       :     2.871800  s :     2.871800
      pz      :     1.035311  p :     3.085362
      px      :     1.063759
      py      :     0.986292
      dz2     :     0.024947  d :     0.103311
      dxz     :     0.029682
      dyz     :     0.018884
      dx2y2   :     0.014278
      dxy     :     0.015519
  6 N s       :     3.127921  s :     3.127921
      pz      :     1.294622  p :     3.827062
      px      :     1.271120
      py      :     1.261320
      dz2     :     0.027953  d :     0.091246
      dxz     :     0.025736
      dyz     :     0.015983
      dx2y2   :     0.012204
      dxy     :     0.009371
  7 C s       :     2.869435  s :     2.869435
      pz      :     1.077002  p :     3.062285
      px      :     0.890486
      py      :     1.094797
      dz2     :     0.022931  d :     0.130356
      dxz     :     0.022799
      dyz     :     0.023407
      dx2y2   :     0.037867
      dxy     :     0.023353
  8 C s       :     2.957218  s :     2.957218
      pz      :     1.137692  p :     3.325608
      px      :     1.134592
      py      :     1.053324
      dz2     :     0.010093  d :     0.067423
      dxz     :     0.009349
      dyz     :     0.019892
      dx2y2   :     0.018573
      dxy     :     0.009515
  9 H s       :     0.851632  s :     0.851632
 10 H s       :     0.866464  s :     0.866464
 11 H s       :     0.853832  s :     0.853832
 12 C s       :     2.954939  s :     2.954939
      pz      :     1.111298  p :     3.335635
      px      :     1.111630
      py      :     1.112707
      dz2     :     0.012725  d :     0.067914
      dxz     :     0.015140
      dyz     :     0.014720
      dx2y2   :     0.016565
      dxy     :     0.008764
 13 H s       :     0.852506  s :     0.852506
 14 H s       :     0.846351  s :     0.846351
 15 H s       :     0.866895  s :     0.866895
 16 H s       :     0.862984  s :     0.862984
 17 C s       :     2.878208  s :     2.878208
      pz      :     1.026958  p :     2.941125
      px      :     1.072615
      py      :     0.841551
      dz2     :     0.036708  d :     0.143093
      dxz     :     0.054035
      dyz     :     0.025845
      dx2y2   :     0.011913
      dxy     :     0.014592
 18 C s       :     2.879066  s :     2.879066
      pz      :     1.012841  p :     3.245578
      px      :     1.098170
      py      :     1.134567
      dz2     :     0.034695  d :     0.109460
      dxz     :     0.029111
      dyz     :     0.011839
      dx2y2   :     0.020180
      dxy     :     0.013635
 19 H s       :     0.845361  s :     0.845361
 20 C s       :     2.889885  s :     2.889885
      pz      :     1.107883  p :     3.139711
      px      :     1.076831
      py      :     0.954997
      dz2     :     0.020416  d :     0.102053
      dxz     :     0.033712
      dyz     :     0.008970
      dx2y2   :     0.017194
      dxy     :     0.021761
 21 C s       :     2.892805  s :     2.892805
      pz      :     1.075971  p :     3.185691
      px      :     1.092526
      py      :     1.017195
      dz2     :     0.028220  d :     0.095748
      dxz     :     0.033546
      dyz     :     0.013513
      dx2y2   :     0.013696
      dxy     :     0.006773
 22 S s       :     5.505011  s :     5.505011
      pz      :     3.153550  p :     9.896194
      px      :     3.164493
      py      :     3.578151
      dz2     :     0.056841  d :     0.151327
      dxz     :     0.018602
      dyz     :     0.021124
      dx2y2   :     0.032362
      dxy     :     0.022397
 23 C s       :     2.962337  s :     2.962337
      pz      :     1.132310  p :     3.198246
      px      :     1.033899
      py      :     1.032037
      dz2     :     0.027654  d :     0.088296
      dxz     :     0.024945
      dyz     :     0.009636
      dx2y2   :     0.013748
      dxy     :     0.012313
 24 H s       :     0.801819  s :     0.801819
 25 H s       :     0.842903  s :     0.842903
 26 H s       :     0.833301  s :     0.833301
 27 H s       :     0.814864  s :     0.814864
 28 H s       :     0.809157  s :     0.809157
 29 H s       :     0.809070  s :     0.809070
 30 O s       :     3.508228  s :     3.508228
      pz      :     1.508953  p :     4.685122
      px      :     1.549458
      py      :     1.626711
      dz2     :     0.010136  d :     0.051179
      dxz     :     0.016703
      dyz     :     0.007536
      dx2y2   :     0.008458
      dxy     :     0.008345
 31 O s       :     3.444864  s :     3.444864
      pz      :     1.630801  p :     4.664021
      px      :     1.593128
      py      :     1.440093
      dz2     :     0.008239  d :     0.060885
      dxz     :     0.008935
      dyz     :     0.012704
      dx2y2   :     0.012988
      dxy     :     0.018020
 32 C s       :     2.805926  s :     2.805926
      pz      :     0.838567  p :     2.715962
      px      :     0.870897
      py      :     1.006498
      dz2     :     0.053950  d :     0.323052
      dxz     :     0.057169
      dyz     :     0.060315
      dx2y2   :     0.077984
      dxy     :     0.073634
 33 C s       :     2.959899  s :     2.959899
      pz      :     1.143072  p :     3.357967
      px      :     1.155268
      py      :     1.059626
      dz2     :     0.003822  d :     0.061516
      dxz     :     0.015207
      dyz     :     0.017880
      dx2y2   :     0.020086
      dxy     :     0.004521
 34 H s       :     0.833395  s :     0.833395
 35 H s       :     0.827855  s :     0.827855
 36 H s       :     0.842326  s :     0.842326
 37 H s       :     0.812529  s :     0.812529
 38 H s       :     0.813270  s :     0.813270


                      *****************************
                      * MAYER POPULATION ANALYSIS *
                      *****************************

  NA   - Mulliken gross atomic population
  ZA   - Total nuclear charge
  QA   - Mulliken gross atomic charge
  VA   - Mayer's total valence
  BVA  - Mayer's bonded valence
  FA   - Mayer's free valence

  ATOM       NA         ZA         QA         VA         BVA        FA
  0 Ir    16.3912    17.0000     0.6088     3.7760     3.7760    -0.0000
  1 C      6.3158     6.0000    -0.3158     3.7265     3.7265     0.0000
  2 C      6.1711     6.0000    -0.1711     3.6880     3.6880    -0.0000
  3 C      6.2256     6.0000    -0.2256     3.7065     3.7065     0.0000
  4 C      6.1709     6.0000    -0.1709     3.6756     3.6756     0.0000
  5 C      6.2444     6.0000    -0.2444     3.7127     3.7127     0.0000
  6 N      7.4608     7.0000    -0.4608     3.2062     3.2062    -0.0000
  7 C      6.1374     6.0000    -0.1374     3.7179     3.7179     0.0000
  8 C      6.6262     6.0000    -0.6262     3.6655     3.6655     0.0000
  9 H      0.7496     1.0000     0.2504     0.9014     0.9014    -0.0000
 10 H      0.7795     1.0000     0.2205     0.9144     0.9144    -0.0000
 11 H      0.7409     1.0000     0.2591     0.9073     0.9073     0.0000
 12 C      6.6592     6.0000    -0.6592     3.6825     3.6825     0.0000
 13 H      0.7398     1.0000     0.2602     0.8793     0.8793     0.0000
 14 H      0.7348     1.0000     0.2652     0.8978     0.8978    -0.0000
 15 H      0.7731     1.0000     0.2269     0.9116     0.9116    -0.0000
 16 H      0.7609     1.0000     0.2391     0.9074     0.9074     0.0000
 17 C      5.9482     6.0000     0.0518     3.6675     3.6675     0.0000
 18 C      6.2180     6.0000    -0.2180     3.7155     3.7155    -0.0000
 19 H      0.7306     1.0000     0.2694     0.8977     0.8977    -0.0000
 20 C      6.2485     6.0000    -0.2485     3.6697     3.6697    -0.0000
 21 C      6.1424     6.0000    -0.1424     3.7204     3.7204     0.0000
 22 S     15.7093    16.0000     0.2907     2.5389     2.5389     0.0000
 23 C      6.4303     6.0000    -0.4303     3.7679     3.7679    -0.0000
 24 H      0.6449     1.0000     0.3551     0.8684     0.8684    -0.0000
 25 H      0.7345     1.0000     0.2655     0.8976     0.8976     0.0000
 26 H      0.7065     1.0000     0.2935     0.8991     0.8991    -0.0000
 27 H      0.7108     1.0000     0.2892     0.9099     0.9099     0.0000
 28 H      0.6972     1.0000     0.3028     0.8954     0.8954    -0.0000
 29 H      0.6995     1.0000     0.3005     0.8983     0.8983    -0.0000
 30 O      8.4852     8.0000    -0.4852     2.1424     2.1424    -0.0000
 31 O      8.4894     8.0000    -0.4894     2.1413     2.1413     0.0000
 32 C      5.3550     6.0000     0.6450     3.8671     3.8671     0.0000
 33 C      6.7732     6.0000    -0.7732     3.6519     3.6519     0.0000
 34 H      0.7253     1.0000     0.2747     0.8916     0.8916    -0.0000
 35 H      0.7222     1.0000     0.2778     0.8898     0.8898     0.0000
 36 H      0.7377     1.0000     0.2623     0.8975     0.8975    -0.0000
 37 H      0.7025     1.0000     0.2975     0.9032     0.9032    -0.0000
 38 H      0.7079     1.0000     0.2921     0.9028     0.9028    -0.0000

  Mayer bond orders larger than 0.100000
B(  0-Ir,  1-C ) :   0.5608 B(  0-Ir,  2-C ) :   0.4225 B(  0-Ir,  3-C ) :   0.4558 
B(  0-Ir,  4-C ) :   0.3824 B(  0-Ir,  5-C ) :   0.4650 B(  0-Ir,  6-N ) :   0.4870 
B(  0-Ir, 30-O ) :   0.3467 B(  0-Ir, 31-O ) :   0.5637 B(  1-C ,  2-C ) :   1.1298 
B(  1-C ,  4-C ) :   1.1207 B(  1-C , 27-H ) :   0.9166 B(  2-C ,  5-C ) :   1.2302 
B(  2-C , 28-H ) :   0.9027 B(  3-C ,  4-C ) :   1.2513 B(  3-C ,  5-C ) :   1.1057 
B(  3-C , 37-H ) :   0.9049 B(  4-C , 38-H ) :   0.9089 B(  5-C , 29-H ) :   0.9047 
B(  6-N ,  7-C ) :   0.8766 B(  6-N , 17-C ) :   1.6601 B(  7-C ,  8-C ) :   0.9768 
B(  7-C , 12-C ) :   0.9821 B(  7-C , 13-H ) :   0.8917 B(  8-C ,  9-H ) :   0.9064 
B(  8-C , 10-H ) :   0.9175 B(  8-C , 11-H ) :   0.9060 B( 12-C , 14-H ) :   0.9047 
B( 12-C , 15-H ) :   0.9133 B( 12-C , 16-H ) :   0.9193 B( 17-C , 18-C ) :   1.0958 
B( 17-C , 19-H ) :   0.8794 B( 18-C , 20-C ) :   1.4276 B( 18-C , 22-S ) :   1.1451 
B( 20-C , 21-C ) :   1.3270 B( 20-C , 24-H ) :   0.8024 B( 21-C , 23-C ) :   1.4659 
B( 21-C , 25-H ) :   0.9041 B( 22-S , 23-C ) :   1.2784 B( 23-C , 26-H ) :   0.8938 
B( 30-O , 32-C ) :   1.5501 B( 31-O , 32-C ) :   1.3655 B( 32-C , 33-C ) :   0.9461 
B( 33-C , 34-H ) :   0.8986 B( 33-C , 35-H ) :   0.8934 B( 33-C , 36-H ) :   0.9072 



------------------
HIRSHFELD ANALYSIS
------------------

Total integrated alpha density =     81.999492927
Total integrated beta density  =     81.999492927

  ATOM     CHARGE      SPIN    
   0 Ir   0.242154    0.000000
   1 C    0.004959    0.000000
   2 C    0.021899    0.000000
   3 C    0.015839    0.000000
   4 C    0.012118    0.000000
   5 C   -0.000597    0.000000
   6 N   -0.091431    0.000000
   7 C    0.053878    0.000000
   8 C   -0.072952    0.000000
   9 H    0.047989    0.000000
  10 H    0.035115    0.000000
  11 H    0.035915    0.000000
  12 C   -0.073391    0.000000
  13 H    0.039241    0.000000
  14 H    0.050902    0.000000
  15 H    0.037194    0.000000
  16 H    0.035605    0.000000
  17 C    0.099751    0.000000
  18 C   -0.035055    0.000000
  19 H    0.067753    0.000000
  20 C   -0.040362    0.000000
  21 C   -0.047989    0.000000
  22 S    0.094590    0.000000
  23 C   -0.018462    0.000000
  24 H    0.046946    0.000000
  25 H    0.066637    0.000000
  26 H    0.077737    0.000000
  27 H    0.087932    0.000000
  28 H    0.094483    0.000000
  29 H    0.090706    0.000000
  30 O   -0.270925    0.000000
  31 O   -0.238411    0.000000
  32 C    0.238712    0.000000
  33 C   -0.060237    0.000000
  34 H    0.059500    0.000000
  35 H    0.063567    0.000000
  36 H    0.053695    0.000000
  37 H    0.085212    0.000000
  38 H    0.090797    0.000000

  TOTAL   1.001014    0.000000

-------
TIMINGS
-------

Total SCF time: 0 days 0 hours 15 min 42 sec 

Total time                  ....     942.294 sec
Sum of individual times     ....     941.645 sec  ( 99.9%)

Fock matrix formation       ....     930.687 sec  ( 98.8%)
  Split-RI-J                ....      99.705 sec  ( 10.7% of F)
  Chain of spheres X        ....     758.127 sec  ( 81.5% of F)
  XC integration            ....      72.604 sec  (  7.8% of F)
    Basis function eval.    ....      26.714 sec  ( 36.8% of XC)
    Density eval.           ....      20.820 sec  ( 28.7% of XC)
    XC-Functional eval.     ....       4.689 sec  (  6.5% of XC)
    XC-Potential eval.      ....      18.393 sec  ( 25.3% of XC)
Diagonalization             ....       1.169 sec  (  0.1%)
Density matrix formation    ....       0.124 sec  (  0.0%)
Population analysis         ....       1.575 sec  (  0.2%)
Initial guess               ....       0.035 sec  (  0.0%)
Orbital Transformation      ....       0.000 sec  (  0.0%)
Orbital Orthonormalization  ....       0.000 sec  (  0.0%)
DIIS solution               ....       0.452 sec  (  0.0%)
Grid generation             ....       7.603 sec  (  0.8%)

Maximum memory used throughout the entire SCF-calculation: 170.0 MB


-------------------------------------------------------------------------------
                          DFT DISPERSION CORRECTION                            
                                                                               
                              DFTD3 V3.1  Rev 1                                
                          USING Becke-Johnson damping                          
-------------------------------------------------------------------------------
The PBEh-3c composite method is recognized
Using three-body term ABC
Active option DFTDOPT                   ...         4   

molecular C6(AA) [au] = 19679.355190 


            DFT-D V3
 parameters
 s6 scaling factor         :     1.0000 
 a1 scaling factor         :     0.4860 
 s8 scaling factor         :     0.0000 
 a2 scaling factor         :     4.5000 
 Damping factor alpha9(ATM):    16.0000 
 ad hoc parameters k1-k3   :    16.0000     1.3333    -4.0000 

 Edisp/kcal,au: -18.378445171056  -0.029287913522 
 E6   /kcal   : -18.681312476 
 E8   /kcal   :  -0.000000000 
 E6(ABC)      :   0.302867305 
 % E8         :   0.000000000 
 % E6(ABC)    :  -1.647948465 

-------------------------   ----------------
Dispersion correction           -0.029287914
-------------------------   ----------------

 ** NOTE ** -> element ir will be treated as co
NOTIFICATION: Different basis set in ORCA and otool_gcp:
ORCA: 358  gCP: 357 
If you are NOT using ECPs, check your basis set inputs!
------------------   -----------------
gCP correction             0.074109539
------------------   -----------------

-------------------------   --------------------
FINAL SINGLE POINT ENERGY     -1288.392635331113
-------------------------   --------------------

------------------------------------------------------------------------------
                         ORCA SCF GRADIENT CALCULATION
------------------------------------------------------------------------------

 ... reading COSX grid (gridx3)
Gradient of the Kohn-Sham DFT energy:
Kohn-Sham wavefunction type      ... RKS
Hartree-Fock exchange scaling    ...    0.420
Number of operators              ...    1
Number of atoms                  ...   39
Basis set dimensions             ...  358
Integral neglect threshold       ... 2.5e-11
Integral primitive cutoff        ... 2.5e-12
SHARK Integral package           ... ON

Nuc. rep. gradient       (SHARK) ... done (  0.0 sec)
HCore & Overlap gradient (SHARK) ... done (  2.0 sec)
ECP gradient             (SHARK) ... done (  4.3 sec)
RI-J gradient            (SHARK) ... done (  9.6 sec)
COSX-gradient                    ... done ( 92.0 sec)
Exchange-correlation gradient    ... done
Dispersion correction            ... done
gCP correction                   ... done

------------------
CARTESIAN GRADIENT
------------------

   1   Ir  :   -0.005220140    0.001446592    0.004353213
   2   C   :    0.007165267    0.000309293   -0.012601542
   3   C   :   -0.005221358   -0.002950064    0.014274418
   4   C   :    0.013201024    0.002328175    0.008868354
   5   C   :   -0.011359601   -0.003892582    0.007874306
   6   C   :   -0.007677399   -0.003429500   -0.018218389
   7   N   :   -0.007000161    0.001646722   -0.010653718
   8   C   :    0.000463319    0.002898783   -0.007470604
   9   C   :   -0.008594938   -0.002737920    0.000164553
  10   H   :    0.000763061   -0.000320734   -0.000576157
  11   H   :   -0.000566324    0.000624991   -0.003089943
  12   H   :    0.003413666    0.002113550    0.005797908
  13   C   :   -0.006321598    0.005956563    0.006626306
  14   H   :   -0.001215584   -0.003334437    0.006511656
  15   H   :    0.002924830    0.000417204   -0.002323896
  16   H   :   -0.000478539    0.001148937   -0.001175491
  17   H   :    0.001575253   -0.005995317   -0.001268664
  18   C   :    0.009338815   -0.005562185    0.003661441
  19   C   :    0.034419974   -0.004437955    0.026935415
  20   H   :   -0.012308837    0.003434936   -0.004354618
  21   C   :   -0.033398296   -0.010691840   -0.064952571
  22   C   :    0.005494595   -0.009944448    0.025799361
  23   S   :    0.004668576    0.007142083    0.008188723
  24   C   :   -0.007097181    0.004920519    0.001230046
  25   H   :    0.006805171    0.016326649    0.015724267
  26   H   :   -0.009970463   -0.001062083   -0.001555509
  27   H   :    0.004046682    0.003002573    0.002177844
  28   H   :    0.002948928   -0.011118361    0.003628316
  29   H   :    0.000591061   -0.004640325   -0.007832431
  30   H   :    0.004114195    0.000550205    0.001618424
  31   O   :    0.012271233    0.009749684   -0.010265490
  32   O   :    0.026525288    0.023706207   -0.017905452
  33   C   :   -0.022852076   -0.013274371    0.015504919
  34   C   :    0.008563028   -0.003840661   -0.006686990
  35   H   :    0.000085716    0.003420224    0.002227381
  36   H   :    0.000094520    0.003316160    0.000889085
  37   H   :   -0.008047451    0.004408660    0.005795881
  38   H   :   -0.000484024   -0.005400752    0.003091554
  39   H   :   -0.001208036   -0.007251626   -0.000449292

Difference to translation invariance:
           :    0.0004521943   -0.0010164507   -0.0004373865

Difference to rotation invariance:
           :    0.0030330383    0.0033722184   -0.0004311353

Norm of the cartesian gradient     ...    0.1219096456
RMS gradient                       ...    0.0112705507
MAX gradient                       ...    0.0649525707

-------
TIMINGS
-------

Total SCF gradient time            ...      124.041 sec

One electron gradient       ....       6.286 sec  (  5.1%)
RI-J Coulomb gradient       ....       9.645 sec  (  7.8%)
COSX gradient               ....      92.004 sec  ( 74.2%)
XC gradient                 ....      13.926 sec  ( 11.2%)

Maximum memory used throughout the entire SCFGRAD-calculation: 136.7 MB

                            ***************************************
                            *     ORCA property calculations      *
                            ***************************************

                                    ---------------------
                                    Active property flags
                                    ---------------------
   (+) Dipole Moment


------------------------------------------------------------------------------
                       ORCA ELECTRIC PROPERTIES CALCULATION
------------------------------------------------------------------------------

Dipole Moment Calculation                       ... on
Quadrupole Moment Calculation                   ... off
Polarizability Calculation                      ... off
GBWName                                         ... 3_5_orca.gbw
Electron density                                ... 3_5_orca.scfp
The origin for moment calculation is the CENTER OF MASS  = ( 0.718326, -0.573662  0.341726)

-------------
DIPOLE MOMENT
-------------
                                X             Y             Z
Electronic contribution:     23.94606     -65.24416     122.65215
Nuclear contribution   :    -24.14311      64.15023    -122.75757
                        -----------------------------------------
Total Dipole Moment    :     -0.19705      -1.09394      -0.10541
                        -----------------------------------------
Magnitude (a.u.)       :      1.11653
Magnitude (Debye)      :      2.83799



--------------------
Rotational spectrum 
--------------------
 
Rotational constants in cm-1:     0.011019     0.007690     0.006987 
Rotational constants in MHz :   330.356216   230.525759   209.453427 

 Dipole components along the rotational axes: 
x,y,z [a.u.] :     0.059917    -0.485981     1.003428 
x,y,z [Debye]:     0.152296    -1.235267     2.550512 

 

Timings for individual modules:

Sum of individual times         ...     1068.151 sec (=  17.803 min)
GTO integral calculation        ...        1.753 sec (=   0.029 min)   0.2 %
SCF iterations                  ...      942.328 sec (=  15.705 min)  88.2 %
SCF Gradient evaluation         ...      124.071 sec (=   2.068 min)  11.6 %
                             ****ORCA TERMINATED NORMALLY****
TOTAL RUN TIME: 0 days 0 hours 17 minutes 48 seconds 593 msec
