
                                 *****************
                                 * O   R   C   A *
                                 *****************

                                            #,                                       
                                            ###                                      
                                            ####                                     
                                            #####                                    
                                            ######                                   
                                           ########,                                 
                                     ,,################,,,,,                         
                               ,,#################################,,                 
                          ,,##########################################,,             
                       ,#########################################, ''#####,          
                    ,#############################################,,   '####,        
                  ,##################################################,,,,####,       
                ,###########''''           ''''###############################       
              ,#####''   ,,,,##########,,,,          '''####'''          '####       
            ,##' ,,,,###########################,,,                        '##       
           ' ,,###''''                  '''############,,,                           
         ,,##''                                '''############,,,,        ,,,,,,###''
      ,#''                                            '''#######################'''  
     '                                                          ''''####''''         
             ,#######,   #######,   ,#######,      ##                                
            ,#'     '#,  ##    ##  ,#'     '#,    #''#        ######   ,####,        
            ##       ##  ##   ,#'  ##            #'  '#       #        #'  '#        
            ##       ##  #######   ##           ,######,      #####,   #    #        
            '#,     ,#'  ##    ##  '#,     ,#' ,#      #,         ##   #,  ,#        
             '#######'   ##     ##  '#######'  #'      '#     #####' # '####'        



                  #######################################################
                  #                        -***-                        #
                  #          Department of theory and spectroscopy      #
                  #    Directorship and core code : Frank Neese         #
                  #        Max Planck Institute fuer Kohlenforschung    #
                  #                Kaiser Wilhelm Platz 1               #
                  #                 D-45470 Muelheim/Ruhr               #
                  #                      Germany                        #
                  #                                                     #
                  #                  All rights reserved                #
                  #                        -***-                        #
                  #######################################################


                         Program Version 5.0.3 -  RELEASE  -


 With contributions from (in alphabetic order):
   Daniel Aravena         : Magnetic Suceptibility
   Michael Atanasov       : Ab Initio Ligand Field Theory (pilot matlab implementation)
   Alexander A. Auer      : GIAO ZORA, VPT2 properties, NMR spectrum
   Ute Becker             : Parallelization
   Giovanni Bistoni       : ED, misc. LED, open-shell LED, HFLD
   Martin Brehm           : Molecular dynamics
   Dmytro Bykov           : SCF Hessian
   Vijay G. Chilkuri      : MRCI spin determinant printing, contributions to CSF-ICE
   Dipayan Datta          : RHF DLPNO-CCSD density
   Achintya Kumar Dutta   : EOM-CC, STEOM-CC
   Dmitry Ganyushin       : Spin-Orbit,Spin-Spin,Magnetic field MRCI
   Miquel Garcia          : C-PCM and meta-GGA Hessian, CC/C-PCM, Gaussian charge scheme
   Yang Guo               : DLPNO-NEVPT2, F12-NEVPT2, CIM, IAO-localization
   Andreas Hansen         : Spin unrestricted coupled pair/coupled cluster methods
   Benjamin Helmich-Paris : MC-RPA, TRAH-SCF, COSX integrals
   Lee Huntington         : MR-EOM, pCC
   Robert Izsak           : Overlap fitted RIJCOSX, COSX-SCS-MP3, EOM
   Marcus Kettner         : VPT2
   Christian Kollmar      : KDIIS, OOCD, Brueckner-CCSD(T), CCSD density, CASPT2, CASPT2-K
   Simone Kossmann        : Meta GGA functionals, TD-DFT gradient, OOMP2, MP2 Hessian
   Martin Krupicka        : Initial AUTO-CI
   Lucas Lang             : DCDCAS
   Marvin Lechner         : AUTO-CI (C++ implementation), FIC-MRCC
   Dagmar Lenk            : GEPOL surface, SMD
   Dimitrios Liakos       : Extrapolation schemes; Compound Job, initial MDCI parallelization
   Dimitrios Manganas     : Further ROCIS development; embedding schemes
   Dimitrios Pantazis     : SARC Basis sets
   Anastasios Papadopoulos: AUTO-CI, single reference methods and gradients
   Taras Petrenko         : DFT Hessian,TD-DFT gradient, ASA, ECA, R-Raman, ABS, FL, XAS/XES, NRVS
   Peter Pinski           : DLPNO-MP2, DLPNO-MP2 Gradient
   Christoph Reimann      : Effective Core Potentials
   Marius Retegan         : Local ZFS, SOC
   Christoph Riplinger    : Optimizer, TS searches, QM/MM, DLPNO-CCSD(T), (RO)-DLPNO pert. Triples
   Tobias Risthaus        : Range-separated hybrids, TD-DFT gradient, RPA, STAB
   Michael Roemelt        : Original ROCIS implementation
   Masaaki Saitow         : Open-shell DLPNO-CCSD energy and density
   Barbara Sandhoefer     : DKH picture change effects
   Avijit Sen             : IP-ROCIS
   Kantharuban Sivalingam : CASSCF convergence, NEVPT2, FIC-MRCI
   Bernardo de Souza      : ESD, SOC TD-DFT
   Georgi Stoychev        : AutoAux, RI-MP2 NMR, DLPNO-MP2 response
   Willem Van den Heuvel  : Paramagnetic NMR
   Boris Wezisla          : Elementary symmetry handling
   Frank Wennmohs         : Technical directorship


 We gratefully acknowledge several colleagues who have allowed us to
 interface, adapt or use parts of their codes:
   Stefan Grimme, W. Hujo, H. Kruse, P. Pracht,  : VdW corrections, initial TS optimization,
                  C. Bannwarth, S. Ehlert          DFT functionals, gCP, sTDA/sTD-DF
   Ed Valeev, F. Pavosevic, A. Kumar             : LibInt (2-el integral package), F12 methods
   Garnet Chan, S. Sharma, J. Yang, R. Olivares  : DMRG
   Ulf Ekstrom                                   : XCFun DFT Library
   Mihaly Kallay                                 : mrcc  (arbitrary order and MRCC methods)
   Jiri Pittner, Ondrej Demel                    : Mk-CCSD
   Frank Weinhold                                : gennbo (NPA and NBO analysis)
   Christopher J. Cramer and Donald G. Truhlar   : smd solvation model
   Lars Goerigk                                  : TD-DFT with DH, B97 family of functionals
   V. Asgeirsson, H. Jonsson                     : NEB implementation
   FAccTs GmbH                                   : IRC, NEB, NEB-TS, DLPNO-Multilevel, CI-OPT
                                                   MM, QMMM, 2- and 3-layer-ONIOM, Crystal-QMMM,
                                                   LR-CPCM, SF, NACMEs, symmetry and pop. for TD-DFT,
                                                   nearIR, NL-DFT gradient (VV10), updates on ESD,
                                                   ML-optimized integration grids
   S Lehtola, MJT Oliveira, MAL Marques          : LibXC Library
   Liviu Ungur et al                             : ANISO software


 Your calculation uses the libint2 library for the computation of 2-el integrals
 For citations please refer to: http://libint.valeyev.net

 Your ORCA version has been built with support for libXC version: 5.1.0
 For citations please refer to: https://tddft.org/programs/libxc/

 This ORCA versions uses:
   CBLAS   interface :  Fast vector & matrix operations
   LAPACKE interface :  Fast linear algebra routines
   SCALAPACK package :  Parallel linear algebra routines
   Shared memory     :  Shared parallel matrices
   BLAS/LAPACK       :  OpenBLAS 0.3.15  USE64BITINT DYNAMIC_ARCH NO_AFFINITY SkylakeX SINGLE_THREADED
        Core in use  :  SkylakeX
   Copyright (c) 2011-2014, The OpenBLAS Project


Your calculation utilizes the geometrical counterpoise correction gCP
Please cite in your paper:
H.Kruse, S. Grimme J.Chem.Phys., 136, (2012), 154101 
   

Your calculation utilizes the atom-pairwise dispersion correction
with the Becke-Johnson damping scheme (D3BJ)
Cite in your paper:
S.Grimme, S.Ehrlich, L.Goerigk, J Comput Chem, (2011), 32, 1456–1465 
S.Grimme, J.Antony, S.Ehrlich and H.Krieg, J.Chem.Phys., 132, (2010), 154104 
   

Your calculation employs the composite approach PBEh-3c.
Please cite in your paper:
S. Grimme, J. G. Brandenburg, C. Bannwarth, A. Hansen J.Chem.Phys., 143, (2015), 054107 
   

================================================================================

cite the ECPs for Ir [Def2-ECP] as follows:
Ce-Yb(ecp-28): M. Dolg, H. Stoll, H.Preuss, J. Chem. Phys., 1989, 90, 1730-1734.
Y-Cd(ecp-28), Hf-Hg(ecp-46): D. Andrae,U. Haeussermann, M. Dolg, H. Stoll, H. Preuss, Theor. Chim. Acta, 1990, 77, 123-141.
In-Sb(ecp-28), Tl-Bi(ecp-46): B. Metz, H. Stoll, M. Dolg, J. Chem. Phys., 2000, 113, 2563-2569.
Te-Xe(ecp-28), Po-Rn(ecp-46): K. A. Peterson, D. Figgen, E. Goll, H. Stoll, M. Dolg, J. Chem. Phys., 2003, 119, 11113-11123.
Rb(ecp-28), Cs(ecp-46): T. Leininger, A. Nicklass, W. Kuechle, H. Stoll, M. Dolg, A. Bergner, Chem. Phys. Lett., 1996, 255, 274-280.
Sr(ecp-28), Ba(ecp-46): M. Kaupp, P. V. Schleyer, H. Stoll and H. Preuss, J. Chem. Phys., 1991, 94, 1360-1366.
La(ecp-46): M. Dolg, H. Stoll, A. Savin, H. Preuss, Theor. Chim. Acta, 1989, 75, 173-194.
Lu(ecp-28): X. Cao, M. Dolg, J. Chem. Phys., 2001, 115, 7348-7355.

ECP parameters for Ir [Def2-ECP] have been obtained from:
TURBOMOLE (7.0.2)

----- Orbital basis set information -----
Your calculation utilizes the basis: def2-mSVP

----- AuxJ basis set information -----
Your calculation utilizes the auxiliary basis: def2/J
   F. Weigend, Phys. Chem. Chem. Phys. 8, 1057 (2006).

================================================================================
                                        WARNINGS
                       Please study these warnings very carefully!
================================================================================


WARNING: No Hueckel Guess possible with ECP basis!
  ===> : Switching to HCORE guess!

INFO   : the flag for use of the SHARK integral package has been found!

================================================================================
                                       INPUT FILE
================================================================================
NAME = 3_2_orca.inp
|  1> ! EnGrad PBEh-3c
|  2> %output 
|  3> xyzfile=True 
|  4> end 
|  5> %scf 
|  6> maxiter 250 
|  7> end
|  8> %output
|  9> Print[P_Hirshfeld] = 1
| 10> end
| 11> % maxcore
| 12> 4000
| 13> *xyz 1 1
| 14> Ir   0.48215728  -0.73923217   0.80380616 
| 15> C   -0.07697754  -2.79345822   1.49062025 
| 16> C    0.58458158  -2.11010376   2.54188279 
| 17> C    1.99783938  -2.23307383   0.74030554 
| 18> C    0.77956989  -2.85642148   0.36451177 
| 19> C    1.89171859  -1.80475023   2.08953724 
| 20> N   -1.01533705  -0.03227603  -0.44642681 
| 21> C   -2.44034897   0.00999945   0.01513796 
| 22> C   -2.87685546   1.38472949   0.48419314 
| 23> H   -3.91372447   1.36663462   0.83779840 
| 24> H   -2.81455990   2.10867404  -0.32149502 
| 25> H   -2.29615908   1.72335094   1.32939917 
| 26> C   -3.44613052  -0.53469938  -0.99467971 
| 27> H   -2.47789837  -0.63307592   0.87586850 
| 28> H   -4.42464738  -0.65003821  -0.50774987 
| 29> H   -3.60016055   0.13183943  -1.83970991 
| 30> H   -3.16006041  -1.51102502  -1.36458365 
| 31> C   -0.75624007   0.26437634  -1.67146362 
| 32> C    0.53407790   0.21389848  -2.29169029 
| 33> H   -1.56827933   0.54694539  -2.31380455 
| 34> C    1.77625270   0.05113239  -1.62924490 
| 35> C    2.83326938  -0.04777524  -2.57301317 
| 36> S    0.74777883   0.16914393  -3.99626385 
| 37> C    2.43434016  -0.01070567  -3.86838047 
| 38> H    2.21554671   1.07792567  -0.82555732 
| 39> H    3.88559400  -0.06994005  -2.30978530 
| 40> H    3.06097131  -0.10544050  -4.74159566 
| 41> H   -0.93248103  -3.44905680   1.62352949 
| 42> H    0.20249157  -2.00773017   3.56106468 
| 43> H    2.68591910  -1.40293490   2.67536905 
| 44> O    1.81385011   1.86576323   0.61935912 
| 45> O    0.15301418   1.07233671   1.79428125 
| 46> C    0.95102734   2.06250557   1.40608633 
| 47> C    0.80313662   3.41954762   2.07035413 
| 48> H    0.84203959   4.18335962   1.29560857 
| 49> H    1.66926488   3.59656524   2.71663663 
| 50> H   -0.08900064   3.52597288   2.65479309 
| 51> H    2.94525914  -2.32455559   0.21027558 
| 52> H    0.59911020  -3.45897204  -0.50534859 
| 53> *
| 54> 
| 55>                          ****END OF INPUT****
================================================================================

                     *******************************
                     * Energy+Gradient Calculation *
                     *******************************

---------------------------------
CARTESIAN COORDINATES (ANGSTROEM)
---------------------------------
  Ir     0.482157   -0.739232    0.803806
  C     -0.076978   -2.793458    1.490620
  C      0.584582   -2.110104    2.541883
  C      1.997839   -2.233074    0.740306
  C      0.779570   -2.856421    0.364512
  C      1.891719   -1.804750    2.089537
  N     -1.015337   -0.032276   -0.446427
  C     -2.440349    0.009999    0.015138
  C     -2.876855    1.384729    0.484193
  H     -3.913724    1.366635    0.837798
  H     -2.814560    2.108674   -0.321495
  H     -2.296159    1.723351    1.329399
  C     -3.446131   -0.534699   -0.994680
  H     -2.477898   -0.633076    0.875868
  H     -4.424647   -0.650038   -0.507750
  H     -3.600161    0.131839   -1.839710
  H     -3.160060   -1.511025   -1.364584
  C     -0.756240    0.264376   -1.671464
  C      0.534078    0.213898   -2.291690
  H     -1.568279    0.546945   -2.313805
  C      1.776253    0.051132   -1.629245
  C      2.833269   -0.047775   -2.573013
  S      0.747779    0.169144   -3.996264
  C      2.434340   -0.010706   -3.868380
  H      2.215547    1.077926   -0.825557
  H      3.885594   -0.069940   -2.309785
  H      3.060971   -0.105441   -4.741596
  H     -0.932481   -3.449057    1.623529
  H      0.202492   -2.007730    3.561065
  H      2.685919   -1.402935    2.675369
  O      1.813850    1.865763    0.619359
  O      0.153014    1.072337    1.794281
  C      0.951027    2.062506    1.406086
  C      0.803137    3.419548    2.070354
  H      0.842040    4.183360    1.295609
  H      1.669265    3.596565    2.716637
  H     -0.089001    3.525973    2.654793
  H      2.945259   -2.324556    0.210276
  H      0.599110   -3.458972   -0.505349

----------------------------
CARTESIAN COORDINATES (A.U.)
----------------------------
  NO LB      ZA    FRAG     MASS         X           Y           Z
   0 Ir   17.0000*   0   192.220    0.911145   -1.396946    1.518974
   1 C     6.0000    0    12.011   -0.145466   -5.278871    2.816864
   2 C     6.0000    0    12.011    1.104699   -3.987518    4.803462
   3 C     6.0000    0    12.011    3.775369   -4.219898    1.398975
   4 C     6.0000    0    12.011    1.473174   -5.397854    0.688827
   5 C     6.0000    0    12.011    3.574830   -3.410484    3.948653
   6 N     7.0000    0    14.007   -1.918709   -0.060993   -0.843624
   7 C     6.0000    0    12.011   -4.611591    0.018896    0.028607
   8 C     6.0000    0    12.011   -5.436469    2.616760    0.914992
   9 H     1.0000    0     1.008   -7.395867    2.582565    1.583210
  10 H     1.0000    0     1.008   -5.318747    3.984816   -0.607538
  11 H     1.0000    0     1.008   -4.339112    3.256661    2.512200
  12 C     6.0000    0    12.011   -6.512243   -1.010435   -1.879672
  13 H     1.0000    0     1.008   -4.682549   -1.196340    1.655152
  14 H     1.0000    0     1.008   -8.361372   -1.228394   -0.959508
  15 H     1.0000    0     1.008   -6.803317    0.249140   -3.476548
  16 H     1.0000    0     1.008   -5.971649   -2.855423   -2.578689
  17 C     6.0000    0    12.011   -1.429087    0.499599   -3.158608
  18 C     6.0000    0    12.011    1.009261    0.404210   -4.330667
  19 H     1.0000    0     1.008   -2.963618    1.033577   -4.372457
  20 C     6.0000    0    12.011    3.356631    0.096626   -3.078827
  21 C     6.0000    0    12.011    5.354103   -0.090282   -4.862290
  22 S    16.0000    0    32.060    1.413097    0.319636   -7.551844
  23 C     6.0000    0    12.011    4.600236   -0.020231   -7.310180
  24 H     1.0000    0     1.008    4.186777    2.036984   -1.560077
  25 H     1.0000    0     1.008    7.342709   -0.132168   -4.364862
  26 H     1.0000    0     1.008    5.784397   -0.199254   -8.960317
  27 H     1.0000    0     1.008   -1.762134   -6.517773    3.068026
  28 H     1.0000    0     1.008    0.382654   -3.794060    6.729437
  29 H     1.0000    0     1.008    5.075652   -2.651163    5.055715
  30 O     8.0000    0    15.999    3.427680    3.525782    1.170419
  31 O     8.0000    0    15.999    0.289155    2.026423    3.390700
  32 C     6.0000    0    12.011    1.797181    3.897571    2.657118
  33 C     6.0000    0    12.011    1.517708    6.462009    3.912402
  34 H     1.0000    0     1.008    1.591224    7.905404    2.448345
  35 H     1.0000    0     1.008    3.154453    6.796523    5.133699
  36 H     1.0000    0     1.008   -0.168187    6.663123    5.016832
  37 H     1.0000    0     1.008    5.565733   -4.392773    0.397363
  38 H     1.0000    0     1.008    1.132154   -6.536510   -0.954970
* core charge reduced due to ECP

--------------------------------
INTERNAL COORDINATES (ANGSTROEM)
--------------------------------
 Ir     0   0   0     0.000000000000     0.00000000     0.00000000
 C      1   0   0     2.237004695046     0.00000000     0.00000000
 C      2   1   0     1.417669466154    70.63352224     0.00000000
 C      1   2   3     2.129057881353    62.79217243    81.53560360
 C      2   1   3     1.416247923450    69.23910013   239.60241574
 C      3   2   1     1.416497242426   107.32131709   298.36812681
 N      1   2   3     2.074935837934   108.51054039   215.90312088
 C      7   1   2     1.498495320399   120.68604879    54.94594045
 C      8   7   1     1.516717956832   113.23551105    99.38418485
 H      9   8   7     1.095655716052   110.92795600   181.53569398
 H      9   8   7     1.084946938534   111.01522753    61.75057014
 H      9   8   7     1.079928703801   111.80763606   298.56957099
 C      8   7   1     1.525786704742   114.38931207   226.19530830
 H      8   7   1     1.075087415715   105.24476879   343.41221536
 H     13   8   7     1.099044566927   109.33789636   168.94889926
 H     13   8   7     1.087232851918   112.88770367   287.19050933
 H     13   8   7     1.082532580565   111.95780607    50.57811687
 C      7   1   2     1.286797987070   120.45433814   241.23227739
 C     18   7   1     1.432532582608   125.83236255   356.98003534
 H     18   7   1     1.073245031739   118.56324230   174.83810195
 C     19  18   7     1.417153812591   126.24024681   348.64001576
 C     21  19  18     1.420480738528   110.46724645   175.84915532
 S     19  18   7     1.718499950154   122.84547833   161.46835003
 C     22  21  19     1.355911176110   114.44989777   357.98825363
 H     21  19  18     1.375935097787   117.85114083   292.05687958
 H     22  21  19     1.084973408064   124.19177570   173.14414702
 H     24  22  21     1.078956001982   126.86304653   182.38306184
 H      2   1   3     1.085983694895   142.07741075   121.88465828
 H      3   2   1     1.093254248826   124.98372484   128.17284188
 H      6   3   2     1.065555685600   126.40685909   188.14721059
 O     25  21  19     1.694057761111   140.31312271    66.83953978
 O      1   2   3     2.090731424926   127.65305567   311.29560546
 C     31  25  21     1.184107420690   144.76038919   341.33821142
 C     33  31  25     1.518119396045   120.67881110   217.19459344
 H     34  33  31     1.088647277661   108.19774630    48.47580031
 H     34  33  31     1.095077380995   109.00689744   293.44489411
 H     34  33  31     1.071822804671   114.10653514   171.74461581
 H      4   1   2     1.089451638463   133.82990927   160.89931939
 H      5   2   1     1.073447680593   124.58391653   228.52236442

---------------------------
INTERNAL COORDINATES (A.U.)
---------------------------
 Ir     0   0   0     0.000000000000     0.00000000     0.00000000
 C      1   0   0     4.227326233933     0.00000000     0.00000000
 C      2   1   0     2.679007039453    70.63352224     0.00000000
 C      1   2   3     4.023336319024    62.79217243    81.53560360
 C      2   1   3     2.676320713056    69.23910013   239.60241574
 C      3   2   1     2.676791857639   107.32131709   298.36812681
 N      1   2   3     3.921060479153   108.51054039   215.90312088
 C      7   1   2     2.831745768516   120.68604879    54.94594045
 C      8   7   1     2.866181560812   113.23551105    99.38418485
 H      9   8   7     2.070489240404   110.92795600   181.53569398
 H      9   8   7     2.050252583666   111.01522753    61.75057014
 H      9   8   7     2.040769494345   111.80763606   298.56957099
 C      8   7   1     2.883319010741   114.38931207   226.19530830
 H      8   7   1     2.031620785727   105.24476879   343.41221536
 H     13   8   7     2.076893240467   109.33789636   168.94889926
 H     13   8   7     2.054572333927   112.88770367   287.19050933
 H     13   8   7     2.045690108315   111.95780607    50.57811687
 C      7   1   2     2.431695785243   120.45433814   241.23227739
 C     18   7   1     2.707094259049   125.83236255   356.98003534
 H     18   7   1     2.028139184578   118.56324230   174.83810195
 C     19  18   7     2.678032595439   126.24024681   348.64001576
 C     21  19  18     2.684319574328   110.46724645   175.84915532
 S     19  18   7     3.247494266949   122.84547833   161.46835003
 C     22  21  19     2.562300784770   114.44989777   357.98825363
 H     21  19  18     2.600140512867   117.85114083   292.05687958
 H     22  21  19     2.050302603827   124.19177570   173.14414702
 H     24  22  21     2.038931354296   126.86304653   182.38306184
 H      2   1   3     2.052211769255   142.07741075   121.88465828
 H      3   2   1     2.065951125026   124.98372484   128.17284188
 H      6   3   2     2.013608426227   126.40685909   188.14721059
 O     25  21  19     3.201305223544   140.31312271    66.83953978
 O      1   2   3     3.950909812693   127.65305567   311.29560546
 C     31  25  21     2.237638738248   144.76038919   341.33821142
 C     33  31  25     2.868829897118   120.67881110   217.19459344
 H     34  33  31     2.057245211218   108.19774630    48.47580031
 H     34  33  31     2.069396345533   109.00689744   293.44489411
 H     34  33  31     2.025451564919   114.10653514   171.74461581
 H      4   1   2     2.058765232846   133.82990927   160.89931939
 H      5   2   1     2.028522135414   124.58391653   228.52236442

---------------------
BASIS SET INFORMATION
---------------------
There are 6 groups of distinct atoms

 Group   1 Type Ir  : 7s6p5d1f contracted to 6s3p2d1f pattern {211111/411/41/1}
 Group   2 Type C   : 8s4p1d contracted to 4s2p1d pattern {5111/31/1}
 Group   3 Type N   : 8s4p1d contracted to 4s2p1d pattern {5111/31/1}
 Group   4 Type H   : 4s contracted to 2s pattern {31}
 Group   5 Type S   : 10s7p1d contracted to 4s3p1d pattern {5311/511/1}
 Group   6 Type O   : 8s4p1d contracted to 4s2p1d pattern {5111/31/1}

Atom   0Ir   basis set group =>   1
Atom   1C    basis set group =>   2
Atom   2C    basis set group =>   2
Atom   3C    basis set group =>   2
Atom   4C    basis set group =>   2
Atom   5C    basis set group =>   2
Atom   6N    basis set group =>   3
Atom   7C    basis set group =>   2
Atom   8C    basis set group =>   2
Atom   9H    basis set group =>   4
Atom  10H    basis set group =>   4
Atom  11H    basis set group =>   4
Atom  12C    basis set group =>   2
Atom  13H    basis set group =>   4
Atom  14H    basis set group =>   4
Atom  15H    basis set group =>   4
Atom  16H    basis set group =>   4
Atom  17C    basis set group =>   2
Atom  18C    basis set group =>   2
Atom  19H    basis set group =>   4
Atom  20C    basis set group =>   2
Atom  21C    basis set group =>   2
Atom  22S    basis set group =>   5
Atom  23C    basis set group =>   2
Atom  24H    basis set group =>   4
Atom  25H    basis set group =>   4
Atom  26H    basis set group =>   4
Atom  27H    basis set group =>   4
Atom  28H    basis set group =>   4
Atom  29H    basis set group =>   4
Atom  30O    basis set group =>   6
Atom  31O    basis set group =>   6
Atom  32C    basis set group =>   2
Atom  33C    basis set group =>   2
Atom  34H    basis set group =>   4
Atom  35H    basis set group =>   4
Atom  36H    basis set group =>   4
Atom  37H    basis set group =>   4
Atom  38H    basis set group =>   4
---------------------------------
AUXILIARY/J BASIS SET INFORMATION
---------------------------------
There are 6 groups of distinct atoms

 Group   1 Type Ir  : 11s5p5d3f3g contracted to 8s5p5d2f3g pattern {41111111/11111/11111/21/111}
 Group   2 Type C   : 12s5p4d2f1g contracted to 6s4p3d1f1g pattern {711111/2111/211/2/1}
 Group   3 Type N   : 12s5p4d2f1g contracted to 6s4p3d1f1g pattern {711111/2111/211/2/1}
 Group   4 Type H   : 5s2p1d contracted to 3s1p1d pattern {311/2/1}
 Group   5 Type S   : 14s5p5d2f1g contracted to 8s4p3d1f1g pattern {71111111/2111/311/2/1}
 Group   6 Type O   : 12s5p4d2f1g contracted to 6s4p3d1f1g pattern {711111/2111/211/2/1}

Atom   0Ir   basis set group =>   1
Atom   1C    basis set group =>   2
Atom   2C    basis set group =>   2
Atom   3C    basis set group =>   2
Atom   4C    basis set group =>   2
Atom   5C    basis set group =>   2
Atom   6N    basis set group =>   3
Atom   7C    basis set group =>   2
Atom   8C    basis set group =>   2
Atom   9H    basis set group =>   4
Atom  10H    basis set group =>   4
Atom  11H    basis set group =>   4
Atom  12C    basis set group =>   2
Atom  13H    basis set group =>   4
Atom  14H    basis set group =>   4
Atom  15H    basis set group =>   4
Atom  16H    basis set group =>   4
Atom  17C    basis set group =>   2
Atom  18C    basis set group =>   2
Atom  19H    basis set group =>   4
Atom  20C    basis set group =>   2
Atom  21C    basis set group =>   2
Atom  22S    basis set group =>   5
Atom  23C    basis set group =>   2
Atom  24H    basis set group =>   4
Atom  25H    basis set group =>   4
Atom  26H    basis set group =>   4
Atom  27H    basis set group =>   4
Atom  28H    basis set group =>   4
Atom  29H    basis set group =>   4
Atom  30O    basis set group =>   6
Atom  31O    basis set group =>   6
Atom  32C    basis set group =>   2
Atom  33C    basis set group =>   2
Atom  34H    basis set group =>   4
Atom  35H    basis set group =>   4
Atom  36H    basis set group =>   4
Atom  37H    basis set group =>   4
Atom  38H    basis set group =>   4
-------------------------
ECP PARAMETER INFORMATION
-------------------------

 Group 1, Type Ir ECP Def2-ECP (replacing 60 core electrons, lmax=3)

Atom   0Ir   ECP group =>   1

------------------------------------------------------------------------------
                           ORCA GTO INTEGRAL CALCULATION
                           -- RI-GTO INTEGRALS CHOSEN --
------------------------------------------------------------------------------
------------------------------------------------------------------------------
                   ___                                                        
                  /   \      - P O W E R E D   B Y -                         
                 /     \                                                     
                 |  |  |   _    _      __       _____    __    __             
                 |  |  |  | |  | |    /  \     |  _  \  |  |  /  |          
                  \  \/   | |  | |   /    \    | | | |  |  | /  /          
                 / \  \   | |__| |  /  /\  \   | |_| |  |  |/  /          
                |  |  |   |  __  | /  /__\  \  |    /   |      \           
                |  |  |   | |  | | |   __   |  |    \   |  |\   \          
                \     /   | |  | | |  |  |  |  | |\  \  |  | \   \       
                 \___/    |_|  |_| |__|  |__|  |_| \__\ |__|  \__/        
                                                                              
                      - O R C A' S   B I G   F R I E N D -                    
                                      &                                       
                       - I N T E G R A L  F E E D E R -                       
                                                                              
 v1 FN, 2020, v2 2021                                                         
------------------------------------------------------------------------------


Reading SHARK input file 3_2_orca.SHARKINP.tmp ... ok
----------------------
SHARK INTEGRAL PACKAGE
----------------------

Number of atoms                             ...     39
Number of basis functions                   ...    358
Number of shells                            ...    184
Maximum angular momentum                    ...      3
Integral batch strategy                     ... SHARK/LIBINT Hybrid
RI-J (if used) integral strategy            ... SPLIT-RIJ (Revised 2003 algorithm where possible)
Printlevel                                  ...      1
Contraction scheme used                     ... SEGMENTED contraction
Coulomb Range Separation                    ... NOT USED
Exchange Range Separation                   ... NOT USED
Finite Nucleus Model                        ... NOT USED
Auxiliary Coulomb fitting basis             ... AVAILABLE
   # of basis functions in Aux-J            ...   1231
   # of shells in Aux-J                     ...    405
   Maximum angular momentum in Aux-J        ...      4
Auxiliary J/K fitting basis                 ... NOT available
Auxiliary Correlation fitting basis         ... NOT available
Auxiliary 'external' fitting basis          ... NOT available
Integral threshold                          ...     2.500000e-11
Primitive cut-off                           ...     2.500000e-12
Primitive pair pre-selection threshold      ...     2.500000e-12

Calculating pre-screening integrals         ... done (  0.1 sec) Dimension = 184
Organizing shell pair data                  ... done (  0.1 sec)
Shell pair information
Total number of shell pairs                 ...     17020
Shell pairs after pre-screening             ...     12602
Total number of primitive shell pairs       ...     60705
Primitive shell pairs kept                  ...     28139
          la=0 lb=0:   4804 shell pairs
          la=1 lb=0:   4173 shell pairs
          la=1 lb=1:    848 shell pairs
          la=2 lb=0:   1671 shell pairs
          la=2 lb=1:    768 shell pairs
          la=2 lb=2:    167 shell pairs
          la=3 lb=0:    108 shell pairs
          la=3 lb=1:     41 shell pairs
          la=3 lb=2:     21 shell pairs
          la=3 lb=3:      1 shell pairs

Calculating one electron integrals          ... done (  0.1 sec)
Calculating ECP integrals                   ... done (  0.7 sec)
Calculating RI/J V-Matrix + Cholesky decomp.... done (  0.1 sec)
Calculating Nuclear repulsion               ... done (  0.0 sec) ENN=   1979.236470406766 Eh

SHARK setup successfully completed in   1.6 seconds

Maximum memory used throughout the entire GTOINT-calculation: 87.4 MB
-------------------------------------------------------------------------------
                                 ORCA SCF
-------------------------------------------------------------------------------

------------
SCF SETTINGS
------------
Hamiltonian:
 Density Functional     Method          .... DFT(GTOs)
 Exchange Functional    Exchange        .... PBE
   PBE kappa parameter   XKappa         ....  1.024500
   PBE mue parameter    XMuePBE         ....  0.123457
 Correlation Functional Correlation     .... PBE
   PBE beta parameter  CBetaPBE         ....  0.030000
 LDA part of GGA corr.  LDAOpt          .... PW91-LDA
 Gradients option       PostSCFGGA      .... off
 Hybrid DFT is turned on
   Fraction HF Exchange ScalHFX         ....  0.420000
   Scaling of DF-GGA-X  ScalDFX         ....  0.580000
   Scaling of DF-GGA-C  ScalDFC         ....  1.000000
   Scaling of DF-LDA-C  ScalLDAC        ....  1.000000
   Perturbative correction              ....  0.000000
   Density functional embedding theory  .... OFF
 RI-approximation to the Coulomb term is turned on
   Number of AuxJ basis functions       .... 1231
   RIJ-ON(X) (HFX calculated with O(N)) .... on
   Number of AuxJ basis functions       .... 1231
   RIJ-COSX (HFX calculated with COS-X)).... on


General Settings:
 Integral files         IntName         .... 3_2_orca
 Hartree-Fock type      HFTyp           .... RHF
 Total Charge           Charge          ....    1
 Multiplicity           Mult            ....    1
 Number of Electrons    NEL             ....  164
 Basis Dimension        Dim             ....  358
 Nuclear Repulsion      ENuc            ....   1979.2364704068 Eh

Convergence Acceleration:
 DIIS                   CNVDIIS         .... on
   Start iteration      DIISMaxIt       ....    12
   Startup error        DIISStart       ....  0.200000
   # of expansion vecs  DIISMaxEq       ....     5
   Bias factor          DIISBfac        ....   1.050
   Max. coefficient     DIISMaxC        ....  10.000
 Trust-Rad. Augm. Hess. CNVTRAH         .... auto
   Auto Start mean grad. ratio tolernc. ....  1.125000
   Auto Start start iteration           ....    20
   Auto Start num. interpolation iter.  ....    10
   Max. Number of Micro iterations      ....    16
   Max. Number of Macro iterations      .... Maxiter - #DIIS iter
   Number of Davidson start vectors     ....     2
   Converg. threshold I  (grad. norm)   ....   1.000e-05
   Converg. threshold II (energy diff.) ....   1.000e-08
   Grad. Scal. Fac. for Micro threshold ....   0.100
   Minimum threshold for Micro iter.    ....   0.010
   NR start threshold (gradient norm)   ....   0.001
   Initial trust radius                 ....   0.400
   Minimum AH scaling param. (alpha)    ....   1.000
   Maximum AH scaling param. (alpha)    .... 1000.000
   Orbital update algorithm             .... Taylor
   White noise on init. David. guess    .... on
   Maximum white noise                  ....   0.010
   Quad. conv. algorithm                .... NR
   COSX micro iterations for RIJONX calc.... off
 SOSCF                  CNVSOSCF        .... off
 Level Shifting         CNVShift        .... on
   Level shift para.    LevelShift      ....    0.2500
   Turn off err/grad.   ShiftErr        ....    0.0010
 Zerner damping         CNVZerner       .... off
 Static damping         CNVDamp         .... on
   Fraction old density DampFac         ....    0.7000
   Max. Damping (<1)    DampMax         ....    0.9800
   Min. Damping (>=0)   DampMin         ....    0.0000
   Turn off err/grad.   DampErr         ....    0.1000
 Fernandez-Rico         CNVRico         .... off

SCF Procedure:
 Maximum # iterations   MaxIter         ....   250
 SCF integral mode      SCFMode         .... Direct
   Integral package                     .... SHARK and LIBINT hybrid scheme
 Reset frequency        DirectResetFreq ....    20
 Integral Threshold     Thresh          ....  2.500e-11 Eh
 Primitive CutOff       TCut            ....  2.500e-12 Eh

Convergence Tolerance:
 Convergence Check Mode ConvCheckMode   .... Total+1el-Energy
 Convergence forced     ConvForced      .... 0
 Energy Change          TolE            ....  1.000e-08 Eh
 1-El. energy change                    ....  1.000e-05 Eh
 DIIS Error             TolErr          ....  5.000e-07


Diagonalization of the overlap matrix:
Smallest eigenvalue                        ... 1.295e-03
Time for diagonalization                   ...    0.018 sec
Threshold for overlap eigenvalues          ... 1.000e-08
Number of eigenvalues below threshold      ... 0
Time for construction of square roots      ...    0.007 sec
Total time needed                          ...    0.025 sec

--------------------
INITIAL GUESS: HCORE
--------------------
                      -----------------
                      INTIAL GUESS DONE 
                      -----------------
-------------------
DFT GRID GENERATION
-------------------

General Integration Accuracy     IntAcc      ... 4.159
Radial Grid Type                 RadialGrid  ... OptM3 with GC (2021)
Angular Grid (max. ang.)         AngularGrid ... 3 (Lebedev-194)
Angular grid pruning method      GridPruning ... 4 (adaptive)
Weight generation scheme         WeightScheme... Becke
Basis function cutoff            BFCut       ... 1.0000e-11
Integration weight cutoff        WCut        ... 1.0000e-14
Angular grids for H and He will be reduced by one unit
Partially contracted basis set               ... off
Rotationally invariant grid construction     ... off

Total number of grid points                  ...    93640
Total number of batches                      ...     1483
Average number of points per batch           ...       63
Average number of grid points per atom       ...     2401
Time for grid setup =    1.738 sec

--------------------
COSX GRID GENERATION
--------------------

GRIDX 1
-------
General Integration Accuracy     IntAcc      ... 3.816
Radial Grid Type                 RadialGrid  ... OptM3 with GC (2021)
Angular Grid (max. ang.)         AngularGrid ... 1 (Lebedev-50)
Angular grid pruning method      GridPruning ... 4 (adaptive)
Weight generation scheme         WeightScheme... Becke
Basis function cutoff            BFCut       ... 1.0000e-11
Integration weight cutoff        WCut        ... 1.0000e-14
Angular grids for H and He will be reduced by one unit
Partially contracted basis set               ... on
Rotationally invariant grid construction     ... off

Total number of grid points                  ...    23236
Total number of batches                      ...      383
Average number of points per batch           ...       60
Average number of grid points per atom       ...      596
UseSFitting                                  ... on

GRIDX 2
-------
General Integration Accuracy     IntAcc      ... 4.020
Radial Grid Type                 RadialGrid  ... OptM3 with GC (2021)
Angular Grid (max. ang.)         AngularGrid ... 2 (Lebedev-110)
Angular grid pruning method      GridPruning ... 4 (adaptive)
Weight generation scheme         WeightScheme... Becke
Basis function cutoff            BFCut       ... 1.0000e-11
Integration weight cutoff        WCut        ... 1.0000e-14
Angular grids for H and He will be reduced by one unit
Partially contracted basis set               ... on
Rotationally invariant grid construction     ... off

Total number of grid points                  ...    50576
Total number of batches                      ...      811
Average number of points per batch           ...       62
Average number of grid points per atom       ...     1297
UseSFitting                                  ... on

GRIDX 3
-------
General Integration Accuracy     IntAcc      ... 4.338
Radial Grid Type                 RadialGrid  ... OptM3 with GC (2021)
Angular Grid (max. ang.)         AngularGrid ... 3 (Lebedev-194)
Angular grid pruning method      GridPruning ... 4 (adaptive)
Weight generation scheme         WeightScheme... Becke
Basis function cutoff            BFCut       ... 1.0000e-11
Integration weight cutoff        WCut        ... 1.0000e-14
Angular grids for H and He will be reduced by one unit
Partially contracted basis set               ... on
Rotationally invariant grid construction     ... off

Total number of grid points                  ...   109423
Total number of batches                      ...     1729
Average number of points per batch           ...       63
Average number of grid points per atom       ...     2806
UseSFitting                                  ... on

Time for X-Grid setup             =    4.698 sec

--------------
SCF ITERATIONS
--------------
ITER       Energy         Delta-E        Max-DP      RMS-DP      [F,P]     Damp
               ***  Starting incremental Fock matrix formation  ***
  0   -874.8887134312   0.00000000000011.95965201  0.14874729  3.0971261 0.7000
  1  -1106.9382724959-232.04955906469211.30734016  0.12679415  1.5001520 0.7000
  2  -1171.6834562660 -64.745183770126 6.97939103  0.06962703  0.9700697 0.7000
  3  -1199.5537979581 -27.870341692088 3.40538945  0.04385102  0.6849621 0.7000
  4  -1213.2673821547 -13.713584196606 2.73502613  0.04057159  0.4542868 0.7000
  5  -1229.1762645524 -15.908882397721 2.10812038  0.03186055  0.3211713 0.7000
  6  -1237.4278697480  -8.251605195542 2.29675341  0.03168597  0.2465363 0.7000
  7  -1244.0864394002  -6.658569652206 2.16654827  0.02720088  0.2573073 0.7000
  8  -1246.1175807070  -2.031141306844 1.72490836  0.02613753  0.3155649 0.7000
  9  -1251.4019099630  -5.284329255950 2.02597743  0.02688926  0.2758972 0.7000
 10  -1252.4257195549  -1.023809591887 1.65030659  0.02652181  0.3155059 0.7000
 11  -1255.0897312602  -2.664011705317 1.90702049  0.02596988  0.2909802 0.7000
                               ***Turning on DIIS***
 12  -1254.9170850080   0.172646252209 1.65556934  0.02578071  0.3325994 0.7000
 13  -1256.9059679658  -1.988882957837 1.74739290  0.02181606  0.2944648 0.7000
 14  -1267.7946254257 -10.888657459924 1.25130387  0.01554516  0.1692834 0.7000
 15  -1273.9258031927  -6.131177766998 2.91136118  0.03673775  0.0891139 0.0000
 16  -1285.6895727019 -11.763769509208 0.03365525  0.00065453  0.2705718 0.7000
 17  -1285.8836613735  -0.194088671532 0.03258912  0.00097934  0.2645562 0.7000
 18  -1286.2582914518  -0.374630078329 0.03978031  0.00112058  0.2407434 0.7000
 19  -1286.6443434641  -0.386052012318 0.07079059  0.00132974  0.2114987 0.7000
               *** Restarting incremental Fock matrix formation ***
                                   *** Resetting DIIS ***

 WARNING: the maximum gradient error descreased on average only by a factor   1.0
          during the last 20 iterations

                      *** Initiating the TRAH-SCF procedure ***


TRAH GRIDX
----------

General Integration Accuracy     IntAcc      ... 3.067
Radial Grid Type                 RadialGrid  ... OptM3 with GC (2021)
Angular Grid (max. ang.)         AngularGrid ... 1 (Lebedev-50)
Angular grid pruning method      GridPruning ... 4 (adaptive)
Weight generation scheme         WeightScheme... Becke
Basis function cutoff            BFCut       ... 1.0000e-11
Integration weight cutoff        WCut        ... 1.0000e-14
Angular grids for H and He will be reduced by one unit
Partially contracted basis set               ... on
Rotationally invariant grid construction     ... off

Total number of grid points                  ...    12532
Total number of batches                      ...      218
Average number of points per batch           ...       57
Average number of grid points per atom       ...      321


TRAH GRID
---------

General Integration Accuracy     IntAcc      ... 3.467
Radial Grid Type                 RadialGrid  ... OptM3 with GC (2021)
Angular Grid (max. ang.)         AngularGrid ... 1 (Lebedev-50)
Angular grid pruning method      GridPruning ... 4 (adaptive)
Weight generation scheme         WeightScheme... Becke
Basis function cutoff            BFCut       ... 1.0000e-11
Integration weight cutoff        WCut        ... 1.0000e-14
Angular grids for H and He will be reduced by one unit
Partially contracted basis set               ... off
Rotationally invariant grid construction     ... off

Total number of grid points                  ...    29313
Total number of batches                      ...      475
Average number of points per batch           ...       61
Average number of grid points per atom       ...      752

 --------------------------------------------------------------------------------------------
   Iter.        energy            ||Error||_2        Shift      TRadius  Mac/Mic        Rej.
 --------------------------------------------------------------------------------------------
WARNING: 16 diagonal Hessian elements are negative!
    0      -1287.861455725472     1.720055e+00                     0.400 (TRAH MAcro)   No
WARNING : negative HOMO - LUMO gap : -0.215339
    0     dE    -1.812818e-01     2.217972e+00    -3.4823e-01      0.203 (TRAH MIcro)
    0     dE    -3.439072e-01     1.037707e+00    -1.1770e+00      0.400 (TRAH MIcro)
    0     dE    -3.619894e-01     3.532302e-01    -1.8144e+00      0.378 (TRAH MIcro)
    0     dE    -3.820946e-01     6.886169e-02    -1.8435e+00      0.398 (TRAH MIcro)
    0     dE    -3.835390e-01     1.765181e-02    -1.8452e+00      0.399 (TRAH MIcro)
    0     dE    -3.836822e-01     4.427461e-03    -1.8453e+00      0.400 (TRAH MIcro)
    1      -1288.207015717528     5.025138e-01                     0.480 (TRAH MAcro)   No
    1     dE    -5.419781e-02     9.618300e-01    -1.0394e-01      0.207 (TRAH MIcro)
    1     dE    -1.187992e-01     6.286646e-01    -1.9474e-01      0.469 (TRAH MIcro)
    1     dE    -1.414910e-01     1.630398e-01    -4.2750e-01      0.480 (TRAH MIcro)
    1     dE    -1.428566e-01     4.598452e-02    -4.4588e-01      0.480 (TRAH MIcro)
    1     dE    -1.430247e-01     1.861767e-02    -4.4696e-01      0.480 (TRAH MIcro)
    1     dE    -1.430473e-01     6.632302e-03    -4.4633e-01      0.480 (TRAH MIcro)
    2      -1288.334219212262     1.648551e-01                     0.576 (TRAH MAcro)   No
    2     dE    -4.275058e-03     9.598387e-01    -8.5272e-03      0.052 (TRAH MIcro)
    2     dE    -1.446060e-02     3.216810e-01    -2.7843e-02      0.197 (TRAH MIcro)
    2     dE    -1.644396e-02     6.043327e-02    -3.1306e-02      0.225 (TRAH MIcro)
    2     dE    -1.684003e-02     6.889536e-02    -3.1933e-02      0.234 (TRAH MIcro)
    2     dE    -1.696371e-02     3.981523e-02    -3.2109e-02      0.238 (TRAH MIcro)
    2     dE    -1.702101e-02     1.029292e-02    -3.2180e-02      0.241 (TRAH MIcro)
    2     dE    -1.703534e-02     9.794044e-03    -3.2196e-02      0.241 (TRAH MIcro)
    3      -1288.351409788635     6.477236e-02                     0.691 (TRAH MAcro)   No
    3     dE    -6.254690e-05     3.612198e-01    -1.2509e-04      0.002 (TRAH MIcro)
    3     dE    -4.235570e-04     6.032777e-02    -8.4684e-04      0.018 (TRAH MIcro)
    3     dE    -4.848563e-04     3.052391e-02    -9.6914e-04      0.024 (TRAH MIcro)
    3     dE    -5.088349e-04     6.537994e-03    -1.0168e-03      0.029 (TRAH MIcro)
    3     dE    -5.119314e-04     3.075668e-03    -1.0230e-03      0.030 (TRAH MIcro)
    4      -1288.351933601227     3.541386e-03                     0.829 (TRAH MAcro)   No
    4     dE    -5.928702e-08     1.017597e-02    -1.1860e-07      0.000 (TRAH MIcro)
    4     dE    -1.711504e-06     4.004492e-03    -3.4230e-06      0.001 (TRAH MIcro)
    4     dE    -2.687206e-06     2.545929e-03    -5.3744e-06      0.003 (TRAH MIcro)
    4     dE    -2.978404e-06     7.308884e-04    -5.9567e-06      0.004 (TRAH MIcro)
    4     dE    -3.033746e-06     4.401945e-04    -6.0674e-06      0.004 (TRAH MIcro)
    4     dE    -3.059790e-06     2.618547e-04    -6.1195e-06      0.004 (TRAH MIcro)
    5      -1288.351936611040     2.603065e-04                           (NR   MAcro)
    5     dE    -3.043900e-09     1.034894e-04                           (NR   MIcro)
    5     dE    -3.900533e-09     5.527484e-05                           (NR   MIcro)
    5     dE    -4.190195e-09     3.952473e-05                           (NR   MIcro)
    5     dE    -4.257698e-09     1.770177e-05                           (NR   MIcro)
    5     dE    -4.276602e-09     7.666870e-06                           (NR   MIcro)
    5     dE    -4.283664e-09     5.453609e-06                           (NR   MIcro)
    5     dE    -4.286188e-09     2.315791e-06                           (NR   MIcro)
    5     dE    -4.286390e-09     7.642650e-07                           (NR   MIcro)
    6      -1288.351936614250     8.203869e-07                           (NR   MAcro)

               *****************************************************
               *                     SUCCESS                       *
               *           SCF CONVERGED AFTER  65 CYCLES          *
               *****************************************************

Old exchange energy                            =    -59.607339988 Eh
New exchange energy                            =    -59.607248597 Eh
Exchange energy change after final integration =      0.000091391 Eh
Total energy after final integration           =  -1288.351845223 Eh
Final COS-X integration done in                =    57.212 sec

----------------
TOTAL SCF ENERGY
----------------

Total Energy       :        -1288.35184522 Eh          -35057.83601 eV

Components:
Nuclear Repulsion  :         1979.23647041 Eh           53857.76244 eV
Electronic Energy  :        -3267.58831563 Eh          -88915.59845 eV
One Electron Energy:        -5715.05243034 Eh         -155514.48283 eV
Two Electron Energy:         2447.46411471 Eh           66598.88438 eV
Max COSX asymmetry :            0.00001273 Eh               0.00035 eV

Virial components:
Potential Energy   :        -2501.19106802 Eh          -68060.86911 eV
Kinetic Energy     :         1212.83922280 Eh           33003.03309 eV
Virial Ratio       :            2.06226103


DFT components:
N(Alpha)           :       82.000011846304 electrons
N(Beta)            :       82.000011846304 electrons
N(Total)           :      164.000023692607 electrons
E(X)               :      -79.535251747583 Eh       
E(C)               :       -7.435356242400 Eh       
E(XC)              :      -86.970607989983 Eh       
DFET-embed. en.    :        0.000000000000 Eh       

---------------
SCF CONVERGENCE
---------------

  Last Energy change         ...   -3.2101e-09  Tolerance :   1.0000e-08
  Last Orbital Gradient      ...    8.2039e-07  Tolerance :   1.0000e-05
  Last Orbital Rotation      ...    9.3742e-05

             **** THE GBW FILE WAS UPDATED (3_2_orca.gbw) ****
             **** DENSITY 3_2_orca.scfp WAS UPDATED ****
             **** ENERGY FILE WAS UPDATED (3_2_orca.en.tmp) ****
             **** THE GBW FILE WAS UPDATED (3_2_orca.gbw) ****
             **** DENSITY 3_2_orca.scfp WAS UPDATED ****
----------------
ORBITAL ENERGIES
----------------

  NO   OCC          E(Eh)            E(eV) 
   0   2.0000     -89.760855     -2442.5170 
   1   2.0000     -19.603076      -533.4268 
   2   2.0000     -19.578306      -532.7528 
   3   2.0000     -14.832958      -403.6253 
   4   2.0000     -10.667539      -290.2785 
   5   2.0000     -10.654151      -289.9142 
   6   2.0000     -10.643091      -289.6132 
   7   2.0000     -10.640591      -289.5452 
   8   2.0000     -10.636487      -289.4335 
   9   2.0000     -10.625753      -289.1414 
  10   2.0000     -10.618329      -288.9394 
  11   2.0000     -10.616085      -288.8783 
  12   2.0000     -10.609007      -288.6858 
  13   2.0000     -10.606243      -288.6105 
  14   2.0000     -10.592670      -288.2412 
  15   2.0000     -10.581373      -287.9338 
  16   2.0000     -10.548588      -287.0417 
  17   2.0000     -10.534389      -286.6553 
  18   2.0000     -10.528108      -286.4844 
  19   2.0000      -8.400105      -228.5785 
  20   2.0000      -6.289917      -171.1574 
  21   2.0000      -6.286467      -171.0635 
  22   2.0000      -6.285139      -171.0273 
  23   2.0000      -4.028501      -109.6211 
  24   2.0000      -2.348356       -63.9020 
  25   2.0000      -2.311268       -62.8928 
  26   2.0000      -2.310344       -62.8677 
  27   2.0000      -1.300454       -35.3872 
  28   2.0000      -1.196813       -32.5669 
  29   2.0000      -1.184395       -32.2290 
  30   2.0000      -1.173917       -31.9439 
  31   2.0000      -1.120775       -30.4979 
  32   2.0000      -1.014552       -27.6074 
  33   2.0000      -0.981923       -26.7195 
  34   2.0000      -0.979288       -26.6478 
  35   2.0000      -0.965619       -26.2758 
  36   2.0000      -0.948916       -25.8213 
  37   2.0000      -0.916533       -24.9401 
  38   2.0000      -0.889971       -24.2173 
  39   2.0000      -0.866460       -23.5776 
  40   2.0000      -0.794438       -21.6178 
  41   2.0000      -0.785389       -21.3715 
  42   2.0000      -0.784379       -21.3440 
  43   2.0000      -0.775864       -21.1123 
  44   2.0000      -0.770813       -20.9749 
  45   2.0000      -0.731528       -19.9059 
  46   2.0000      -0.726794       -19.7771 
  47   2.0000      -0.700084       -19.0502 
  48   2.0000      -0.681698       -18.5499 
  49   2.0000      -0.662693       -18.0328 
  50   2.0000      -0.655732       -17.8434 
  51   2.0000      -0.646711       -17.5979 
  52   2.0000      -0.641833       -17.4652 
  53   2.0000      -0.636644       -17.3240 
  54   2.0000      -0.632567       -17.2130 
  55   2.0000      -0.627117       -17.0647 
  56   2.0000      -0.616198       -16.7676 
  57   2.0000      -0.607027       -16.5180 
  58   2.0000      -0.606920       -16.5151 
  59   2.0000      -0.604636       -16.4530 
  60   2.0000      -0.591808       -16.1039 
  61   2.0000      -0.584124       -15.8948 
  62   2.0000      -0.567397       -15.4396 
  63   2.0000      -0.557493       -15.1702 
  64   2.0000      -0.554746       -15.0954 
  65   2.0000      -0.544936       -14.8285 
  66   2.0000      -0.541390       -14.7320 
  67   2.0000      -0.537987       -14.6394 
  68   2.0000      -0.529969       -14.4212 
  69   2.0000      -0.519253       -14.1296 
  70   2.0000      -0.510760       -13.8985 
  71   2.0000      -0.509826       -13.8731 
  72   2.0000      -0.503335       -13.6964 
  73   2.0000      -0.499760       -13.5992 
  74   2.0000      -0.477449       -12.9921 
  75   2.0000      -0.469935       -12.7876 
  76   2.0000      -0.454906       -12.3786 
  77   2.0000      -0.441721       -12.0198 
  78   2.0000      -0.426036       -11.5930 
  79   2.0000      -0.419824       -11.4240 
  80   2.0000      -0.414348       -11.2750 
  81   2.0000      -0.396683       -10.7943 
  82   0.0000      -0.226001        -6.1498 
  83   0.0000      -0.185744        -5.0544 
  84   0.0000      -0.147326        -4.0089 
  85   0.0000      -0.082451        -2.2436 
  86   0.0000      -0.077598        -2.1115 
  87   0.0000      -0.073286        -1.9942 
  88   0.0000      -0.067877        -1.8470 
  89   0.0000      -0.050291        -1.3685 
  90   0.0000      -0.037654        -1.0246 
  91   0.0000      -0.036460        -0.9921 
  92   0.0000      -0.001178        -0.0320 
  93   0.0000       0.005125         0.1395 
  94   0.0000       0.009765         0.2657 
  95   0.0000       0.018558         0.5050 
  96   0.0000       0.028252         0.7688 
  97   0.0000       0.040098         1.0911 
  98   0.0000       0.055283         1.5043 
  99   0.0000       0.066814         1.8181 
 100   0.0000       0.071204         1.9376 
 101   0.0000       0.075669         2.0591 
 102   0.0000       0.079847         2.1727 
 103   0.0000       0.084094         2.2883 
 104   0.0000       0.086525         2.3545 
 105   0.0000       0.088494         2.4080 
 106   0.0000       0.095025         2.5858 
 107   0.0000       0.101730         2.7682 
 108   0.0000       0.102708         2.7948 
 109   0.0000       0.111432         3.0322 
 110   0.0000       0.118114         3.2141 
 111   0.0000       0.121946         3.3183 
 112   0.0000       0.125419         3.4128 
 113   0.0000       0.130514         3.5515 
 114   0.0000       0.133087         3.6215 
 115   0.0000       0.135386         3.6840 
 116   0.0000       0.143805         3.9131 
 117   0.0000       0.145265         3.9529 
 118   0.0000       0.158767         4.3203 
 119   0.0000       0.161123         4.3844 
 120   0.0000       0.168900         4.5960 
 121   0.0000       0.177477         4.8294 
 122   0.0000       0.190911         5.1950 
 123   0.0000       0.192517         5.2386 
 124   0.0000       0.199548         5.4300 
 125   0.0000       0.222800         6.0627 
 126   0.0000       0.244148         6.6436 
 127   0.0000       0.250049         6.8042 
 128   0.0000       0.277477         7.5505 
 129   0.0000       0.302487         8.2311 
 130   0.0000       0.314649         8.5620 
 131   0.0000       0.321637         8.7522 
 132   0.0000       0.328728         8.9451 
 133   0.0000       0.342915         9.3312 
 134   0.0000       0.349765         9.5176 
 135   0.0000       0.357914         9.7393 
 136   0.0000       0.371416        10.1067 
 137   0.0000       0.382421        10.4062 
 138   0.0000       0.387914        10.5557 
 139   0.0000       0.401435        10.9236 
 140   0.0000       0.414248        11.2722 
 141   0.0000       0.421083        11.4582 
 142   0.0000       0.428030        11.6473 
 143   0.0000       0.434120        11.8130 
 144   0.0000       0.445656        12.1269 
 145   0.0000       0.454102        12.3568 
 146   0.0000       0.458399        12.4737 
 147   0.0000       0.469196        12.7675 
 148   0.0000       0.470002        12.7894 
 149   0.0000       0.474576        12.9139 
 150   0.0000       0.490910        13.3583 
 151   0.0000       0.495836        13.4924 
 152   0.0000       0.503903        13.7119 
 153   0.0000       0.508682        13.8419 
 154   0.0000       0.518359        14.1053 
 155   0.0000       0.521676        14.1955 
 156   0.0000       0.533907        14.5284 
 157   0.0000       0.535140        14.5619 
 158   0.0000       0.547521        14.8988 
 159   0.0000       0.550287        14.9741 
 160   0.0000       0.559798        15.2329 
 161   0.0000       0.564730        15.3671 
 162   0.0000       0.580618        15.7994 
 163   0.0000       0.587852        15.9963 
 164   0.0000       0.593149        16.1404 
 165   0.0000       0.606066        16.4919 
 166   0.0000       0.614913        16.7326 
 167   0.0000       0.621231        16.9045 
 168   0.0000       0.629634        17.1332 
 169   0.0000       0.632753        17.2181 
 170   0.0000       0.645285        17.5591 
 171   0.0000       0.648788        17.6544 
 172   0.0000       0.669528        18.2188 
 173   0.0000       0.683494        18.5988 
 174   0.0000       0.699941        19.0464 
 175   0.0000       0.706572        19.2268 
 176   0.0000       0.714625        19.4459 
 177   0.0000       0.720452        19.6045 
 178   0.0000       0.725509        19.7421 
 179   0.0000       0.731735        19.9115 
 180   0.0000       0.735424        20.0119 
 181   0.0000       0.741814        20.1858 
 182   0.0000       0.759035        20.6544 
 183   0.0000       0.763661        20.7803 
 184   0.0000       0.778598        21.1867 
 185   0.0000       0.788424        21.4541 
 186   0.0000       0.798717        21.7342 
 187   0.0000       0.801221        21.8023 
 188   0.0000       0.822415        22.3791 
 189   0.0000       0.837834        22.7986 
 190   0.0000       0.842973        22.9385 
 191   0.0000       0.854295        23.2465 
 192   0.0000       0.859778        23.3957 
 193   0.0000       0.864550        23.5256 
 194   0.0000       0.870692        23.6927 
 195   0.0000       0.888592        24.1798 
 196   0.0000       0.895423        24.3657 
 197   0.0000       0.897690        24.4274 
 198   0.0000       0.902838        24.5675 
 199   0.0000       0.910480        24.7754 
 200   0.0000       0.925884        25.1946 
 201   0.0000       0.933047        25.3895 
 202   0.0000       0.938080        25.5265 
 203   0.0000       0.942288        25.6410 
 204   0.0000       0.945268        25.7220 
 205   0.0000       0.952350        25.9147 
 206   0.0000       0.961877        26.1740 
 207   0.0000       0.963403        26.2155 
 208   0.0000       0.977652        26.6033 
 209   0.0000       0.984862        26.7995 
 210   0.0000       0.984995        26.8031 
 211   0.0000       0.992079        26.9958 
 212   0.0000       0.996590        27.1186 
 213   0.0000       1.016362        27.6566 
 214   0.0000       1.036764        28.2118 
 215   0.0000       1.040331        28.3088 
 216   0.0000       1.053297        28.6617 
 217   0.0000       1.064242        28.9595 
 218   0.0000       1.077863        29.3301 
 219   0.0000       1.089067        29.6350 
 220   0.0000       1.095490        29.8098 
 221   0.0000       1.107445        30.1351 
 222   0.0000       1.130479        30.7619 
 223   0.0000       1.134796        30.8794 
 224   0.0000       1.157569        31.4990 
 225   0.0000       1.168032        31.7838 
 226   0.0000       1.171900        31.8890 
 227   0.0000       1.194485        32.5036 
 228   0.0000       1.203412        32.7465 
 229   0.0000       1.215236        33.0682 
 230   0.0000       1.228404        33.4266 
 231   0.0000       1.231787        33.5186 
 232   0.0000       1.255433        34.1621 
 233   0.0000       1.272821        34.6352 
 234   0.0000       1.274968        34.6937 
 235   0.0000       1.284390        34.9500 
 236   0.0000       1.293158        35.1886 
 237   0.0000       1.319687        35.9105 
 238   0.0000       1.332395        36.2563 
 239   0.0000       1.339992        36.4630 
 240   0.0000       1.360945        37.0332 
 241   0.0000       1.365221        37.1496 
 242   0.0000       1.397919        38.0393 
 243   0.0000       1.405189        38.2371 
 244   0.0000       1.416771        38.5523 
 245   0.0000       1.420834        38.6629 
 246   0.0000       1.460647        39.7462 
 247   0.0000       1.479211        40.2514 
 248   0.0000       1.491577        40.5879 
 249   0.0000       1.494182        40.6587 
 250   0.0000       1.507038        41.0086 
 251   0.0000       1.531888        41.6848 
 252   0.0000       1.563103        42.5342 
 253   0.0000       1.606976        43.7280 
 254   0.0000       1.612795        43.8864 
 255   0.0000       1.646141        44.7938 
 256   0.0000       1.663879        45.2765 
 257   0.0000       1.675850        45.6022 
 258   0.0000       1.697987        46.2046 
 259   0.0000       1.703040        46.3421 
 260   0.0000       1.723116        46.8884 
 261   0.0000       1.728855        47.0445 
 262   0.0000       1.738364        47.3033 
 263   0.0000       1.754440        47.7407 
 264   0.0000       1.764960        48.0270 
 265   0.0000       1.776314        48.3360 
 266   0.0000       1.788450        48.6662 
 267   0.0000       1.825586        49.6767 
 268   0.0000       1.837284        49.9950 
 269   0.0000       1.850143        50.3450 
 270   0.0000       1.865696        50.7682 
 271   0.0000       1.876627        51.0656 
 272   0.0000       1.886045        51.3219 
 273   0.0000       1.891809        51.4787 
 274   0.0000       1.907959        51.9182 
 275   0.0000       1.926745        52.4294 
 276   0.0000       1.932902        52.5969 
 277   0.0000       1.950714        53.0816 
 278   0.0000       1.956458        53.2379 
 279   0.0000       1.971426        53.6452 
 280   0.0000       1.978206        53.8297 
 281   0.0000       1.992625        54.2221 
 282   0.0000       1.999004        54.3957 
 283   0.0000       2.004385        54.5421 
 284   0.0000       2.018677        54.9310 
 285   0.0000       2.040819        55.5335 
 286   0.0000       2.060651        56.0732 
 287   0.0000       2.067538        56.2606 
 288   0.0000       2.072650        56.3997 
 289   0.0000       2.078070        56.5472 
 290   0.0000       2.095858        57.0312 
 291   0.0000       2.113525        57.5119 
 292   0.0000       2.125510        57.8381 
 293   0.0000       2.156516        58.6818 
 294   0.0000       2.172673        59.1214 
 295   0.0000       2.177604        59.2556 
 296   0.0000       2.197061        59.7851 
 297   0.0000       2.212172        60.1963 
 298   0.0000       2.214708        60.2653 
 299   0.0000       2.216194        60.3057 
 300   0.0000       2.233735        60.7830 
 301   0.0000       2.235831        60.8401 
 302   0.0000       2.247796        61.1656 
 303   0.0000       2.269645        61.7602 
 304   0.0000       2.280669        62.0602 
 305   0.0000       2.318302        63.0842 
 306   0.0000       2.331775        63.4508 
 307   0.0000       2.351828        63.9965 
 308   0.0000       2.370075        64.4930 
 309   0.0000       2.382428        64.8292 
 310   0.0000       2.401690        65.3533 
 311   0.0000       2.420980        65.8782 
 312   0.0000       2.441416        66.4343 
 313   0.0000       2.441727        66.4428 
 314   0.0000       2.458875        66.9094 
 315   0.0000       2.466931        67.1286 
 316   0.0000       2.498894        67.9984 
 317   0.0000       2.514473        68.4223 
 318   0.0000       2.547760        69.3281 
 319   0.0000       2.558192        69.6120 
 320   0.0000       2.574972        70.0685 
 321   0.0000       2.585230        70.3477 
 322   0.0000       2.601023        70.7774 
 323   0.0000       2.646015        72.0017 
 324   0.0000       2.652936        72.1901 
 325   0.0000       2.696325        73.3707 
 326   0.0000       2.739909        74.5567 
 327   0.0000       2.784968        75.7828 
 328   0.0000       2.797820        76.1325 
 329   0.0000       2.823820        76.8401 
 330   0.0000       2.828743        76.9740 
 331   0.0000       2.854309        77.6697 
 332   0.0000       2.867340        78.0243 
 333   0.0000       2.904640        79.0393 
 334   0.0000       2.934704        79.8574 
 335   0.0000       3.001476        81.6743 
 336   0.0000       3.077544        83.7442 
 337   0.0000       3.112641        84.6993 
 338   0.0000      13.297759       361.8504 
 339   0.0000      13.418083       365.1246 
 340   0.0000      13.482401       366.8748 
 341   0.0000      13.530248       368.1768 
 342   0.0000      13.599625       370.0646 
 343   0.0000      13.766135       374.5956 
 344   0.0000      13.780238       374.9793 
 345   0.0000      13.834207       376.4479 
 346   0.0000      13.853413       376.9705 
 347   0.0000      13.940409       379.3378 
 348   0.0000      13.994304       380.8044 
 349   0.0000      14.007609       381.1664 
 350   0.0000      14.141509       384.8100 
 351   0.0000      14.158611       385.2754 
 352   0.0000      14.178637       385.8203 
 353   0.0000      19.288537       524.8678 
 354   0.0000      25.639526       697.6870 
 355   0.0000      25.667606       698.4511 
 356   0.0000      57.189880      1556.2157 
 357   0.0000     359.499240      9782.4717 

                    ********************************
                    * MULLIKEN POPULATION ANALYSIS *
                    ********************************

-----------------------
MULLIKEN ATOMIC CHARGES
-----------------------
   0 Ir:    0.652091
   1 C :   -0.241717
   2 C :   -0.210775
   3 C :   -0.237585
   4 C :   -0.237502
   5 C :   -0.189963
   6 N :   -0.487829
   7 C :   -0.126441
   8 C :   -0.636618
   9 H :    0.245483
  10 H :    0.221862
  11 H :    0.276958
  12 C :   -0.673045
  13 H :    0.260474
  14 H :    0.265379
  15 H :    0.229184
  16 H :    0.245896
  17 C :    0.109449
  18 C :   -0.189964
  19 H :    0.271482
  20 C :   -0.342145
  21 C :   -0.153346
  22 S :    0.335330
  23 C :   -0.409190
  24 H :    0.370291
  25 H :    0.269630
  26 H :    0.298922
  27 H :    0.289798
  28 H :    0.298626
  29 H :    0.291935
  30 O :   -0.451068
  31 O :   -0.563724
  32 C :    0.612497
  33 C :   -0.748616
  34 H :    0.259370
  35 H :    0.267123
  36 H :    0.255988
  37 H :    0.288897
  38 H :    0.282865
Sum of atomic charges:    1.0000000

--------------------------------
MULLIKEN REDUCED ORBITAL CHARGES
--------------------------------
  0 Irs       :     2.540280  s :     2.540280
      pz      :     2.084760  p :     6.252800
      px      :     2.096315
      py      :     2.071725
      dz2     :     1.738661  d :     7.507426
      dxz     :     1.580425
      dyz     :     1.305644
      dx2y2   :     1.520781
      dxy     :     1.361914
      f0      :     0.004619  f :     0.047403
      f+1     :     0.003669
      f-1     :     0.007632
      f+2     :     0.007806
      f-2     :     0.008292
      f+3     :     0.006373
      f-3     :     0.009014
  1 C s       :     3.323621  s :     3.323621
      pz      :     0.895979  p :     2.869304
      px      :     1.029657
      py      :     0.943668
      dz2     :     0.011080  d :     0.048792
      dxz     :     0.011989
      dyz     :     0.008969
      dx2y2   :     0.006973
      dxy     :     0.009780
  2 C s       :     3.334335  s :     3.334335
      pz      :     1.030738  p :     2.827654
      px      :     0.922858
      py      :     0.874059
      dz2     :     0.011580  d :     0.048786
      dxz     :     0.013238
      dyz     :     0.008908
      dx2y2   :     0.007689
      dxy     :     0.007370
  3 C s       :     3.335336  s :     3.335336
      pz      :     0.949175  p :     2.849417
      px      :     1.030261
      py      :     0.869981
      dz2     :     0.012243  d :     0.052833
      dxz     :     0.012741
      dyz     :     0.007553
      dx2y2   :     0.010560
      dxy     :     0.009736
  4 C s       :     3.294372  s :     3.294372
      pz      :     1.007917  p :     2.896127
      px      :     0.901210
      py      :     0.987000
      dz2     :     0.010167  d :     0.047003
      dxz     :     0.011309
      dyz     :     0.009280
      dx2y2   :     0.008075
      dxy     :     0.008172
  5 C s       :     3.287799  s :     3.287799
      pz      :     0.906209  p :     2.855089
      px      :     0.956316
      py      :     0.992563
      dz2     :     0.010975  d :     0.047075
      dxz     :     0.012354
      dyz     :     0.008134
      dx2y2   :     0.007252
      dxy     :     0.008360
  6 N s       :     3.628744  s :     3.628744
      pz      :     1.221031  p :     3.818644
      px      :     1.301921
      py      :     1.295692
      dz2     :     0.011623  d :     0.040441
      dxz     :     0.009088
      dyz     :     0.009022
      dx2y2   :     0.006269
      dxy     :     0.004439
  7 C s       :     3.250049  s :     3.250049
      pz      :     1.041620  p :     2.815268
      px      :     0.732702
      py      :     1.040947
      dz2     :     0.008945  d :     0.061124
      dxz     :     0.011519
      dyz     :     0.014466
      dx2y2   :     0.016820
      dxy     :     0.009374
  8 C s       :     3.384134  s :     3.384134
      pz      :     1.140084  p :     3.216267
      px      :     1.133706
      py      :     0.942477
      dz2     :     0.004746  d :     0.036217
      dxz     :     0.006926
      dyz     :     0.011410
      dx2y2   :     0.009772
      dxy     :     0.003363
  9 H s       :     0.754517  s :     0.754517
 10 H s       :     0.778138  s :     0.778138
 11 H s       :     0.723042  s :     0.723042
 12 C s       :     3.392480  s :     3.392480
      pz      :     1.054954  p :     3.244350
      px      :     1.077181
      py      :     1.112215
      dz2     :     0.004278  d :     0.036215
      dxz     :     0.008497
      dyz     :     0.010475
      dx2y2   :     0.009324
      dxy     :     0.003640
 13 H s       :     0.739526  s :     0.739526
 14 H s       :     0.734621  s :     0.734621
 15 H s       :     0.770816  s :     0.770816
 16 H s       :     0.754104  s :     0.754104
 17 C s       :     3.182147  s :     3.182147
      pz      :     0.835860  p :     2.645493
      px      :     0.978349
      py      :     0.831284
      dz2     :     0.015201  d :     0.062911
      dxz     :     0.022437
      dyz     :     0.012517
      dx2y2   :     0.006081
      dxy     :     0.006676
 18 C s       :     3.234927  s :     3.234927
      pz      :     0.912588  p :     2.908956
      px      :     0.901565
      py      :     1.094804
      dz2     :     0.013947  d :     0.046081
      dxz     :     0.011859
      dyz     :     0.007076
      dx2y2   :     0.007719
      dxy     :     0.005479
 19 H s       :     0.728518  s :     0.728518
 20 C s       :     3.403452  s :     3.403452
      pz      :     1.066652  p :     2.900730
      px      :     0.845105
      py      :     0.988974
      dz2     :     0.004451  d :     0.037963
      dxz     :     0.013974
      dyz     :     0.005338
      dx2y2   :     0.006571
      dxy     :     0.007629
 21 C s       :     3.233698  s :     3.233698
      pz      :     0.884861  p :     2.877498
      px      :     1.035030
      py      :     0.957607
      dz2     :     0.011880  d :     0.042150
      dxz     :     0.012178
      dyz     :     0.007264
      dx2y2   :     0.007903
      dxy     :     0.002925
 22 S s       :     5.793995  s :     5.793995
      pz      :     3.100498  p :     9.746634
      px      :     3.087482
      py      :     3.558654
      dz2     :     0.044370  d :     0.124041
      dxz     :     0.017927
      dyz     :     0.016978
      dx2y2   :     0.023464
      dxy     :     0.021301
 23 C s       :     3.336319  s :     3.336319
      pz      :     1.059658  p :     3.031656
      px      :     0.923917
      py      :     1.048081
      dz2     :     0.011875  d :     0.041215
      dxz     :     0.011685
      dyz     :     0.005522
      dx2y2   :     0.006782
      dxy     :     0.005350
 24 H s       :     0.629709  s :     0.629709
 25 H s       :     0.730370  s :     0.730370
 26 H s       :     0.701078  s :     0.701078
 27 H s       :     0.710202  s :     0.710202
 28 H s       :     0.701374  s :     0.701374
 29 H s       :     0.708065  s :     0.708065
 30 O s       :     3.753977  s :     3.753977
      pz      :     1.436460  p :     4.670308
      px      :     1.463959
      py      :     1.769889
      dz2     :     0.007753  d :     0.026783
      dxz     :     0.006409
      dyz     :     0.003294
      dx2y2   :     0.005164
      dxy     :     0.004164
 31 O s       :     3.832068  s :     3.832068
      pz      :     1.687907  p :     4.708010
      px      :     1.635317
      py      :     1.384786
      dz2     :     0.003312  d :     0.023646
      dxz     :     0.003352
      dyz     :     0.005688
      dx2y2   :     0.004394
      dxy     :     0.006900
 32 C s       :     2.971577  s :     2.971577
      pz      :     0.761881  p :     2.271466
      px      :     0.742818
      py      :     0.766767
      dz2     :     0.025628  d :     0.144460
      dxz     :     0.022138
      dyz     :     0.029869
      dx2y2   :     0.031525
      dxy     :     0.035300
 33 C s       :     3.421061  s :     3.421061
      pz      :     1.132128  p :     3.294105
      px      :     1.184629
      py      :     0.977348
      dz2     :     0.001812  d :     0.033450
      dxz     :     0.009941
      dyz     :     0.009800
      dx2y2   :     0.010086
      dxy     :     0.001811
 34 H s       :     0.740630  s :     0.740630
 35 H s       :     0.732877  s :     0.732877
 36 H s       :     0.744012  s :     0.744012
 37 H s       :     0.711103  s :     0.711103
 38 H s       :     0.717135  s :     0.717135


                     *******************************
                     * LOEWDIN POPULATION ANALYSIS *
                     *******************************

----------------------
LOEWDIN ATOMIC CHARGES
----------------------
   0 Ir:   -0.157975
   1 C :   -0.016122
   2 C :   -0.011378
   3 C :   -0.003973
   4 C :   -0.092668
   5 C :   -0.080459
   6 N :   -0.030355
   7 C :   -0.059005
   8 C :   -0.353501
   9 H :    0.146623
  10 H :    0.133936
  11 H :    0.152207
  12 C :   -0.360414
  13 H :    0.145487
  14 H :    0.156202
  15 H :    0.133401
  16 H :    0.137672
  17 C :    0.031140
  18 C :   -0.212229
  19 H :    0.153854
  20 C :   -0.203527
  21 C :   -0.155899
  22 S :    0.491340
  23 C :   -0.263198
  24 H :    0.309904
  25 H :    0.158957
  26 H :    0.170736
  27 H :    0.185657
  28 H :    0.192212
  29 H :    0.185315
  30 O :   -0.234988
  31 O :   -0.255827
  32 C :    0.141684
  33 C :   -0.379952
  34 H :    0.160094
  35 H :    0.166645
  36 H :    0.147994
  37 H :    0.188454
  38 H :    0.181954

-------------------------------
LOEWDIN REDUCED ORBITAL CHARGES
-------------------------------
  0 Irs       :     2.473899  s :     2.473899
      pz      :     2.239625  p :     6.730449
      px      :     2.224082
      py      :     2.266742
      dz2     :     1.778409  d :     7.875219
      dxz     :     1.666056
      dyz     :     1.396349
      dx2y2   :     1.591909
      dxy     :     1.442496
      f0      :     0.007951  f :     0.078408
      f+1     :     0.006088
      f-1     :     0.012038
      f+2     :     0.013436
      f-2     :     0.013912
      f+3     :     0.009699
      f-3     :     0.015284
  1 C s       :     2.880141  s :     2.880141
      pz      :     1.036988  p :     3.033096
      px      :     1.073896
      py      :     0.922212
      dz2     :     0.025529  d :     0.102885
      dxz     :     0.028924
      dyz     :     0.019293
      dx2y2   :     0.011670
      dxy     :     0.017469
  2 C s       :     2.882478  s :     2.882478
      pz      :     1.064379  p :     3.026325
      px      :     1.044246
      py      :     0.917699
      dz2     :     0.023663  d :     0.102575
      dxz     :     0.028960
      dyz     :     0.016974
      dx2y2   :     0.017249
      dxy     :     0.015729
  3 C s       :     2.869929  s :     2.869929
      pz      :     1.048362  p :     3.023774
      px      :     1.064868
      py      :     0.910545
      dz2     :     0.028622  d :     0.110270
      dxz     :     0.026777
      dyz     :     0.015286
      dx2y2   :     0.019562
      dxy     :     0.020023
  4 C s       :     2.865131  s :     2.865131
      pz      :     1.082970  p :     3.126258
      px      :     1.043233
      py      :     1.000055
      dz2     :     0.021126  d :     0.101278
      dxz     :     0.027701
      dyz     :     0.017184
      dx2y2   :     0.018053
      dxy     :     0.017214
  5 C s       :     2.868338  s :     2.868338
      pz      :     1.035802  p :     3.111262
      px      :     1.057704
      py      :     1.017756
      dz2     :     0.025639  d :     0.100860
      dxz     :     0.028825
      dyz     :     0.016179
      dx2y2   :     0.014887
      dxy     :     0.015331
  6 N s       :     3.126713  s :     3.126713
      pz      :     1.282605  p :     3.810584
      px      :     1.279417
      py      :     1.248561
      dz2     :     0.028023  d :     0.093057
      dxz     :     0.025811
      dyz     :     0.016609
      dx2y2   :     0.012852
      dxy     :     0.009763
  7 C s       :     2.863278  s :     2.863278
      pz      :     1.072157  p :     3.064603
      px      :     0.888508
      py      :     1.103938
      dz2     :     0.018691  d :     0.131123
      dxz     :     0.025906
      dyz     :     0.027889
      dx2y2   :     0.038102
      dxy     :     0.020535
  8 C s       :     2.951382  s :     2.951382
      pz      :     1.138195  p :     3.333684
      px      :     1.137867
      py      :     1.057623
      dz2     :     0.008564  d :     0.068435
      dxz     :     0.011275
      dyz     :     0.022014
      dx2y2   :     0.019047
      dxy     :     0.007536
  9 H s       :     0.853377  s :     0.853377
 10 H s       :     0.866064  s :     0.866064
 11 H s       :     0.847793  s :     0.847793
 12 C s       :     2.954399  s :     2.954399
      pz      :     1.108992  p :     3.338158
      px      :     1.106014
      py      :     1.123152
      dz2     :     0.008208  d :     0.067856
      dxz     :     0.017040
      dyz     :     0.019037
      dx2y2   :     0.016375
      dxy     :     0.007195
 13 H s       :     0.854513  s :     0.854513
 14 H s       :     0.843798  s :     0.843798
 15 H s       :     0.866599  s :     0.866599
 16 H s       :     0.862328  s :     0.862328
 17 C s       :     2.870070  s :     2.870070
      pz      :     1.020208  p :     2.957391
      px      :     1.077945
      py      :     0.859238
      dz2     :     0.036398  d :     0.141399
      dxz     :     0.054263
      dyz     :     0.025442
      dx2y2   :     0.011917
      dxy     :     0.013379
 18 C s       :     2.903116  s :     2.903116
      pz      :     1.028250  p :     3.202531
      px      :     1.100828
      py      :     1.073453
      dz2     :     0.033672  d :     0.106582
      dxz     :     0.030833
      dyz     :     0.013631
      dx2y2   :     0.017419
      dxy     :     0.011028
 19 H s       :     0.846146  s :     0.846146
 20 C s       :     2.959213  s :     2.959213
      pz      :     1.146420  p :     3.160557
      px      :     1.039747
      py      :     0.974390
      dz2     :     0.010223  d :     0.083758
      dxz     :     0.033939
      dyz     :     0.007932
      dx2y2   :     0.015992
      dxy     :     0.015672
 21 C s       :     2.904996  s :     2.904996
      pz      :     1.085377  p :     3.153936
      px      :     1.098101
      py      :     0.970458
      dz2     :     0.031046  d :     0.096967
      dxz     :     0.033008
      dyz     :     0.014966
      dx2y2   :     0.013187
      dxy     :     0.004761
 22 S s       :     5.502688  s :     5.502688
      pz      :     3.190830  p :     9.850938
      px      :     3.146401
      py      :     3.513707
      dz2     :     0.058689  d :     0.155034
      dxz     :     0.022308
      dyz     :     0.019054
      dx2y2   :     0.030764
      dxy     :     0.024219
 23 C s       :     2.964291  s :     2.964291
      pz      :     1.135854  p :     3.211363
      px      :     1.022015
      py      :     1.053494
      dz2     :     0.028501  d :     0.087544
      dxz     :     0.025746
      dyz     :     0.009504
      dx2y2   :     0.013447
      dxy     :     0.010346
 24 H s       :     0.690096  s :     0.690096
 25 H s       :     0.841043  s :     0.841043
 26 H s       :     0.829264  s :     0.829264
 27 H s       :     0.814343  s :     0.814343
 28 H s       :     0.807788  s :     0.807788
 29 H s       :     0.814685  s :     0.814685
 30 O s       :     3.471370  s :     3.471370
      pz      :     1.471983  p :     4.707162
      px      :     1.508675
      py      :     1.726504
      dz2     :     0.011195  d :     0.056455
      dxz     :     0.017536
      dyz     :     0.008505
      dx2y2   :     0.010338
      dxy     :     0.008881
 31 O s       :     3.487646  s :     3.487646
      pz      :     1.670537  p :     4.717856
      px      :     1.635968
      py      :     1.411351
      dz2     :     0.006981  d :     0.050324
      dxz     :     0.005751
      dyz     :     0.011222
      dx2y2   :     0.010380
      dxy     :     0.015991
 32 C s       :     2.815766  s :     2.815766
      pz      :     0.868129  p :     2.715771
      px      :     0.882969
      py      :     0.964674
      dz2     :     0.053726  d :     0.326779
      dxz     :     0.053331
      dyz     :     0.068630
      dx2y2   :     0.069115
      dxy     :     0.081977
 33 C s       :     2.961013  s :     2.961013
      pz      :     1.134058  p :     3.356830
      px      :     1.153574
      py      :     1.069199
      dz2     :     0.003002  d :     0.062109
      dxz     :     0.016715
      dyz     :     0.019401
      dx2y2   :     0.019272
      dxy     :     0.003718
 34 H s       :     0.839906  s :     0.839906
 35 H s       :     0.833355  s :     0.833355
 36 H s       :     0.852006  s :     0.852006
 37 H s       :     0.811546  s :     0.811546
 38 H s       :     0.818046  s :     0.818046


                      *****************************
                      * MAYER POPULATION ANALYSIS *
                      *****************************

  NA   - Mulliken gross atomic population
  ZA   - Total nuclear charge
  QA   - Mulliken gross atomic charge
  VA   - Mayer's total valence
  BVA  - Mayer's bonded valence
  FA   - Mayer's free valence

  ATOM       NA         ZA         QA         VA         BVA        FA
  0 Ir    16.3479    17.0000     0.6521     3.8448     3.8448     0.0000
  1 C      6.2417     6.0000    -0.2417     3.7055     3.7055     0.0000
  2 C      6.2108     6.0000    -0.2108     3.6996     3.6996     0.0000
  3 C      6.2376     6.0000    -0.2376     3.7293     3.7293    -0.0000
  4 C      6.2375     6.0000    -0.2375     3.6979     3.6979    -0.0000
  5 C      6.1900     6.0000    -0.1900     3.6866     3.6866     0.0000
  6 N      7.4878     7.0000    -0.4878     3.1990     3.1990    -0.0000
  7 C      6.1264     6.0000    -0.1264     3.7224     3.7224     0.0000
  8 C      6.6366     6.0000    -0.6366     3.6560     3.6560     0.0000
  9 H      0.7545     1.0000     0.2455     0.9025     0.9025     0.0000
 10 H      0.7781     1.0000     0.2219     0.9142     0.9142     0.0000
 11 H      0.7230     1.0000     0.2770     0.8995     0.8995     0.0000
 12 C      6.6730     6.0000    -0.6730     3.6859     3.6859     0.0000
 13 H      0.7395     1.0000     0.2605     0.8755     0.8755     0.0000
 14 H      0.7346     1.0000     0.2654     0.9000     0.9000    -0.0000
 15 H      0.7708     1.0000     0.2292     0.9096     0.9096     0.0000
 16 H      0.7541     1.0000     0.2459     0.9017     0.9017     0.0000
 17 C      5.8906     6.0000     0.1094     3.6353     3.6353    -0.0000
 18 C      6.1900     6.0000    -0.1900     3.7362     3.7362     0.0000
 19 H      0.7285     1.0000     0.2715     0.8921     0.8921    -0.0000
 20 C      6.3421     6.0000    -0.3421     3.5863     3.5863    -0.0000
 21 C      6.1533     6.0000    -0.1533     3.7547     3.7547    -0.0000
 22 S     15.6647    16.0000     0.3353     2.6074     2.6074     0.0000
 23 C      6.4092     6.0000    -0.4092     3.7545     3.7545    -0.0000
 24 H      0.6297     1.0000     0.3703     0.8566     0.8566    -0.0000
 25 H      0.7304     1.0000     0.2696     0.8963     0.8963    -0.0000
 26 H      0.7011     1.0000     0.2989     0.8952     0.8952     0.0000
 27 H      0.7102     1.0000     0.2898     0.9074     0.9074     0.0000
 28 H      0.7014     1.0000     0.2986     0.9007     0.9007     0.0000
 29 H      0.7081     1.0000     0.2919     0.9030     0.9030     0.0000
 30 O      8.4511     8.0000    -0.4511     2.1209     2.1209     0.0000
 31 O      8.5637     8.0000    -0.5637     2.0614     2.0614     0.0000
 32 C      5.3875     6.0000     0.6125     3.9280     3.9280    -0.0000
 33 C      6.7486     6.0000    -0.7486     3.6802     3.6802    -0.0000
 34 H      0.7406     1.0000     0.2594     0.8982     0.8982    -0.0000
 35 H      0.7329     1.0000     0.2671     0.8954     0.8954     0.0000
 36 H      0.7440     1.0000     0.2560     0.8970     0.8970     0.0000
 37 H      0.7111     1.0000     0.2889     0.9095     0.9095     0.0000
 38 H      0.7171     1.0000     0.2829     0.9107     0.9107     0.0000

  Mayer bond orders larger than 0.100000
B(  0-Ir,  1-C ) :   0.4823 B(  0-Ir,  2-C ) :   0.4697 B(  0-Ir,  3-C ) :   0.5223 
B(  0-Ir,  4-C ) :   0.4278 B(  0-Ir,  5-C ) :   0.4421 B(  0-Ir,  6-N ) :   0.4861 
B(  0-Ir, 20-C ) :   0.1599 B(  0-Ir, 30-O ) :   0.1042 B(  0-Ir, 31-O ) :   0.6230 
B(  1-C ,  2-C ) :   1.1433 B(  1-C ,  4-C ) :   1.1854 B(  1-C , 27-H ) :   0.9163 
B(  2-C ,  5-C ) :   1.1790 B(  2-C , 28-H ) :   0.9080 B(  3-C ,  4-C ) :   1.1503 
B(  3-C ,  5-C ) :   1.1410 B(  3-C , 37-H ) :   0.9159 B(  4-C , 38-H ) :   0.9169 
B(  5-C , 29-H ) :   0.9105 B(  6-N ,  7-C ) :   0.8781 B(  6-N , 17-C ) :   1.6232 
B(  7-C ,  8-C ) :   0.9803 B(  7-C , 12-C ) :   0.9891 B(  7-C , 13-H ) :   0.8923 
B(  8-C ,  9-H ) :   0.9072 B(  8-C , 10-H ) :   0.9191 B(  8-C , 11-H ) :   0.8963 
B( 12-C , 14-H ) :   0.9055 B( 12-C , 15-H ) :   0.9125 B( 12-C , 16-H ) :   0.9155 
B( 17-C , 18-C ) :   1.1168 B( 17-C , 19-H ) :   0.8808 B( 18-C , 20-C ) :   1.2895 
B( 18-C , 22-S ) :   1.2086 B( 20-C , 21-C ) :   1.2918 B( 20-C , 24-H ) :   0.6855 
B( 21-C , 23-C ) :   1.5038 B( 21-C , 25-H ) :   0.8997 B( 22-S , 23-C ) :   1.2468 
B( 23-C , 26-H ) :   0.8889 B( 30-O , 32-C ) :   1.7689 B( 31-O , 32-C ) :   1.2078 
B( 32-C , 33-C ) :   0.9419 B( 33-C , 34-H ) :   0.9061 B( 33-C , 35-H ) :   0.9017 
B( 33-C , 36-H ) :   0.9083 


------------------
HIRSHFELD ANALYSIS
------------------

Total integrated alpha density =     82.000011846
Total integrated beta density  =     82.000011846

  ATOM     CHARGE      SPIN    
   0 Ir   0.234547    0.000000
   1 C    0.029201    0.000000
   2 C    0.033174    0.000000
   3 C    0.017648    0.000000
   4 C   -0.022878    0.000000
   5 C   -0.011156    0.000000
   6 N   -0.076736    0.000000
   7 C    0.055714    0.000000
   8 C   -0.074519    0.000000
   9 H    0.047732    0.000000
  10 H    0.034384    0.000000
  11 H    0.036521    0.000000
  12 C   -0.071785    0.000000
  13 H    0.038151    0.000000
  14 H    0.054191    0.000000
  15 H    0.037577    0.000000
  16 H    0.034907    0.000000
  17 C    0.092408    0.000000
  18 C   -0.018258    0.000000
  19 H    0.065539    0.000000
  20 C   -0.085763    0.000000
  21 C   -0.039707    0.000000
  22 S    0.135787    0.000000
  23 C   -0.023557    0.000000
  24 H    0.124653    0.000000
  25 H    0.066668    0.000000
  26 H    0.081210    0.000000
  27 H    0.092244    0.000000
  28 H    0.098781    0.000000
  29 H    0.085929    0.000000
  30 O   -0.286010    0.000000
  31 O   -0.283623    0.000000
  32 C    0.233361    0.000000
  33 C   -0.065851    0.000000
  34 H    0.053193    0.000000
  35 H    0.059496    0.000000
  36 H    0.045483    0.000000
  37 H    0.089884    0.000000
  38 H    0.081437    0.000000

  TOTAL   0.999976    0.000000

-------
TIMINGS
-------

Total SCF time: 0 days 0 hours 18 min 34 sec 

Total time                  ....    1114.843 sec
Sum of individual times     ....    1108.529 sec  ( 99.4%)

Fock matrix formation       ....    1099.353 sec  ( 98.6%)
  Split-RI-J                ....     167.908 sec  ( 15.3% of F)
  Chain of spheres X        ....     844.237 sec  ( 76.8% of F)
  XC integration            ....      86.389 sec  (  7.9% of F)
    Basis function eval.    ....      24.463 sec  ( 28.3% of XC)
    Density eval.           ....      24.247 sec  ( 28.1% of XC)
    XC-Functional eval.     ....       3.820 sec  (  4.4% of XC)
    XC-Potential eval.      ....      28.406 sec  ( 32.9% of XC)
Diagonalization             ....       0.498 sec  (  0.0%)
Density matrix formation    ....       0.097 sec  (  0.0%)
Population analysis         ....       1.481 sec  (  0.1%)
Initial guess               ....       0.028 sec  (  0.0%)
Orbital Transformation      ....       0.477 sec  (  0.0%)
Orbital Orthonormalization  ....       0.000 sec  (  0.0%)
DIIS solution               ....       0.159 sec  (  0.0%)
Grid generation             ....       6.436 sec  (  0.6%)

Maximum memory used throughout the entire SCF-calculation: 169.5 MB


-------------------------------------------------------------------------------
                          DFT DISPERSION CORRECTION                            
                                                                               
                              DFTD3 V3.1  Rev 1                                
                          USING Becke-Johnson damping                          
-------------------------------------------------------------------------------
The PBEh-3c composite method is recognized
Using three-body term ABC
Active option DFTDOPT                   ...         4   

molecular C6(AA) [au] = 19858.870119 


            DFT-D V3
 parameters
 s6 scaling factor         :     1.0000 
 a1 scaling factor         :     0.4860 
 s8 scaling factor         :     0.0000 
 a2 scaling factor         :     4.5000 
 Damping factor alpha9(ATM):    16.0000 
 ad hoc parameters k1-k3   :    16.0000     1.3333    -4.0000 

 Edisp/kcal,au: -18.444618927959  -0.029393368105 
 E6   /kcal   : -18.743855676 
 E8   /kcal   :  -0.000000000 
 E6(ABC)      :   0.299236749 
 % E8         :   0.000000000 
 % E6(ABC)    :  -1.622352566 

-------------------------   ----------------
Dispersion correction           -0.029393368
-------------------------   ----------------

 ** NOTE ** -> element ir will be treated as co
NOTIFICATION: Different basis set in ORCA and otool_gcp:
ORCA: 358  gCP: 357 
If you are NOT using ECPs, check your basis set inputs!
------------------   -----------------
gCP correction             0.073214352
------------------   -----------------

-------------------------   --------------------
FINAL SINGLE POINT ENERGY     -1288.308024239173
-------------------------   --------------------

------------------------------------------------------------------------------
                         ORCA SCF GRADIENT CALCULATION
------------------------------------------------------------------------------

 ... reading COSX grid (gridx3)
Gradient of the Kohn-Sham DFT energy:
Kohn-Sham wavefunction type      ... RKS
Hartree-Fock exchange scaling    ...    0.420
Number of operators              ...    1
Number of atoms                  ...   39
Basis set dimensions             ...  358
Integral neglect threshold       ... 2.5e-11
Integral primitive cutoff        ... 2.5e-12
SHARK Integral package           ... ON

Nuc. rep. gradient       (SHARK) ... done (  0.0 sec)
HCore & Overlap gradient (SHARK) ... done (  1.6 sec)
ECP gradient             (SHARK) ... done (  3.3 sec)
RI-J gradient            (SHARK) ... done (  8.2 sec)
COSX-gradient                    ... done ( 85.7 sec)
Exchange-correlation gradient    ... done
Dispersion correction            ... done
gCP correction                   ... done

------------------
CARTESIAN GRADIENT
------------------

   1   Ir  :   -0.000553218   -0.003778578   -0.015844250
   2   C   :    0.001666030    0.009032597    0.008043449
   3   C   :   -0.007296429   -0.003245246   -0.006355312
   4   C   :   -0.012417709    0.017856851   -0.003367712
   5   C   :   -0.002312145    0.005935501   -0.003026673
   6   C   :    0.003007349   -0.002178210   -0.001201442
   7   N   :    0.003584803    0.004069435    0.011250334
   8   C   :    0.005465889   -0.003644994   -0.000158039
   9   C   :    0.001165452   -0.003757872   -0.003434356
  10   H   :   -0.002607829    0.003639376    0.004962085
  11   H   :   -0.000530584   -0.004245401    0.001636671
  12   H   :   -0.006473939   -0.003387458   -0.001196167
  13   C   :    0.001108660    0.000750017   -0.001664376
  14   H   :   -0.002442055    0.007974404   -0.007255573
  15   H   :   -0.007027452   -0.001847585    0.001290752
  16   H   :    0.000435937   -0.001107083    0.001852148
  17   H   :   -0.001565479    0.004796464    0.003377277
  18   C   :   -0.000217357   -0.002292409   -0.000330235
  19   C   :   -0.024754599    0.010745318   -0.014039153
  20   H   :    0.009453993   -0.003304517    0.004867770
  21   C   :   -0.019008857   -0.081515585   -0.023584336
  22   C   :   -0.005044297    0.008313299   -0.005407457
  23   S   :    0.006812231    0.005415438    0.000956467
  24   C   :    0.006604233    0.004282446    0.005495472
  25   H   :    0.041847341    0.069800371    0.017905642
  26   H   :    0.003599643    0.000988383   -0.001755944
  27   H   :    0.002066379   -0.002797543    0.002266883
  28   H   :    0.009633734   -0.016635856    0.004702336
  29   H   :   -0.001433695   -0.006720433    0.010158046
  30   H   :   -0.006361192   -0.008446007   -0.005119126
  31   O   :   -0.053986197   -0.002115321    0.045227988
  32   O   :   -0.010498752   -0.013070955    0.008960865
  33   C   :    0.051326626    0.018144507   -0.052795674
  34   C   :   -0.006065099    0.008252986    0.006545317
  35   H   :    0.001657701   -0.000893708   -0.000607529
  36   H   :    0.002479160    0.002365174    0.001424070
  37   H   :    0.009112529   -0.000601166   -0.005039032
  38   H   :    0.008533680   -0.012752271    0.004365641
  39   H   :    0.001085630   -0.003456313    0.007279632

Difference to translation invariance:
           :    0.0000501140    0.0005680537    0.0003864617

Difference to rotation invariance:
           :   -0.0058210613    0.0002878937    0.0034123949

Norm of the cartesian gradient     ...    0.1728519550
RMS gradient                       ...    0.0159801689
MAX gradient                       ...    0.0815155855

-------
TIMINGS
-------

Total SCF gradient time            ...      112.251 sec

One electron gradient       ....       4.895 sec  (  4.4%)
RI-J Coulomb gradient       ....       8.176 sec  (  7.3%)
COSX gradient               ....      85.668 sec  ( 76.3%)
XC gradient                 ....      11.654 sec  ( 10.4%)

Maximum memory used throughout the entire SCFGRAD-calculation: 136.3 MB

                            ***************************************
                            *     ORCA property calculations      *
                            ***************************************

                                    ---------------------
                                    Active property flags
                                    ---------------------
   (+) Dipole Moment


------------------------------------------------------------------------------
                       ORCA ELECTRIC PROPERTIES CALCULATION
------------------------------------------------------------------------------

Dipole Moment Calculation                       ... on
Quadrupole Moment Calculation                   ... off
Polarizability Calculation                      ... off
GBWName                                         ... 3_2_orca.gbw
Electron density                                ... 3_2_orca.scfp
The origin for moment calculation is the CENTER OF MASS  = ( 0.750889, -0.592833  0.160542)

-------------
DIPOLE MOMENT
-------------
                                X             Y             Z
Electronic contribution:     26.21918     -73.02000     105.26017
Nuclear contribution   :    -26.47475      71.65974    -105.84981
                        -----------------------------------------
Total Dipole Moment    :     -0.25558      -1.36025      -0.58964
                        -----------------------------------------
Magnitude (a.u.)       :      1.50442
Magnitude (Debye)      :      3.82393



--------------------
Rotational spectrum 
--------------------
 
Rotational constants in cm-1:     0.010611     0.007777     0.007221 
Rotational constants in MHz :   318.110692   233.148123   216.489974 

 Dipole components along the rotational axes: 
x,y,z [a.u.] :    -0.297330    -0.571785     1.359389 
x,y,z [Debye]:    -0.755754    -1.453361     3.455293 

 

Timings for individual modules:

Sum of individual times         ...     1228.763 sec (=  20.479 min)
GTO integral calculation        ...        1.610 sec (=   0.027 min)   0.1 %
SCF iterations                  ...     1114.872 sec (=  18.581 min)  90.7 %
SCF Gradient evaluation         ...      112.281 sec (=   1.871 min)   9.1 %
                             ****ORCA TERMINATED NORMALLY****
TOTAL RUN TIME: 0 days 0 hours 20 minutes 29 seconds 183 msec
