
                                 *****************
                                 * O   R   C   A *
                                 *****************

                                            #,                                       
                                            ###                                      
                                            ####                                     
                                            #####                                    
                                            ######                                   
                                           ########,                                 
                                     ,,################,,,,,                         
                               ,,#################################,,                 
                          ,,##########################################,,             
                       ,#########################################, ''#####,          
                    ,#############################################,,   '####,        
                  ,##################################################,,,,####,       
                ,###########''''           ''''###############################       
              ,#####''   ,,,,##########,,,,          '''####'''          '####       
            ,##' ,,,,###########################,,,                        '##       
           ' ,,###''''                  '''############,,,                           
         ,,##''                                '''############,,,,        ,,,,,,###''
      ,#''                                            '''#######################'''  
     '                                                          ''''####''''         
             ,#######,   #######,   ,#######,      ##                                
            ,#'     '#,  ##    ##  ,#'     '#,    #''#        ######   ,####,        
            ##       ##  ##   ,#'  ##            #'  '#       #        #'  '#        
            ##       ##  #######   ##           ,######,      #####,   #    #        
            '#,     ,#'  ##    ##  '#,     ,#' ,#      #,         ##   #,  ,#        
             '#######'   ##     ##  '#######'  #'      '#     #####' # '####'        



                  #######################################################
                  #                        -***-                        #
                  #          Department of theory and spectroscopy      #
                  #    Directorship and core code : Frank Neese         #
                  #        Max Planck Institute fuer Kohlenforschung    #
                  #                Kaiser Wilhelm Platz 1               #
                  #                 D-45470 Muelheim/Ruhr               #
                  #                      Germany                        #
                  #                                                     #
                  #                  All rights reserved                #
                  #                        -***-                        #
                  #######################################################


                         Program Version 5.0.4 -  RELEASE  -


 With contributions from (in alphabetic order):
   Daniel Aravena         : Magnetic Suceptibility
   Michael Atanasov       : Ab Initio Ligand Field Theory (pilot matlab implementation)
   Alexander A. Auer      : GIAO ZORA, VPT2 properties, NMR spectrum
   Ute Becker             : Parallelization
   Giovanni Bistoni       : ED, misc. LED, open-shell LED, HFLD
   Martin Brehm           : Molecular dynamics
   Dmytro Bykov           : SCF Hessian
   Vijay G. Chilkuri      : MRCI spin determinant printing, contributions to CSF-ICE
   Dipayan Datta          : RHF DLPNO-CCSD density
   Achintya Kumar Dutta   : EOM-CC, STEOM-CC
   Dmitry Ganyushin       : Spin-Orbit,Spin-Spin,Magnetic field MRCI
   Miquel Garcia          : C-PCM and meta-GGA Hessian, CC/C-PCM, Gaussian charge scheme
   Yang Guo               : DLPNO-NEVPT2, F12-NEVPT2, CIM, IAO-localization
   Andreas Hansen         : Spin unrestricted coupled pair/coupled cluster methods
   Benjamin Helmich-Paris : MC-RPA, TRAH-SCF, COSX integrals
   Lee Huntington         : MR-EOM, pCC
   Robert Izsak           : Overlap fitted RIJCOSX, COSX-SCS-MP3, EOM
   Marcus Kettner         : VPT2
   Christian Kollmar      : KDIIS, OOCD, Brueckner-CCSD(T), CCSD density, CASPT2, CASPT2-K
   Simone Kossmann        : Meta GGA functionals, TD-DFT gradient, OOMP2, MP2 Hessian
   Martin Krupicka        : Initial AUTO-CI
   Lucas Lang             : DCDCAS
   Marvin Lechner         : AUTO-CI (C++ implementation), FIC-MRCC
   Dagmar Lenk            : GEPOL surface, SMD
   Dimitrios Liakos       : Extrapolation schemes; Compound Job, initial MDCI parallelization
   Dimitrios Manganas     : Further ROCIS development; embedding schemes
   Dimitrios Pantazis     : SARC Basis sets
   Anastasios Papadopoulos: AUTO-CI, single reference methods and gradients
   Taras Petrenko         : DFT Hessian,TD-DFT gradient, ASA, ECA, R-Raman, ABS, FL, XAS/XES, NRVS
   Peter Pinski           : DLPNO-MP2, DLPNO-MP2 Gradient
   Christoph Reimann      : Effective Core Potentials
   Marius Retegan         : Local ZFS, SOC
   Christoph Riplinger    : Optimizer, TS searches, QM/MM, DLPNO-CCSD(T), (RO)-DLPNO pert. Triples
   Tobias Risthaus        : Range-separated hybrids, TD-DFT gradient, RPA, STAB
   Michael Roemelt        : Original ROCIS implementation
   Masaaki Saitow         : Open-shell DLPNO-CCSD energy and density
   Barbara Sandhoefer     : DKH picture change effects
   Avijit Sen             : IP-ROCIS
   Kantharuban Sivalingam : CASSCF convergence, NEVPT2, FIC-MRCI
   Bernardo de Souza      : ESD, SOC TD-DFT
   Georgi Stoychev        : AutoAux, RI-MP2 NMR, DLPNO-MP2 response
   Willem Van den Heuvel  : Paramagnetic NMR
   Boris Wezisla          : Elementary symmetry handling
   Frank Wennmohs         : Technical directorship


 We gratefully acknowledge several colleagues who have allowed us to
 interface, adapt or use parts of their codes:
   Stefan Grimme, W. Hujo, H. Kruse, P. Pracht,  : VdW corrections, initial TS optimization,
                  C. Bannwarth, S. Ehlert          DFT functionals, gCP, sTDA/sTD-DF
   Ed Valeev, F. Pavosevic, A. Kumar             : LibInt (2-el integral package), F12 methods
   Garnet Chan, S. Sharma, J. Yang, R. Olivares  : DMRG
   Ulf Ekstrom                                   : XCFun DFT Library
   Mihaly Kallay                                 : mrcc  (arbitrary order and MRCC methods)
   Jiri Pittner, Ondrej Demel                    : Mk-CCSD
   Frank Weinhold                                : gennbo (NPA and NBO analysis)
   Christopher J. Cramer and Donald G. Truhlar   : smd solvation model
   Lars Goerigk                                  : TD-DFT with DH, B97 family of functionals
   V. Asgeirsson, H. Jonsson                     : NEB implementation
   FAccTs GmbH                                   : IRC, NEB, NEB-TS, DLPNO-Multilevel, CI-OPT
                                                   MM, QMMM, 2- and 3-layer-ONIOM, Crystal-QMMM,
                                                   LR-CPCM, SF, NACMEs, symmetry and pop. for TD-DFT,
                                                   nearIR, NL-DFT gradient (VV10), updates on ESD,
                                                   ML-optimized integration grids
   S Lehtola, MJT Oliveira, MAL Marques          : LibXC Library
   Liviu Ungur et al                             : ANISO software


 Your calculation uses the libint2 library for the computation of 2-el integrals
 For citations please refer to: http://libint.valeyev.net

 Your ORCA version has been built with support for libXC version: 5.1.0
 For citations please refer to: https://tddft.org/programs/libxc/

 This ORCA versions uses:
   CBLAS   interface :  Fast vector & matrix operations
   LAPACKE interface :  Fast linear algebra routines
   SCALAPACK package :  Parallel linear algebra routines
   Shared memory     :  Shared parallel matrices
   BLAS/LAPACK       :  OpenBLAS 0.3.15  USE64BITINT DYNAMIC_ARCH NO_AFFINITY SkylakeX SINGLE_THREADED
        Core in use  :  SkylakeX
   Copyright (c) 2011-2014, The OpenBLAS Project




***************************************
The coordinates will be read from file: reaction-6-prod-xtb_edited.xyz
***************************************


Your calculation utilizes the geometrical counterpoise correction gCP
Please cite in your paper:
H.Kruse, S. Grimme J.Chem.Phys., 136, (2012), 154101 
   

Your calculation utilizes the atom-pairwise dispersion correction
with the Becke-Johnson damping scheme (D3BJ)
Cite in your paper:
S.Grimme, S.Ehrlich, L.Goerigk, J Comput Chem, (2011), 32, 1456–1465 
S.Grimme, J.Antony, S.Ehrlich and H.Krieg, J.Chem.Phys., 132, (2010), 154104 
   

Your calculation employs the composite approach PBEh-3c.
Please cite in your paper:
S. Grimme, J. G. Brandenburg, C. Bannwarth, A. Hansen J.Chem.Phys., 143, (2015), 054107 
   

================================================================================

cite the ECPs for Pt [Def2-ECP] as follows:
Ce-Yb(ecp-28): M. Dolg, H. Stoll, H.Preuss, J. Chem. Phys., 1989, 90, 1730-1734.
Y-Cd(ecp-28), Hf-Hg(ecp-46): D. Andrae,U. Haeussermann, M. Dolg, H. Stoll, H. Preuss, Theor. Chim. Acta, 1990, 77, 123-141.
In-Sb(ecp-28), Tl-Bi(ecp-46): B. Metz, H. Stoll, M. Dolg, J. Chem. Phys., 2000, 113, 2563-2569.
Te-Xe(ecp-28), Po-Rn(ecp-46): K. A. Peterson, D. Figgen, E. Goll, H. Stoll, M. Dolg, J. Chem. Phys., 2003, 119, 11113-11123.
Rb(ecp-28), Cs(ecp-46): T. Leininger, A. Nicklass, W. Kuechle, H. Stoll, M. Dolg, A. Bergner, Chem. Phys. Lett., 1996, 255, 274-280.
Sr(ecp-28), Ba(ecp-46): M. Kaupp, P. V. Schleyer, H. Stoll and H. Preuss, J. Chem. Phys., 1991, 94, 1360-1366.
La(ecp-46): M. Dolg, H. Stoll, A. Savin, H. Preuss, Theor. Chim. Acta, 1989, 75, 173-194.
Lu(ecp-28): X. Cao, M. Dolg, J. Chem. Phys., 2001, 115, 7348-7355.

ECP parameters for Pt [Def2-ECP] have been obtained from:
TURBOMOLE (7.0.2)

----- Orbital basis set information -----
Your calculation utilizes the basis: def2-mSVP

----- AuxJ basis set information -----
Your calculation utilizes the auxiliary basis: def2/J
   F. Weigend, Phys. Chem. Chem. Phys. 8, 1057 (2006).

================================================================================
                                        WARNINGS
                       Please study these warnings very carefully!
================================================================================


WARNING: Geometry Optimization
  ===> : Switching off AutoStart
         For restart on a previous wavefunction, please use MOREAD

WARNING: No Hueckel Guess possible with ECP basis!
  ===> : Switching to HCORE guess!

INFO   : the flag for use of the SHARK integral package has been found!

================================================================================
                                       INPUT FILE
================================================================================
NAME = reaction-6-prod-pbeh3c-orca_opt.inp
|  1> ! PBEh-3c OPT pal4
|  2> 
|  3> %geom
|  4>  maxiter 600
|  5> end 
|  6> 
|  7> *xyzfile -1 1 reaction-6-prod-xtb_edited.xyz
|  8> 
|  9>                          ****END OF INPUT****
================================================================================

                       *****************************
                       * Geometry Optimization Run *
                       *****************************

Geometry optimization settings:
Update method            Update   .... BFGS
Choice of coordinates    CoordSys .... Z-matrix Internals
Initial Hessian          InHess   .... Almoef's Model

Convergence Tolerances:
Energy Change            TolE     ....  5.0000e-06 Eh
Max. Gradient            TolMAXG  ....  3.0000e-04 Eh/bohr
RMS Gradient             TolRMSG  ....  1.0000e-04 Eh/bohr
Max. Displacement        TolMAXD  ....  4.0000e-03 bohr
RMS Displacement         TolRMSD  ....  2.0000e-03 bohr
Strict Convergence                ....  False
------------------------------------------------------------------------------
                        ORCA OPTIMIZATION COORDINATE SETUP
------------------------------------------------------------------------------

The optimization will be done in new redundant internal coordinates
Making redundant internal coordinates   ...  (new redundants) done
Evaluating the initial hessian          ...  (Almloef) done
Evaluating the coordinates              ...  done
Calculating the B-matrix                .... done
Calculating the G-matrix                .... done
Diagonalizing the G-matrix              .... done
The first mode is                       ....   15
The number of degrees of freedom        ....   21

    -----------------------------------------------------------------
                    Redundant Internal Coordinates


    -----------------------------------------------------------------
         Definition                    Initial Value    Approx d2E/dq
    -----------------------------------------------------------------
      1. B(Cl  1,Pt  0)                  2.3207         0.063886   
      2. B(Cl  2,Pt  0)                  2.2918         0.071058   
      3. B(Cl  3,Pt  0)                  2.3213         0.063755   
      4. B(C   4,Pt  0)                  2.0697         0.071611   
      5. B(H   5,C   4)                  1.0899         0.360294   
      6. B(H   6,Pt  0)                  1.4840         0.117864   
      7. B(H   7,C   4)                  1.0899         0.360221   
      8. B(H   8,C   4)                  1.0934         0.355692   
      9. A(Cl  1,Pt  0,Cl  2)           82.9864         0.236395   
     10. A(Cl  3,Pt  0,C   4)           92.8749         0.228943   
     11. A(Cl  1,Pt  0,Cl  3)          174.2107         0.232822   
     12. A(Cl  2,Pt  0,C   4)          173.9389         0.232420   
     13. A(Cl  1,Pt  0,H   6)           88.8375         0.225837   
     14. A(Cl  2,Pt  0,Cl  3)           91.4009         0.236327   
     15. A(Cl  1,Pt  0,C   4)           92.8292         0.229008   
     16. A(Cl  2,Pt  0,H   6)           92.0914         0.229172   
     17. A(Cl  3,Pt  0,H   6)           89.9548         0.225774   
     18. A(C   4,Pt  0,H   6)           92.2058         0.222147   
     19. A(Pt  0,C   4,H   5)          110.4117         0.254842   
     20. A(H   5,C   4,H   7)          110.7250         0.290879   
     21. A(Pt  0,C   4,H   8)          103.7291         0.254360   
     22. A(H   5,C   4,H   8)          110.6797         0.290302   
     23. A(Pt  0,C   4,H   7)          110.3994         0.254835   
     24. A(H   7,C   4,H   8)          110.6996         0.290293   
     25. D(H   5,C   4,Pt  0,Cl  2)     74.6025         0.001718   
     26. D(H   5,C   4,Pt  0,Cl  3)   -150.5859         0.001718   
     27. D(H   5,C   4,Pt  0,H   6)    -60.5204         0.001718   
     28. D(H   7,C   4,Pt  0,Cl  1)    151.1924         0.001718   
     29. D(H   7,C   4,Pt  0,Cl  2)   -162.6290         0.001718   
     30. D(H   7,C   4,Pt  0,Cl  3)    -27.8174         0.001718   
     31. D(H   7,C   4,Pt  0,H   6)     62.2481         0.001718   
     32. D(H   8,C   4,Pt  0,Cl  1)    -90.1832         0.001718   
     33. D(H   8,C   4,Pt  0,Cl  2)    -44.0046         0.001718   
     34. D(H   8,C   4,Pt  0,Cl  3)     90.8070         0.001718   
     35. D(H   8,C   4,Pt  0,H   6)   -179.1275         0.001718   
     36. D(H   5,C   4,Pt  0,Cl  1)     28.4239         0.001718   
    -----------------------------------------------------------------

Number of atoms                         .... 9
Number of degrees of freedom            .... 36

         *************************************************************
         *                GEOMETRY OPTIMIZATION CYCLE   1            *
         *************************************************************
---------------------------------
CARTESIAN COORDINATES (ANGSTROEM)
---------------------------------
  Pt    -0.492660   -0.754000    0.323410
  Cl    -0.119460   -0.193350    2.544260
  Cl    -1.944840   -2.270070    1.242590
  Cl    -0.971020   -1.508900   -1.818940
  C      0.730820    0.763540   -0.372040
  H      1.507470    0.990390    0.358120
  H      0.640900   -1.708280    0.405290
  H      1.170960    0.487700   -1.330210
  H      0.051080    1.611900   -0.488910

----------------------------
CARTESIAN COORDINATES (A.U.)
----------------------------
  NO LB      ZA    FRAG     MASS         X           Y           Z
   0 Pt   18.0000*   0   195.090   -0.930992   -1.424854    0.611156
   1 Cl   17.0000    0    35.453   -0.225747   -0.365379    4.807955
   2 Cl   17.0000    0    35.453   -3.675215   -4.289811    2.348155
   3 Cl   17.0000    0    35.453   -1.834962   -2.851408   -3.437298
   4 C     6.0000    0    12.011    1.381050    1.442881   -0.703054
   5 H     1.0000    0     1.008    2.848705    1.871566    0.676749
   6 H     1.0000    0     1.008    1.211125   -3.228181    0.765887
   7 H     1.0000    0     1.008    2.212794    0.921619   -2.513733
   8 H     1.0000    0     1.008    0.096527    3.046050   -0.923906
* core charge reduced due to ECP

--------------------------------
INTERNAL COORDINATES (ANGSTROEM)
--------------------------------
 Pt     0   0   0     0.000000000000     0.00000000     0.00000000
 Cl     1   0   0     2.320728632348     0.00000000     0.00000000
 Cl     1   2   0     2.291765011885    82.98640343     0.00000000
 Cl     1   2   3     2.321285381443   174.21065894   345.74582318
 C      1   2   3     2.069657378529    92.82923269   175.59784937
 H      5   1   2     1.089853095880   110.41173427    28.42388178
 H      1   2   3     1.484019179930    88.83752480   267.74926332
 H      5   1   2     1.089908562266   110.39936619   151.19239694
 H      5   1   2     1.093352529654   103.72909681   269.81678065

---------------------------
INTERNAL COORDINATES (A.U.)
---------------------------
 Pt     0   0   0     0.000000000000     0.00000000     0.00000000
 Cl     1   0   0     4.385541546287     0.00000000     0.00000000
 Cl     1   2   0     4.330808235765    82.98640343     0.00000000
 Cl     1   2   3     4.386593649602   174.21065894   345.74582318
 C      1   2   3     3.911085636469    92.82923269   175.59784937
 H      5   1   2     2.059523877420   110.41173427    28.42388178
 H      1   2   3     2.804389827554    88.83752480   267.74926332
 H      5   1   2     2.059628693698   110.39936619   151.19239694
 H      5   1   2     2.066136848875   103.72909681   269.81678065

---------------------
BASIS SET INFORMATION
---------------------
There are 4 groups of distinct atoms

 Group   1 Type Pt  : 7s6p5d1f contracted to 6s3p2d1f pattern {211111/411/41/1}
 Group   2 Type Cl  : 10s7p1d contracted to 4s3p1d pattern {5311/511/1}
 Group   3 Type C   : 8s4p1d contracted to 4s2p1d pattern {5111/31/1}
 Group   4 Type H   : 4s contracted to 2s pattern {31}

Atom   0Pt   basis set group =>   1
Atom   1Cl   basis set group =>   2
Atom   2Cl   basis set group =>   2
Atom   3Cl   basis set group =>   2
Atom   4C    basis set group =>   3
Atom   5H    basis set group =>   4
Atom   6H    basis set group =>   4
Atom   7H    basis set group =>   4
Atom   8H    basis set group =>   4
---------------------------------
AUXILIARY/J BASIS SET INFORMATION
---------------------------------
There are 4 groups of distinct atoms

 Group   1 Type Pt  : 11s5p5d3f3g contracted to 8s5p5d2f3g pattern {41111111/11111/11111/21/111}
 Group   2 Type Cl  : 14s5p5d2f1g contracted to 8s4p3d1f1g pattern {71111111/2111/311/2/1}
 Group   3 Type C   : 12s5p4d2f1g contracted to 6s4p3d1f1g pattern {711111/2111/211/2/1}
 Group   4 Type H   : 5s2p1d contracted to 3s1p1d pattern {311/2/1}

Atom   0Pt   basis set group =>   1
Atom   1Cl   basis set group =>   2
Atom   2Cl   basis set group =>   2
Atom   3Cl   basis set group =>   2
Atom   4C    basis set group =>   3
Atom   5H    basis set group =>   4
Atom   6H    basis set group =>   4
Atom   7H    basis set group =>   4
Atom   8H    basis set group =>   4
-------------------------
ECP PARAMETER INFORMATION
-------------------------

 Group 1, Type Pt ECP Def2-ECP (replacing 60 core electrons, lmax=3)

Atom   0Pt   ECP group =>   1



           ************************************************************
           *        Program running with 4 parallel MPI-processes     *
           *              working on a common directory               *
           ************************************************************
------------------------------------------------------------------------------
                           ORCA GTO INTEGRAL CALCULATION
                           -- RI-GTO INTEGRALS CHOSEN --
------------------------------------------------------------------------------
------------------------------------------------------------------------------
                   ___                                                        
                  /   \      - P O W E R E D   B Y -                         
                 /     \                                                     
                 |  |  |   _    _      __       _____    __    __             
                 |  |  |  | |  | |    /  \     |  _  \  |  |  /  |          
                  \  \/   | |  | |   /    \    | | | |  |  | /  /          
                 / \  \   | |__| |  /  /\  \   | |_| |  |  |/  /          
                |  |  |   |  __  | /  /__\  \  |    /   |      \           
                |  |  |   | |  | | |   __   |  |    \   |  |\   \          
                \     /   | |  | | |  |  |  |  | |\  \  |  | \   \       
                 \___/    |_|  |_| |__|  |__|  |_| \__\ |__|  \__/        
                                                                              
                      - O R C A' S   B I G   F R I E N D -                    
                                      &                                       
                       - I N T E G R A L  F E E D E R -                       
                                                                              
 v1 FN, 2020, v2 2021                                                         
------------------------------------------------------------------------------


Reading SHARK input file reaction-6-prod-pbeh3c-orca_opt.SHARKINP.tmp ... ok
----------------------
SHARK INTEGRAL PACKAGE
----------------------

Number of atoms                             ...      9
Number of basis functions                   ...    109
Number of shells                            ...     51
Maximum angular momentum                    ...      3
Integral batch strategy                     ... SHARK/LIBINT Hybrid
RI-J (if used) integral strategy            ... SPLIT-RIJ (Revised 2003 algorithm where possible)
Printlevel                                  ...      1
Contraction scheme used                     ... SEGMENTED contraction
Coulomb Range Separation                    ... NOT USED
Exchange Range Separation                   ... NOT USED
Finite Nucleus Model                        ... NOT USED
Auxiliary Coulomb fitting basis             ... AVAILABLE
   # of basis functions in Aux-J            ...    335
   # of shells in Aux-J                     ...    109
   Maximum angular momentum in Aux-J        ...      4
Auxiliary J/K fitting basis                 ... NOT available
Auxiliary Correlation fitting basis         ... NOT available
Auxiliary 'external' fitting basis          ... NOT available
Integral threshold                          ...     2.500000e-11
Primitive cut-off                           ...     2.500000e-12
Primitive pair pre-selection threshold      ...     2.500000e-12

Calculating pre-screening integrals         ... done (  0.0 sec) Dimension = 51
Organizing shell pair data                  ... done (  0.0 sec)
Shell pair information
Total number of shell pairs                 ...      1326
Shell pairs after pre-screening             ...      1205
Total number of primitive shell pairs       ...      5360
Primitive shell pairs kept                  ...      3559
          la=0 lb=0:    405 shell pairs
          la=1 lb=0:    376 shell pairs
          la=1 lb=1:     99 shell pairs
          la=2 lb=0:    172 shell pairs
          la=2 lb=1:     81 shell pairs
          la=2 lb=2:     21 shell pairs
          la=3 lb=0:     30 shell pairs
          la=3 lb=1:     14 shell pairs
          la=3 lb=2:      6 shell pairs
          la=3 lb=3:      1 shell pairs

Calculating one electron integrals          ... done (  0.0 sec)
Calculating ECP integrals                   ... done (  0.1 sec)
Calculating RI/J V-Matrix + Cholesky decomp.... done (  0.0 sec)
Calculating Nuclear repulsion               ... done (  0.0 sec) ENN=    473.024901139238 Eh

SHARK setup successfully completed in   0.3 seconds

Maximum memory used throughout the entire GTOINT-calculation: 14.2 MB


           ************************************************************
           *        Program running with 4 parallel MPI-processes     *
           *              working on a common directory               *
           ************************************************************
-------------------------------------------------------------------------------
                                 ORCA SCF
-------------------------------------------------------------------------------

------------
SCF SETTINGS
------------
Hamiltonian:
 Density Functional     Method          .... DFT(GTOs)
 Exchange Functional    Exchange        .... PBE
   PBE kappa parameter   XKappa         ....  1.024500
   PBE mue parameter    XMuePBE         ....  0.123457
 Correlation Functional Correlation     .... PBE
   PBE beta parameter  CBetaPBE         ....  0.030000
 LDA part of GGA corr.  LDAOpt          .... PW91-LDA
 Gradients option       PostSCFGGA      .... off
 Hybrid DFT is turned on
   Fraction HF Exchange ScalHFX         ....  0.420000
   Scaling of DF-GGA-X  ScalDFX         ....  0.580000
   Scaling of DF-GGA-C  ScalDFC         ....  1.000000
   Scaling of DF-LDA-C  ScalLDAC        ....  1.000000
   Perturbative correction              ....  0.000000
   Density functional embedding theory  .... OFF
 RI-approximation to the Coulomb term is turned on
   Number of AuxJ basis functions       .... 335
   RIJ-ON(X) (HFX calculated with O(N)) .... on
   Number of AuxJ basis functions       .... 335
   RIJ-COSX (HFX calculated with COS-X)).... on


General Settings:
 Integral files         IntName         .... reaction-6-prod-pbeh3c-orca_opt
 Hartree-Fock type      HFTyp           .... RHF
 Total Charge           Charge          ....   -1
 Multiplicity           Mult            ....    1
 Number of Electrons    NEL             ....   80
 Basis Dimension        Dim             ....  109
 Nuclear Repulsion      ENuc            ....    473.0249011392 Eh

Convergence Acceleration:
 DIIS                   CNVDIIS         .... on
   Start iteration      DIISMaxIt       ....    12
   Startup error        DIISStart       ....  0.200000
   # of expansion vecs  DIISMaxEq       ....     5
   Bias factor          DIISBfac        ....   1.050
   Max. coefficient     DIISMaxC        ....  10.000
 Trust-Rad. Augm. Hess. CNVTRAH         .... auto
   Auto Start mean grad. ratio tolernc. ....  1.125000
   Auto Start start iteration           ....    20
   Auto Start num. interpolation iter.  ....    10
   Max. Number of Micro iterations      ....    16
   Max. Number of Macro iterations      .... Maxiter - #DIIS iter
   Number of Davidson start vectors     ....     2
   Converg. threshold I  (grad. norm)   ....   1.000e-05
   Converg. threshold II (energy diff.) ....   1.000e-08
   Grad. Scal. Fac. for Micro threshold ....   0.100
   Minimum threshold for Micro iter.    ....   0.010
   NR start threshold (gradient norm)   ....   0.001
   Initial trust radius                 ....   0.400
   Minimum AH scaling param. (alpha)    ....   1.000
   Maximum AH scaling param. (alpha)    .... 1000.000
   Orbital update algorithm             .... Taylor
   White noise on init. David. guess    .... on
   Maximum white noise                  ....   0.010
   Quad. conv. algorithm                .... NR
   COSX micro iterations for RIJONX calc.... off
 SOSCF                  CNVSOSCF        .... off
 Level Shifting         CNVShift        .... on
   Level shift para.    LevelShift      ....    0.2500
   Turn off err/grad.   ShiftErr        ....    0.0010
 Zerner damping         CNVZerner       .... off
 Static damping         CNVDamp         .... on
   Fraction old density DampFac         ....    0.7000
   Max. Damping (<1)    DampMax         ....    0.9800
   Min. Damping (>=0)   DampMin         ....    0.0000
   Turn off err/grad.   DampErr         ....    0.1000
 Fernandez-Rico         CNVRico         .... off

SCF Procedure:
 Maximum # iterations   MaxIter         ....   125
 SCF integral mode      SCFMode         .... Direct
   Integral package                     .... SHARK and LIBINT hybrid scheme
 Reset frequency        DirectResetFreq ....    20
 Integral Threshold     Thresh          ....  2.500e-11 Eh
 Primitive CutOff       TCut            ....  2.500e-12 Eh

Convergence Tolerance:
 Convergence Check Mode ConvCheckMode   .... Total+1el-Energy
 Convergence forced     ConvForced      .... 0
 Energy Change          TolE            ....  1.000e-08 Eh
 1-El. energy change                    ....  1.000e-05 Eh
 DIIS Error             TolErr          ....  5.000e-07


Diagonalization of the overlap matrix:
Smallest eigenvalue                        ... 7.895e-03
Time for diagonalization                   ...    0.003 sec
Threshold for overlap eigenvalues          ... 1.000e-08
Number of eigenvalues below threshold      ... 0
Time for construction of square roots      ...    0.001 sec
Total time needed                          ...    0.005 sec

--------------------
INITIAL GUESS: HCORE
--------------------
                      -----------------
                      INTIAL GUESS DONE 
                      -----------------
-------------------
DFT GRID GENERATION
-------------------

General Integration Accuracy     IntAcc      ... 4.159
Radial Grid Type                 RadialGrid  ... OptM3 with GC (2021)
Angular Grid (max. ang.)         AngularGrid ... 3 (Lebedev-194)
Angular grid pruning method      GridPruning ... 4 (adaptive)
Weight generation scheme         WeightScheme... Becke
Basis function cutoff            BFCut       ... 1.0000e-11
Integration weight cutoff        WCut        ... 1.0000e-14
Angular grids for H and He will be reduced by one unit
Partially contracted basis set               ... off
Rotationally invariant grid construction     ... off

Total number of grid points                  ...    27612
Total number of batches                      ...      436
Average number of points per batch           ...       63
Average number of grid points per atom       ...     3068
Time for grid setup =    0.110 sec

--------------------
COSX GRID GENERATION
--------------------

GRIDX 1
-------
General Integration Accuracy     IntAcc      ... 3.816
Radial Grid Type                 RadialGrid  ... OptM3 with GC (2021)
Angular Grid (max. ang.)         AngularGrid ... 1 (Lebedev-50)
Angular grid pruning method      GridPruning ... 4 (adaptive)
Weight generation scheme         WeightScheme... Becke
Basis function cutoff            BFCut       ... 1.0000e-11
Integration weight cutoff        WCut        ... 1.0000e-14
Angular grids for H and He will be reduced by one unit
Partially contracted basis set               ... on
Rotationally invariant grid construction     ... off

Total number of grid points                  ...     6238
Total number of batches                      ...      102
Average number of points per batch           ...       61
Average number of grid points per atom       ...      693
UseSFitting                                  ... on

GRIDX 2
-------
General Integration Accuracy     IntAcc      ... 4.020
Radial Grid Type                 RadialGrid  ... OptM3 with GC (2021)
Angular Grid (max. ang.)         AngularGrid ... 2 (Lebedev-110)
Angular grid pruning method      GridPruning ... 4 (adaptive)
Weight generation scheme         WeightScheme... Becke
Basis function cutoff            BFCut       ... 1.0000e-11
Integration weight cutoff        WCut        ... 1.0000e-14
Angular grids for H and He will be reduced by one unit
Partially contracted basis set               ... on
Rotationally invariant grid construction     ... off

Total number of grid points                  ...    14694
Total number of batches                      ...      235
Average number of points per batch           ...       62
Average number of grid points per atom       ...     1633
UseSFitting                                  ... on

GRIDX 3
-------
General Integration Accuracy     IntAcc      ... 4.338
Radial Grid Type                 RadialGrid  ... OptM3 with GC (2021)
Angular Grid (max. ang.)         AngularGrid ... 3 (Lebedev-194)
Angular grid pruning method      GridPruning ... 4 (adaptive)
Weight generation scheme         WeightScheme... Becke
Basis function cutoff            BFCut       ... 1.0000e-11
Integration weight cutoff        WCut        ... 1.0000e-14
Angular grids for H and He will be reduced by one unit
Partially contracted basis set               ... on
Rotationally invariant grid construction     ... off

Total number of grid points                  ...    32797
Total number of batches                      ...      518
Average number of points per batch           ...       63
Average number of grid points per atom       ...     3644
UseSFitting                                  ... on

Time for X-Grid setup             =    0.209 sec

--------------
SCF ITERATIONS
--------------
ITER       Energy         Delta-E        Max-DP      RMS-DP      [F,P]     Damp
               ***  Starting incremental Fock matrix formation  ***
  0  -1490.1871227126   0.00000000000018.02198276  0.30042005  1.5408225 0.7000
  1  -1505.6654889056 -15.478366192991 5.43261269  0.11322191  1.2518805 0.7000
  2  -1515.3110671859  -9.645578280291 3.75740503  0.08084079  0.8142749 0.7000
  3  -1522.1462141255  -6.835146939608 2.57368554  0.05726116  0.5491729 0.7000
  4  -1527.0850942613  -4.938880135801 1.77806869  0.04020809  0.3793949 0.7000
  5  -1530.6035751714  -3.518480910184 1.23878032  0.02818235  0.2630449 0.7000
                               ***Turning on DIIS***
  6  -1533.0977471095  -2.494171938096 0.86792467  0.01974508  0.1807880 0.7000
  7  -1534.8604349849  -1.762687875354 0.61079301  0.01384152  0.1229109 0.7000
  8  -1536.1032100163  -1.242775031435 1.43100977  0.03240372  0.0840121 0.0000
  9  -1539.0342731814  -2.931063165055 0.00886641  0.00042848  0.0058127 0.0000
 10  -1539.0347497233  -0.000476541887 0.00474419  0.00022431  0.0020089 0.0000
 11  -1539.0348917191  -0.000141995867 0.00355490  0.00014456  0.0019590 0.0000
 12  -1539.0349510679  -0.000059348801 0.00416014  0.00016150  0.0007520 0.0000
               *** Restarting incremental Fock matrix formation ***
                                   *** Resetting DIIS ***
 13  -1539.0343105202   0.000640547784 0.00239744  0.00012414  0.0011700 0.0000
 14  -1539.0343356465  -0.000025126305 0.00104518  0.00005868  0.0003921 0.0000
 15  -1539.0343392832  -0.000003636764 0.00041327  0.00001497  0.0001530 0.0000
 16  -1539.0343396472  -0.000000364010 0.00025640  0.00000795  0.0001363 0.0000
 17  -1539.0343397315  -0.000000084265 0.00015149  0.00000398  0.0000804 0.0000
 18  -1539.0343397734  -0.000000041920 0.00003272  0.00000127  0.0000214 0.0000
 19  -1539.0343397783  -0.000000004896 0.00002081  0.00000068  0.0000057 0.0000
 20  -1539.0343397800  -0.000000001662 0.00000809  0.00000027  0.0000022 0.0000
                            ***DIIS convergence achieved***

               *****************************************************
               *                     SUCCESS                       *
               *           SCF CONVERGED AFTER  21 CYCLES          *
               *****************************************************

Old exchange energy                            =    -42.090088967 Eh
New exchange energy                            =    -42.089977253 Eh
Exchange energy change after final integration =      0.000111714 Eh
Total energy after final integration           =  -1539.034228066 Eh
Final COS-X integration done in                =     0.846 sec

----------------
TOTAL SCF ENERGY
----------------

Total Energy       :        -1539.03422807 Eh          -41879.25045 eV

Components:
Nuclear Repulsion  :          473.02490114 Eh           12871.66194 eV
Electronic Energy  :        -2012.05912921 Eh          -54750.91239 eV
One Electron Energy:        -3127.10952811 Eh          -85092.97630 eV
Two Electron Energy:         1115.05039890 Eh           30342.06391 eV
Max COSX asymmetry :            0.00001008 Eh               0.00027 eV

Virial components:
Potential Energy   :        -2997.01699206 Eh          -81552.97843 eV
Kinetic Energy     :         1457.98276399 Eh           39673.72798 eV
Virial Ratio       :            2.05559151


DFT components:
N(Alpha)           :       40.000076465357 electrons
N(Beta)            :       40.000076465357 electrons
N(Total)           :       80.000152930713 electrons
E(X)               :      -56.369906539397 Eh       
E(C)               :       -4.044644842031 Eh       
E(XC)              :      -60.414551381428 Eh       
DFET-embed. en.    :        0.000000000000 Eh       

---------------
SCF CONVERGENCE
---------------

  Last Energy change         ...    3.0991e-10  Tolerance :   1.0000e-08
  Last MAX-Density change    ...    0.0000e+00  Tolerance :   1.0000e-07
  Last RMS-Density change    ...    0.0000e+00  Tolerance :   5.0000e-09
  Last DIIS Error            ...    8.1657e-07  Tolerance :   5.0000e-07

             **** THE GBW FILE WAS UPDATED (reaction-6-prod-pbeh3c-orca_opt.gbw) ****
             **** DENSITY reaction-6-prod-pbeh3c-orca_opt.scfp WAS UPDATED ****
             **** ENERGY FILE WAS UPDATED (reaction-6-prod-pbeh3c-orca_opt.en.tmp) ****
             **** THE GBW FILE WAS UPDATED (reaction-6-prod-pbeh3c-orca_opt.gbw) ****
             **** DENSITY reaction-6-prod-pbeh3c-orca_opt.scfp WAS UPDATED ****
----------------
ORBITAL ENERGIES
----------------

  NO   OCC          E(Eh)            E(eV) 
   0   2.0000    -102.102582     -2778.3525 
   1   2.0000    -102.100837     -2778.3050 
   2   2.0000    -102.067298     -2777.3924 
   3   2.0000     -10.288103      -279.9535 
   4   2.0000      -9.566940      -260.3297 
   5   2.0000      -9.565244      -260.2835 
   6   2.0000      -9.533251      -259.4130 
   7   2.0000      -7.253234      -197.3705 
   8   2.0000      -7.251630      -197.3269 
   9   2.0000      -7.247849      -197.2240 
  10   2.0000      -7.247254      -197.2078 
  11   2.0000      -7.246104      -197.1765 
  12   2.0000      -7.245468      -197.1592 
  13   2.0000      -7.218600      -196.4281 
  14   2.0000      -7.214703      -196.3221 
  15   2.0000      -7.213759      -196.2964 
  16   2.0000      -4.005754      -109.0021 
  17   2.0000      -2.210141       -60.1410 
  18   2.0000      -2.207280       -60.0631 
  19   2.0000      -2.200139       -59.8688 
  20   2.0000      -0.707188       -19.2436 
  21   2.0000      -0.689730       -18.7685 
  22   2.0000      -0.669942       -18.2301 
  23   2.0000      -0.615921       -16.7601 
  24   2.0000      -0.351079        -9.5533 
  25   2.0000      -0.336040        -9.1441 
  26   2.0000      -0.332383        -9.0446 
  27   2.0000      -0.310465        -8.4482 
  28   2.0000      -0.297567        -8.0972 
  29   2.0000      -0.282302        -7.6818 
  30   2.0000      -0.265039        -7.2121 
  31   2.0000      -0.246509        -6.7078 
  32   2.0000      -0.202831        -5.5193 
  33   2.0000      -0.199177        -5.4199 
  34   2.0000      -0.191188        -5.2025 
  35   2.0000      -0.150459        -4.0942 
  36   2.0000      -0.149355        -4.0642 
  37   2.0000      -0.144542        -3.9332 
  38   2.0000      -0.140498        -3.8231 
  39   2.0000      -0.131701        -3.5838 
  40   0.0000       0.093679         2.5491 
  41   0.0000       0.128362         3.4929 
  42   0.0000       0.213433         5.8078 
  43   0.0000       0.257919         7.0183 
  44   0.0000       0.264960         7.2099 
  45   0.0000       0.282158         7.6779 
  46   0.0000       0.339929         9.2499 
  47   0.0000       0.354406         9.6439 
  48   0.0000       0.379634        10.3304 
  49   0.0000       0.431916        11.7530 
  50   0.0000       0.524998        14.2859 
  51   0.0000       0.537543        14.6273 
  52   0.0000       0.562879        15.3167 
  53   0.0000       0.589032        16.0284 
  54   0.0000       0.650574        17.7030 
  55   0.0000       0.706597        19.2275 
  56   0.0000       0.713967        19.4280 
  57   0.0000       0.781627        21.2691 
  58   0.0000       0.804841        21.9008 
  59   0.0000       0.843751        22.9596 
  60   0.0000       0.913161        24.8484 
  61   0.0000       0.922865        25.1124 
  62   0.0000       0.939586        25.5674 
  63   0.0000       0.951504        25.8917 
  64   0.0000       0.988119        26.8881 
  65   0.0000       1.000135        27.2151 
  66   0.0000       1.025246        27.8984 
  67   0.0000       1.026495        27.9323 
  68   0.0000       1.030541        28.0425 
  69   0.0000       1.033594        28.1255 
  70   0.0000       1.039678        28.2911 
  71   0.0000       1.052397        28.6372 
  72   0.0000       1.068484        29.0749 
  73   0.0000       1.072913        29.1954 
  74   0.0000       1.083412        29.4811 
  75   0.0000       1.091360        29.6974 
  76   0.0000       1.102031        29.9878 
  77   0.0000       1.111330        30.2408 
  78   0.0000       1.142611        31.0920 
  79   0.0000       1.159735        31.5580 
  80   0.0000       1.186304        32.2810 
  81   0.0000       1.212696        32.9991 
  82   0.0000       1.241058        33.7709 
  83   0.0000       1.264681        34.4137 
  84   0.0000       1.284415        34.9507 
  85   0.0000       1.301297        35.4101 
  86   0.0000       1.331052        36.2198 
  87   0.0000       1.344090        36.5745 
  88   0.0000       1.417216        38.5644 
  89   0.0000       1.443740        39.2862 
  90   0.0000       1.520887        41.3854 
  91   0.0000       1.575899        42.8824 
  92   0.0000       1.603942        43.6455 
  93   0.0000       1.608655        43.7737 
  94   0.0000       1.633734        44.4562 
  95   0.0000       1.648380        44.8547 
  96   0.0000       1.677425        45.6450 
  97   0.0000       1.844888        50.2020 
  98   0.0000       1.906148        51.8689 
  99   0.0000       1.973132        53.6917 
 100   0.0000       2.055944        55.9451 
 101   0.0000       2.066267        56.2260 
 102   0.0000       2.465503        67.0898 
 103   0.0000       2.488325        67.7108 
 104   0.0000       2.490637        67.7737 
 105   0.0000       2.548048        69.3359 
 106   0.0000      13.842519       376.6741 
 107   0.0000      51.207158      1393.4176 
 108   0.0000     282.788058      7695.0543 

                    ********************************
                    * MULLIKEN POPULATION ANALYSIS *
                    ********************************

-----------------------
MULLIKEN ATOMIC CHARGES
-----------------------
   0 Pt:    0.235382
   1 Cl:   -0.370960
   2 Cl:   -0.410497
   3 Cl:   -0.383480
   4 C :   -0.900687
   5 H :    0.224431
   6 H :    0.174542
   7 H :    0.223035
   8 H :    0.208235
Sum of atomic charges:   -1.0000000

--------------------------------
MULLIKEN REDUCED ORBITAL CHARGES
--------------------------------
  0 Pts       :     2.707436  s :     2.707436
      pz      :     2.134469  p :     6.484488
      px      :     2.178859
      py      :     2.171160
      dz2     :     1.447457  d :     8.539899
      dxz     :     1.897298
      dyz     :     1.798602
      dx2y2   :     1.992951
      dxy     :     1.403591
      f0      :     0.007112  f :     0.032796
      f+1     :     0.004907
      f-1     :     0.005956
      f+2     :     0.001501
      f-2     :     0.004905
      f+3     :     0.003866
      f-3     :     0.004549
  1 Cls       :     5.939021  s :     5.939021
      pz      :     3.565905  p :    11.414509
      px      :     3.934036
      py      :     3.914568
      dz2     :     0.007394  d :     0.017431
      dxz     :     0.004165
      dyz     :     0.004531
      dx2y2   :     0.000498
      dxy     :     0.000844
  2 Cls       :     5.930652  s :     5.930652
      pz      :     3.883594  p :    11.462552
      px      :     3.774402
      py      :     3.804556
      dz2     :     0.002463  d :     0.017293
      dxz     :     0.002954
      dyz     :     0.003325
      dx2y2   :     0.003710
      dxy     :     0.004841
  3 Cls       :     5.939837  s :     5.939837
      pz      :     3.624500  p :    11.426693
      px      :     3.910734
      py      :     3.891459
      dz2     :     0.006459  d :     0.016950
      dxz     :     0.004098
      dyz     :     0.004784
      dx2y2   :     0.000795
      dxy     :     0.000814
  4 C s       :     3.444664  s :     3.444664
      pz      :     1.132715  p :     3.423639
      px      :     1.140752
      py      :     1.150172
      dz2     :     0.006844  d :     0.032384
      dxz     :     0.010190
      dyz     :     0.002999
      dx2y2   :     0.003900
      dxy     :     0.008450
  5 H s       :     0.775569  s :     0.775569
  6 H s       :     0.825458  s :     0.825458
  7 H s       :     0.776965  s :     0.776965
  8 H s       :     0.791765  s :     0.791765


                     *******************************
                     * LOEWDIN POPULATION ANALYSIS *
                     *******************************

----------------------
LOEWDIN ATOMIC CHARGES
----------------------
   0 Pt:   -0.784745
   1 Cl:   -0.094127
   2 Cl:   -0.150646
   3 Cl:   -0.099306
   4 C :   -0.488604
   5 H :    0.139159
   6 H :    0.200793
   7 H :    0.138529
   8 H :    0.138948

-------------------------------
LOEWDIN REDUCED ORBITAL CHARGES
-------------------------------
  0 Pts       :     2.678565  s :     2.678565
      pz      :     2.350424  p :     6.955968
      px      :     2.299937
      py      :     2.305607
      dz2     :     1.613465  d :     9.096080
      dxz     :     2.000670
      dyz     :     1.918827
      dx2y2   :     2.046489
      dxy     :     1.516629
      f0      :     0.012683  f :     0.054131
      f+1     :     0.007679
      f-1     :     0.009856
      f+2     :     0.002402
      f-2     :     0.008732
      f+3     :     0.006424
      f-3     :     0.006356
  1 Cls       :     5.753630  s :     5.753630
      pz      :     3.551791  p :    11.320645
      px      :     3.893231
      py      :     3.875623
      dz2     :     0.008169  d :     0.019852
      dxz     :     0.004829
      dyz     :     0.005368
      dx2y2   :     0.000543
      dxy     :     0.000943
  2 Cls       :     5.745066  s :     5.745066
      pz      :     3.852923  p :    11.384760
      px      :     3.753144
      py      :     3.778692
      dz2     :     0.003018  d :     0.020821
      dxz     :     0.003467
      dyz     :     0.003904
      dx2y2   :     0.004302
      dxy     :     0.006129
  3 Cls       :     5.752643  s :     5.752643
      pz      :     3.607927  p :    11.327253
      px      :     3.868202
      py      :     3.851124
      dz2     :     0.007585  d :     0.019410
      dxz     :     0.004687
      dyz     :     0.005392
      dx2y2   :     0.000866
      dxy     :     0.000880
  4 C s       :     2.998328  s :     2.998328
      pz      :     1.127726  p :     3.433109
      px      :     1.142105
      py      :     1.163278
      dz2     :     0.011583  d :     0.057168
      dxz     :     0.017727
      dyz     :     0.005515
      dx2y2   :     0.007386
      dxy     :     0.014957
  5 H s       :     0.860841  s :     0.860841
  6 H s       :     0.799207  s :     0.799207
  7 H s       :     0.861471  s :     0.861471
  8 H s       :     0.861052  s :     0.861052


                      *****************************
                      * MAYER POPULATION ANALYSIS *
                      *****************************

  NA   - Mulliken gross atomic population
  ZA   - Total nuclear charge
  QA   - Mulliken gross atomic charge
  VA   - Mayer's total valence
  BVA  - Mayer's bonded valence
  FA   - Mayer's free valence

  ATOM       NA         ZA         QA         VA         BVA        FA
  0 Pt    17.7646    18.0000     0.2354     3.9539     3.9539     0.0000
  1 Cl    17.3710    17.0000    -0.3710     1.0081     1.0081    -0.0000
  2 Cl    17.4105    17.0000    -0.4105     0.9906     0.9906    -0.0000
  3 Cl    17.3835    17.0000    -0.3835     0.9965     0.9965    -0.0000
  4 C      6.9007     6.0000    -0.9007     3.7382     3.7382     0.0000
  5 H      0.7756     1.0000     0.2244     0.9033     0.9033    -0.0000
  6 H      0.8255     1.0000     0.1745     0.9790     0.9790     0.0000
  7 H      0.7770     1.0000     0.2230     0.9043     0.9043    -0.0000
  8 H      0.7918     1.0000     0.2082     0.9038     0.9038     0.0000

  Mayer bond orders larger than 0.100000
B(  0-Pt,  1-Cl) :   0.7899 B(  0-Pt,  2-Cl) :   0.7465 B(  0-Pt,  3-Cl) :   0.7888 
B(  0-Pt,  4-C ) :   0.7346 B(  0-Pt,  6-H ) :   0.8811 B(  1-Cl,  3-Cl) :   0.1487 
B(  2-Cl,  4-C ) :   0.1956 B(  4-C ,  5-H ) :   0.9073 B(  4-C ,  7-H ) :   0.9075 
B(  4-C ,  8-H ) :   0.9087 

-------
TIMINGS
-------

Total SCF time: 0 days 0 hours 0 min 9 sec 

Total time                  ....       9.295 sec
Sum of individual times     ....       9.041 sec  ( 97.3%)

Fock matrix formation       ....       8.602 sec  ( 92.5%)
  Split-RI-J                ....       0.953 sec  ( 11.1% of F)
  Chain of spheres X        ....       6.575 sec  ( 76.4% of F)
  XC integration            ....       1.042 sec  ( 12.1% of F)
    Basis function eval.    ....       0.364 sec  ( 34.9% of XC)
    Density eval.           ....       0.160 sec  ( 15.3% of XC)
    XC-Functional eval.     ....       0.134 sec  ( 12.9% of XC)
    XC-Potential eval.      ....       0.191 sec  ( 18.3% of XC)
Diagonalization             ....       0.060 sec  (  0.6%)
Density matrix formation    ....       0.003 sec  (  0.0%)
Population analysis         ....       0.004 sec  (  0.0%)
Initial guess               ....       0.002 sec  (  0.0%)
Orbital Transformation      ....       0.000 sec  (  0.0%)
Orbital Orthonormalization  ....       0.000 sec  (  0.0%)
DIIS solution               ....       0.051 sec  (  0.5%)
Grid generation             ....       0.319 sec  (  3.4%)

Maximum memory used throughout the entire SCF-calculation: 62.2 MB


-------------------------------------------------------------------------------
                          DFT DISPERSION CORRECTION                            
                                                                               
                              DFTD3 V3.1  Rev 1                                
                          USING Becke-Johnson damping                          
-------------------------------------------------------------------------------
The PBEh-3c composite method is recognized
Using three-body term ABC
Active option DFTDOPT                   ...         4   

molecular C6(AA) [au] = 3373.461554 


            DFT-D V3
 parameters
 s6 scaling factor         :     1.0000 
 a1 scaling factor         :     0.4860 
 s8 scaling factor         :     0.0000 
 a2 scaling factor         :     4.5000 
 Damping factor alpha9(ATM):    16.0000 
 ad hoc parameters k1-k3   :    16.0000     1.3333    -4.0000 

 Edisp/kcal,au: -3.380456328891  -0.005387099491 
 E6   /kcal   :  -3.390972804 
 E8   /kcal   :  -0.000000000 
 E6(ABC)      :   0.010516475 
 % E8         :   0.000000000 
 % E6(ABC)    :  -0.311096315 

-------------------------   ----------------
Dispersion correction           -0.005387099
-------------------------   ----------------

 ** NOTE ** -> element pt will be treated as ni
NOTIFICATION: Different basis set in ORCA and otool_gcp:
ORCA: 109  gCP: 108 
If you are NOT using ECPs, check your basis set inputs!
------------------   -----------------
gCP correction             0.021059023
------------------   -----------------

-------------------------   --------------------
FINAL SINGLE POINT ENERGY     -1539.018556142647
-------------------------   --------------------



           ************************************************************
           *        Program running with 4 parallel MPI-processes     *
           *              working on a common directory               *
           ************************************************************
------------------------------------------------------------------------------
                         ORCA SCF GRADIENT CALCULATION
------------------------------------------------------------------------------

 ... reading COSX grid (gridx3)
Gradient of the Kohn-Sham DFT energy:
Kohn-Sham wavefunction type      ... RKS
Hartree-Fock exchange scaling    ...    0.420
Number of operators              ...    1
Number of atoms                  ...    9
Basis set dimensions             ...  109
Integral neglect threshold       ... 2.5e-11
Integral primitive cutoff        ... 2.5e-12
SHARK Integral package           ... ON

Nuc. rep. gradient       (SHARK) ... done (  0.0 sec)
HCore & Overlap gradient (SHARK) ... done (  0.0 sec)
ECP gradient             (SHARK) ... done (  0.3 sec)
RI-J gradient            (SHARK) ... done (  0.2 sec)
COSX-gradient                    ... done (  0.9 sec)
Exchange-correlation gradient    ... done
Dispersion correction            ... done
gCP correction                   ... done

------------------
CARTESIAN GRADIENT
------------------

   1   Pt  :   -0.012059215   -0.001746057   -0.004917248
   2   Cl  :   -0.006848033   -0.011620248    0.001706053
   3   Cl  :    0.025209376    0.023841267   -0.004850711
   4   Cl  :   -0.000977420   -0.006293024    0.002421639
   5   C   :    0.005130100    0.013251894   -0.001796574
   6   H   :   -0.000322278   -0.003918182    0.001655526
   7   H   :   -0.003106880   -0.003029664    0.002122291
   8   H   :   -0.000996823   -0.005207975    0.001317044
   9   H   :   -0.005304896   -0.005737401    0.002716744

Difference to translation invariance:
           :    0.0007239298   -0.0004593910    0.0003747649

Difference to rotation invariance:
           :   -0.0013499790   -0.0020957523    0.0054877776

Norm of the cartesian gradient     ...    0.0444560611
RMS gradient                       ...    0.0085555729
MAX gradient                       ...    0.0252093758

-------
TIMINGS
-------

Total SCF gradient time            ...        1.921 sec

One electron gradient       ....       0.305 sec  ( 15.9%)
RI-J Coulomb gradient       ....       0.212 sec  ( 11.0%)
COSX gradient               ....       0.890 sec  ( 46.3%)
XC gradient                 ....       0.191 sec  ( 10.0%)

Maximum memory used throughout the entire SCFGRAD-calculation: 37.0 MB
------------------------------------------------------------------------------
                         ORCA GEOMETRY RELAXATION STEP
------------------------------------------------------------------------------

Reading the OPT-File                    .... done
Getting information on internals        .... done
Copying old internal coords+grads       .... done
Making the new internal coordinates     .... (new redundants).... done
Validating the new internal coordinates .... (new redundants).... done
Calculating the B-matrix                .... done
Calculating the G,G- and P matrices     .... done
Transforming gradient to internals      .... done
Projecting the internal gradient        .... done
Number of atoms                         ....   9
Number of internal coordinates          ....  36
Current Energy                          .... -1539.018556143 Eh
Current gradient norm                   ....     0.044456061 Eh/bohr
Maximum allowed component of the step   ....  0.300
Current trust radius                    ....  0.300
Evaluating the initial hessian          ....  (Almloef) done
Projecting the Hessian                  .... done
Forming the augmented Hessian           .... done
Diagonalizing the augmented Hessian     .... done
Last element of RFO vector              ....  0.923621648
Lowest eigenvalues of augmented Hessian:
 -0.019508918  0.001718128  0.002592022  0.059414140  0.063755459
Length of the computed step             ....  0.415002645
Warning: the length of the step is outside the trust region - taking restricted step instead
The input lambda is                     ....    -0.019509
   iter:   1  x=   -0.041958  g=    3.662827 f(x)=     0.082227
   iter:   2  x=   -0.055305  g=    1.825851 f(x)=     0.024370
   iter:   3  x=   -0.058059  g=    1.319834 f(x)=     0.003635
   iter:   4  x=   -0.058148  g=    1.240569 f(x)=     0.000111
   iter:   5  x=   -0.058148  g=    1.238113 f(x)=     0.000000
   iter:   6  x=   -0.058148  g=    1.238110 f(x)=     0.000000
   iter:   7  x=   -0.058148  g=    1.238110 f(x)=     0.000000
The output lambda is                    ....    -0.058148 (7 iterations)
The final length of the internal step   ....  0.300000000
Converting the step to cartesian space:
 Initial RMS(Int)=    0.0500000000
Transforming coordinates:
 Iter   0:  RMS(Cart)=    0.0687181546 RMS(Int)=    0.0415419784
 Iter   1:  RMS(Cart)=    0.0111480473 RMS(Int)=    0.0099943888
 Iter   2:  RMS(Cart)=    0.0002770254 RMS(Int)=    0.0005960858
 Iter   3:  RMS(Cart)=    0.0000400078 RMS(Int)=    0.0002233901
 Iter   4:  RMS(Cart)=    0.0000130348 RMS(Int)=    0.0000796718
 Iter   5:  RMS(Cart)=    0.0000046889 RMS(Int)=    0.0000288516
 Iter   6:  RMS(Cart)=    0.0000016993 RMS(Int)=    0.0000104340
 Iter   7:  RMS(Cart)=    0.0000006143 RMS(Int)=    0.0000037735
 Iter   8:  RMS(Cart)=    0.0000002222 RMS(Int)=    0.0000013647
 Iter   9:  RMS(Cart)=    0.0000000804 RMS(Int)=    0.0000004936
done
Storing new coordinates                 .... done

                                .--------------------.
          ----------------------|Geometry convergence|-------------------------
          Item                value                   Tolerance       Converged
          ---------------------------------------------------------------------
          RMS gradient        0.0088661812            0.0001000000      NO
          MAX gradient        0.0336953299            0.0003000000      NO
          RMS step            0.0500000000            0.0020000000      NO
          MAX step            0.2607859866            0.0040000000      NO
          ........................................................
          Max(Bonds)      0.1380      Max(Angles)    4.33
          Max(Dihed)        1.16      Max(Improp)    0.00
          ---------------------------------------------------------------------

The optimization has not yet converged - more geometry cycles are needed


    ---------------------------------------------------------------------------
                         Redundant Internal Coordinates
                            (Angstroem and degrees)

        Definition                    Value    dE/dq     Step     New-Value
    ----------------------------------------------------------------------------
     1. B(Cl  1,Pt  0)                2.3207 -0.002290  0.0099    2.3307   
     2. B(Cl  2,Pt  0)                2.2918 -0.033695  0.1380    2.4298   
     3. B(Cl  3,Pt  0)                2.3213  0.000023 -0.0001    2.3212   
     4. B(C   4,Pt  0)                2.0697 -0.003303  0.0135    2.0831   
     5. B(H   5,C   4)                1.0899  0.000047 -0.0001    1.0898   
     6. B(H   6,Pt  0)                1.4840 -0.000471  0.0014    1.4854   
     7. B(H   7,C   4)                1.0899 -0.000201  0.0003    1.0902   
     8. B(H   8,C   4)                1.0934 -0.001455  0.0019    1.0952   
     9. A(Cl  1,Pt  0,Cl  2)           82.99 -0.021532    4.18     87.16   
    10. A(Cl  3,Pt  0,C   4)           92.87  0.005941   -1.16     91.72   
    11. A(Cl  1,Pt  0,Cl  3)          174.21 -0.021484    4.33    178.54   
    12. A(Cl  2,Pt  0,C   4)          173.94 -0.009237    1.80    175.74   
    13. A(Cl  1,Pt  0,H   6)           88.84 -0.002651    1.00     89.83   
    14. A(Cl  2,Pt  0,Cl  3)           91.40  0.000778   -0.23     91.17   
    15. A(Cl  1,Pt  0,C   4)           92.83  0.015289   -2.95     89.88   
    16. A(Cl  2,Pt  0,H   6)           92.09 -0.003497    0.74     92.83   
    17. A(Cl  3,Pt  0,H   6)           89.95 -0.002449    0.97     90.93   
    18. A(C   4,Pt  0,H   6)           92.21  0.010014   -1.96     90.24   
    19. A(Pt  0,C   4,H   5)          110.41 -0.003120    0.53    110.94   
    20. A(H   5,C   4,H   7)          110.73  0.004147   -0.65    110.08   
    21. A(Pt  0,C   4,H   8)          103.73 -0.010113    1.74    105.47   
    22. A(H   5,C   4,H   8)          110.68  0.006503   -1.20    109.48   
    23. A(Pt  0,C   4,H   7)          110.40 -0.005421    0.98    111.38   
    24. A(H   7,C   4,H   8)          110.70  0.007124   -1.25    109.45   
    25. D(H   5,C   4,Pt  0,Cl  2)     74.60 -0.000228    0.41     75.01   
    26. D(H   5,C   4,Pt  0,Cl  3)   -150.59  0.002254   -1.16   -151.75   
    27. D(H   5,C   4,Pt  0,H   6)    -60.52  0.000533   -0.33    -60.85   
    28. D(H   7,C   4,Pt  0,Cl  1)    151.19 -0.001633    0.67    151.86   
    29. D(H   7,C   4,Pt  0,Cl  2)   -162.63 -0.000801    0.62   -162.01   
    30. D(H   7,C   4,Pt  0,Cl  3)    -27.82  0.001682   -0.95    -28.77   
    31. D(H   7,C   4,Pt  0,H   6)     62.25 -0.000040   -0.12     62.13   
    32. D(H   8,C   4,Pt  0,Cl  1)    -90.18 -0.001536    0.65    -89.54   
    33. D(H   8,C   4,Pt  0,Cl  2)    -44.00 -0.000704    0.59    -43.41   
    34. D(H   8,C   4,Pt  0,Cl  3)     90.81  0.001778   -0.98     89.83   
    35. D(H   8,C   4,Pt  0,H   6)   -179.13  0.000057   -0.15   -179.27   
    36. D(H   5,C   4,Pt  0,Cl  1)     28.42 -0.001060    0.46     28.89   
    ----------------------------------------------------------------------------

         *************************************************************
         *                GEOMETRY OPTIMIZATION CYCLE   2            *
         *************************************************************
---------------------------------
CARTESIAN COORDINATES (ANGSTROEM)
---------------------------------
  Pt    -0.505105   -0.767377    0.333540
  Cl    -0.081708   -0.094097    2.524293
  Cl    -2.026375   -2.420097    1.259834
  Cl    -0.983549   -1.463739   -1.828423
  C      0.734532    0.753611   -0.365972
  H      1.511847    0.987757    0.361081
  H      0.655886   -1.691654    0.399384
  H      1.184712    0.490353   -1.323306
  H      0.083010    1.624173   -0.496861

----------------------------
CARTESIAN COORDINATES (A.U.)
----------------------------
  NO LB      ZA    FRAG     MASS         X           Y           Z
   0 Pt   18.0000*   0   195.090   -0.954510   -1.450132    0.630300
   1 Cl   17.0000    0    35.453   -0.154406   -0.177818    4.770222
   2 Cl   17.0000    0    35.453   -3.829294   -4.573321    2.380741
   3 Cl   17.0000    0    35.453   -1.858638   -2.766066   -3.455218
   4 C     6.0000    0    12.011    1.388064    1.424118   -0.691587
   5 H     1.0000    0     1.008    2.856977    1.866591    0.682344
   6 H     1.0000    0     1.008    1.239444   -3.196762    0.754727
   7 H     1.0000    0     1.008    2.238781    0.926633   -2.500687
   8 H     1.0000    0     1.008    0.156867    3.069242   -0.938932
* core charge reduced due to ECP

--------------------------------
INTERNAL COORDINATES (ANGSTROEM)
--------------------------------
 Pt     0   0   0     0.000000000000     0.00000000     0.00000000
 Cl     1   0   0     2.330657702642     0.00000000     0.00000000
 Cl     1   2   0     2.429767012515    87.24251075     0.00000000
 Cl     1   2   3     2.321187695338   178.38419711    21.93887020
 C      1   2   3     2.083127327852    89.80587815   176.92985934
 H      5   1   2     1.089793591168   110.93459821    28.91752789
 H      1   2   3     1.485436597622    89.77640593   267.16515367
 H      5   1   2     1.090163417431   111.36474201   151.88911116
 H      5   1   2     1.095212416542   105.45642683   270.49440846

---------------------------
INTERNAL COORDINATES (A.U.)
---------------------------
 Pt     0   0   0     0.000000000000     0.00000000     0.00000000
 Cl     1   0   0     4.404304769908     0.00000000     0.00000000
 Cl     1   2   0     4.591594222890    87.24251075     0.00000000
 Cl     1   2   3     4.386409049617   178.38419711    21.93887020
 C      1   2   3     3.936540151728    89.80587815   176.92985934
 H      5   1   2     2.059411429811   110.93459821    28.91752789
 H      1   2   3     2.807068358810    89.77640593   267.16515367
 H      5   1   2     2.060110300163   111.36474201   151.88911116
 H      5   1   2     2.069651525734   105.45642683   270.49440846



           ************************************************************
           *        Program running with 4 parallel MPI-processes     *
           *              working on a common directory               *
           ************************************************************
------------------------------------------------------------------------------
                   ___                                                        
                  /   \      - P O W E R E D   B Y -                         
                 /     \                                                     
                 |  |  |   _    _      __       _____    __    __             
                 |  |  |  | |  | |    /  \     |  _  \  |  |  /  |          
                  \  \/   | |  | |   /    \    | | | |  |  | /  /          
                 / \  \   | |__| |  /  /\  \   | |_| |  |  |/  /          
                |  |  |   |  __  | /  /__\  \  |    /   |      \           
                |  |  |   | |  | | |   __   |  |    \   |  |\   \          
                \     /   | |  | | |  |  |  |  | |\  \  |  | \   \       
                 \___/    |_|  |_| |__|  |__|  |_| \__\ |__|  \__/        
                                                                              
                      - O R C A' S   B I G   F R I E N D -                    
                                      &                                       
                       - I N T E G R A L  F E E D E R -                       
                                                                              
 v1 FN, 2020, v2 2021                                                         
------------------------------------------------------------------------------


Reading SHARK input file reaction-6-prod-pbeh3c-orca_opt.SHARKINP.tmp ... ok
----------------------
SHARK INTEGRAL PACKAGE
----------------------

Number of atoms                             ...      9
Number of basis functions                   ...    109
Number of shells                            ...     51
Maximum angular momentum                    ...      3
Integral batch strategy                     ... SHARK/LIBINT Hybrid
RI-J (if used) integral strategy            ... SPLIT-RIJ (Revised 2003 algorithm where possible)
Printlevel                                  ...      1
Contraction scheme used                     ... SEGMENTED contraction
Coulomb Range Separation                    ... NOT USED
Exchange Range Separation                   ... NOT USED
Finite Nucleus Model                        ... NOT USED
Auxiliary Coulomb fitting basis             ... AVAILABLE
   # of basis functions in Aux-J            ...    335
   # of shells in Aux-J                     ...    109
   Maximum angular momentum in Aux-J        ...      4
Auxiliary J/K fitting basis                 ... NOT available
Auxiliary Correlation fitting basis         ... NOT available
Auxiliary 'external' fitting basis          ... NOT available
Integral threshold                          ...     2.500000e-11
Primitive cut-off                           ...     2.500000e-12
Primitive pair pre-selection threshold      ...     2.500000e-12

Calculating pre-screening integrals         ... done (  0.0 sec) Dimension = 51
Organizing shell pair data                  ... done (  0.0 sec)
Shell pair information
Total number of shell pairs                 ...      1326
Shell pairs after pre-screening             ...      1202
Total number of primitive shell pairs       ...      5360
Primitive shell pairs kept                  ...      3533
          la=0 lb=0:    405 shell pairs
          la=1 lb=0:    373 shell pairs
          la=1 lb=1:     99 shell pairs
          la=2 lb=0:    172 shell pairs
          la=2 lb=1:     81 shell pairs
          la=2 lb=2:     21 shell pairs
          la=3 lb=0:     30 shell pairs
          la=3 lb=1:     14 shell pairs
          la=3 lb=2:      6 shell pairs
          la=3 lb=3:      1 shell pairs

Calculating one electron integrals          ... done (  0.0 sec)
Calculating ECP integrals                   ... done (  0.1 sec)
Calculating RI/J V-Matrix + Cholesky decomp.... done (  0.0 sec)
Calculating Nuclear repulsion               ... done (  0.0 sec) ENN=    463.348247296825 Eh

SHARK setup successfully completed in   0.3 seconds

Maximum memory used throughout the entire GTOINT-calculation: 14.2 MB


           ************************************************************
           *        Program running with 4 parallel MPI-processes     *
           *              working on a common directory               *
           ************************************************************

Diagonalization of the overlap matrix:
Smallest eigenvalue                        ... 9.462e-03
Time for diagonalization                   ...    0.003 sec
Threshold for overlap eigenvalues          ... 1.000e-08
Number of eigenvalues below threshold      ... 0
Time for construction of square roots      ...    0.001 sec
Total time needed                          ...    0.005 sec

-------------------
DFT GRID GENERATION
-------------------

General Integration Accuracy     IntAcc      ... 4.159
Radial Grid Type                 RadialGrid  ... OptM3 with GC (2021)
Angular Grid (max. ang.)         AngularGrid ... 3 (Lebedev-194)
Angular grid pruning method      GridPruning ... 4 (adaptive)
Weight generation scheme         WeightScheme... Becke
Basis function cutoff            BFCut       ... 1.0000e-11
Integration weight cutoff        WCut        ... 1.0000e-14
Angular grids for H and He will be reduced by one unit
Partially contracted basis set               ... off
Rotationally invariant grid construction     ... off

Total number of grid points                  ...    27609
Total number of batches                      ...      437
Average number of points per batch           ...       63
Average number of grid points per atom       ...     3068
Time for grid setup =    0.109 sec

--------------------
COSX GRID GENERATION
--------------------

GRIDX 1
-------
General Integration Accuracy     IntAcc      ... 3.816
Radial Grid Type                 RadialGrid  ... OptM3 with GC (2021)
Angular Grid (max. ang.)         AngularGrid ... 1 (Lebedev-50)
Angular grid pruning method      GridPruning ... 4 (adaptive)
Weight generation scheme         WeightScheme... Becke
Basis function cutoff            BFCut       ... 1.0000e-11
Integration weight cutoff        WCut        ... 1.0000e-14
Angular grids for H and He will be reduced by one unit
Partially contracted basis set               ... on
Rotationally invariant grid construction     ... off

Total number of grid points                  ...     6244
Total number of batches                      ...      101
Average number of points per batch           ...       61
Average number of grid points per atom       ...      694
UseSFitting                                  ... on

GRIDX 2
-------
General Integration Accuracy     IntAcc      ... 4.020
Radial Grid Type                 RadialGrid  ... OptM3 with GC (2021)
Angular Grid (max. ang.)         AngularGrid ... 2 (Lebedev-110)
Angular grid pruning method      GridPruning ... 4 (adaptive)
Weight generation scheme         WeightScheme... Becke
Basis function cutoff            BFCut       ... 1.0000e-11
Integration weight cutoff        WCut        ... 1.0000e-14
Angular grids for H and He will be reduced by one unit
Partially contracted basis set               ... on
Rotationally invariant grid construction     ... off

Total number of grid points                  ...    14700
Total number of batches                      ...      236
Average number of points per batch           ...       62
Average number of grid points per atom       ...     1633
UseSFitting                                  ... on

GRIDX 3
-------
General Integration Accuracy     IntAcc      ... 4.338
Radial Grid Type                 RadialGrid  ... OptM3 with GC (2021)
Angular Grid (max. ang.)         AngularGrid ... 3 (Lebedev-194)
Angular grid pruning method      GridPruning ... 4 (adaptive)
Weight generation scheme         WeightScheme... Becke
Basis function cutoff            BFCut       ... 1.0000e-11
Integration weight cutoff        WCut        ... 1.0000e-14
Angular grids for H and He will be reduced by one unit
Partially contracted basis set               ... on
Rotationally invariant grid construction     ... off

Total number of grid points                  ...    32792
Total number of batches                      ...      517
Average number of points per batch           ...       63
Average number of grid points per atom       ...     3644
UseSFitting                                  ... on

Time for X-Grid setup             =    0.205 sec

--------------
SCF ITERATIONS
--------------
ITER       Energy         Delta-E        Max-DP      RMS-DP      [F,P]     Damp
               ***  Starting incremental Fock matrix formation  ***
  0  -1539.0369125176   0.000000000000 0.00441272  0.00029202  0.3181123 0.7000
  1  -1539.0380178674  -0.001105349783 0.00433270  0.00027787  0.2229059 0.7000
                               ***Turning on DIIS***
  2  -1539.0388603008  -0.000842433410 0.00365926  0.00022550  0.1560917 0.7000
  3  -1539.0394797544  -0.000619453589 0.00307534  0.00018811  0.1092993 0.7000
  4  -1539.0399335754  -0.000453821082 0.00822606  0.00049997  0.0765142 0.0000
  5  -1539.0410767390  -0.001143163541 0.00192039  0.00008318  0.0005166 0.0000
               *** Restarting incremental Fock matrix formation ***
                                   *** Resetting DIIS ***
  6  -1539.0410871954  -0.000010456371 0.00079156  0.00002579  0.0002163 0.0000
  7  -1539.0410883700  -0.000001174604 0.00023881  0.00000980  0.0001414 0.0000
  8  -1539.0410885461  -0.000000176162 0.00023345  0.00000643  0.0001110 0.0000
  9  -1539.0410886188  -0.000000072641 0.00007151  0.00000199  0.0000372 0.0000
 10  -1539.0410886235  -0.000000004734 0.00002895  0.00000095  0.0000146 0.0000
 11  -1539.0410886250  -0.000000001468 0.00001925  0.00000046  0.0000122 0.0000
 12  -1539.0410886239   0.000000001054 0.00000877  0.00000020  0.0000020 0.0000
                 **** Energy Check signals convergence ****

               *****************************************************
               *                     SUCCESS                       *
               *           SCF CONVERGED AFTER  13 CYCLES          *
               *****************************************************

Old exchange energy                            =    -42.073993195 Eh
New exchange energy                            =    -42.073896733 Eh
Exchange energy change after final integration =      0.000096461 Eh
Total energy after final integration           =  -1539.040992163 Eh
Final COS-X integration done in                =     0.801 sec
Total Energy       :        -1539.04099216 Eh          -41879.43451 eV
  Last Energy change         ...   -3.2719e-10  Tolerance :   1.0000e-08
  Last MAX-Density change    ...    0.0000e+00  Tolerance :   1.0000e-07
             **** THE GBW FILE WAS UPDATED (reaction-6-prod-pbeh3c-orca_opt.gbw) ****
             **** DENSITY reaction-6-prod-pbeh3c-orca_opt.scfp WAS UPDATED ****
             **** ENERGY FILE WAS UPDATED (reaction-6-prod-pbeh3c-orca_opt.en.tmp) ****
             **** THE GBW FILE WAS UPDATED (reaction-6-prod-pbeh3c-orca_opt.gbw) ****
             **** DENSITY reaction-6-prod-pbeh3c-orca_opt.scfp WAS UPDATED ****
Total SCF time: 0 days 0 hours 0 min 6 sec 

Maximum memory used throughout the entire SCF-calculation: 62.2 MB


-------------------------------------------------------------------------------
                          DFT DISPERSION CORRECTION                            
                                                                               
                              DFTD3 V3.1  Rev 1                                
                          USING Becke-Johnson damping                          
-------------------------------------------------------------------------------
-------------------------   ----------------
Dispersion correction           -0.005323156
-------------------------   ----------------

 ** NOTE ** -> element pt will be treated as ni
NOTIFICATION: Different basis set in ORCA and otool_gcp:
ORCA: 109  gCP: 108 
If you are NOT using ECPs, check your basis set inputs!
------------------   -----------------
gCP correction             0.020118481
------------------   -----------------

-------------------------   --------------------
FINAL SINGLE POINT ENERGY     -1539.026196837216
-------------------------   --------------------



           ************************************************************
           *        Program running with 4 parallel MPI-processes     *
           *              working on a common directory               *
           ************************************************************
------------------------------------------------------------------------------
                         ORCA SCF GRADIENT CALCULATION
------------------------------------------------------------------------------

 ... reading COSX grid (gridx3)
Gradient of the Kohn-Sham DFT energy:
Kohn-Sham wavefunction type      ... RKS
Hartree-Fock exchange scaling    ...    0.420
Number of operators              ...    1
Number of atoms                  ...    9
Basis set dimensions             ...  109
Integral neglect threshold       ... 2.5e-11
Integral primitive cutoff        ... 2.5e-12
SHARK Integral package           ... ON

Nuc. rep. gradient       (SHARK) ... done (  0.0 sec)
HCore & Overlap gradient (SHARK) ... done (  0.0 sec)
ECP gradient             (SHARK) ... done (  0.3 sec)
RI-J gradient            (SHARK) ... done (  0.2 sec)
COSX-gradient                    ... done (  0.9 sec)
Exchange-correlation gradient    ... done
Dispersion correction            ... done
gCP correction                   ... done

------------------
CARTESIAN GRADIENT
------------------

   1   Pt  :   -0.001847287    0.007087296   -0.010257760
   2   Cl  :   -0.001599985   -0.003642286    0.004785235
   3   Cl  :    0.000379609   -0.002191377    0.004591207
   4   Cl  :   -0.000614531   -0.004531631   -0.000289675
[...]
               *** Restarting incremental Fock matrix formation ***
                                   *** Resetting DIIS ***
  4  -1539.0471449536  -0.000000069894 0.00004072  0.00000166  0.0000169 0.0000
  5  -1539.0471449587  -0.000000005129 0.00002662  0.00000076  0.0000099 0.0000
  6  -1539.0471449583   0.000000000376 0.00001816  0.00000047  0.0000097 0.0000
  7  -1539.0471449588  -0.000000000442 0.00000544  0.00000017  0.0000028 0.0000
                            ***DIIS convergence achieved***

               *****************************************************
               *                     SUCCESS                       *
               *           SCF CONVERGED AFTER   8 CYCLES          *
               *****************************************************

Old exchange energy                            =    -42.076084690 Eh
New exchange energy                            =    -42.076211814 Eh
Exchange energy change after final integration =     -0.000127124 Eh
Total energy after final integration           =  -1539.047272081 Eh
Final COS-X integration done in                =     0.813 sec

----------------
TOTAL SCF ENERGY
----------------

Total Energy       :        -1539.04727208 Eh          -41879.60539 eV

Components:
Nuclear Repulsion  :          466.00204925 Eh           12680.56043 eV
Electronic Energy  :        -2005.04932133 Eh          -54560.16582 eV
One Electron Energy:        -3112.92337489 Eh          -84706.95145 eV
Two Electron Energy:         1107.87405356 Eh           30146.78563 eV
Max COSX asymmetry :            0.00001215 Eh               0.00033 eV

Virial components:
Potential Energy   :        -2996.89094094 Eh          -81549.54840 eV
Kinetic Energy     :         1457.84366886 Eh           39669.94301 eV
Virial Ratio       :            2.05570117


DFT components:
N(Alpha)           :       39.999818750835 electrons
N(Beta)            :       39.999818750835 electrons
N(Total)           :       79.999637501671 electrons
E(X)               :      -56.352215981816 Eh       
E(C)               :       -4.040632185576 Eh       
E(XC)              :      -60.392848167392 Eh       
DFET-embed. en.    :        0.000000000000 Eh       

---------------
SCF CONVERGENCE
---------------

  Last Energy change         ...    1.9384e-09  Tolerance :   1.0000e-08
  Last MAX-Density change    ...    0.0000e+00  Tolerance :   1.0000e-07
  Last RMS-Density change    ...    0.0000e+00  Tolerance :   5.0000e-09
  Last DIIS Error            ...    8.9539e-07  Tolerance :   5.0000e-07

             **** THE GBW FILE WAS UPDATED (reaction-6-prod-pbeh3c-orca_opt.gbw) ****
             **** DENSITY reaction-6-prod-pbeh3c-orca_opt.scfp WAS UPDATED ****
             **** ENERGY FILE WAS UPDATED (reaction-6-prod-pbeh3c-orca_opt.en.tmp) ****
             **** THE GBW FILE WAS UPDATED (reaction-6-prod-pbeh3c-orca_opt.gbw) ****
             **** DENSITY reaction-6-prod-pbeh3c-orca_opt.scfp WAS UPDATED ****
----------------
ORBITAL ENERGIES
----------------

  NO   OCC          E(Eh)            E(eV) 
   0   2.0000    -102.100538     -2778.2969 
   1   2.0000    -102.100353     -2778.2919 
   2   2.0000    -102.076107     -2777.6321 
   3   2.0000     -10.318952      -280.7930 
   4   2.0000      -9.564832      -260.2723 
   5   2.0000      -9.564589      -260.2657 
   6   2.0000      -9.540623      -259.6136 
   7   2.0000      -7.251177      -197.3146 
   8   2.0000      -7.250924      -197.3077 
   9   2.0000      -7.245637      -197.1638 
  10   2.0000      -7.245415      -197.1578 
  11   2.0000      -7.245235      -197.1529 
  12   2.0000      -7.245011      -197.1468 
  13   2.0000      -7.225762      -196.6230 
  14   2.0000      -7.222534      -196.5352 
  15   2.0000      -7.221244      -196.5000 
  16   2.0000      -4.003011      -108.9275 
  17   2.0000      -2.212947       -60.2174 
  18   2.0000      -2.203778       -59.9679 
  19   2.0000      -2.191117       -59.6233 
  20   2.0000      -0.704587       -19.1728 
  21   2.0000      -0.687853       -18.7174 
  22   2.0000      -0.670901       -18.2561 
  23   2.0000      -0.638104       -17.3637 
  24   2.0000      -0.375243       -10.2109 
  25   2.0000      -0.351094        -9.5537 
  26   2.0000      -0.319445        -8.6925 
  27   2.0000      -0.306996        -8.3538 
  28   2.0000      -0.296805        -8.0765 
  29   2.0000      -0.278870        -7.5884 
  30   2.0000      -0.255678        -6.9574 
  31   2.0000      -0.230540        -6.2733 
  32   2.0000      -0.205152        -5.5825 
  33   2.0000      -0.197946        -5.3864 
  34   2.0000      -0.190978        -5.1968 
  35   2.0000      -0.157355        -4.2819 
  36   2.0000      -0.154860        -4.2140 
  37   2.0000      -0.150080        -4.0839 
  38   2.0000      -0.144652        -3.9362 
  39   2.0000      -0.143661        -3.9092 
  40   0.0000       0.111079         3.0226 
  41   0.0000       0.115902         3.1538 
  42   0.0000       0.219370         5.9694 
  43   0.0000       0.255400         6.9498 
  44   0.0000       0.268123         7.2960 
  45   0.0000       0.272313         7.4100 
  46   0.0000       0.328530         8.9398 
  47   0.0000       0.343703         9.3526 
  48   0.0000       0.376872        10.2552 
  49   0.0000       0.412635        11.2284 
  50   0.0000       0.533407        14.5147 
  51   0.0000       0.552643        15.0382 
  52   0.0000       0.574328        15.6283 
  53   0.0000       0.580927        15.8078 
  54   0.0000       0.662580        18.0297 
  55   0.0000       0.695969        18.9383 
  56   0.0000       0.701817        19.0974 
  57   0.0000       0.781653        21.2699 
  58   0.0000       0.789804        21.4917 
  59   0.0000       0.839188        22.8355 
  60   0.0000       0.875534        23.8245 
  61   0.0000       0.929661        25.2974 
  62   0.0000       0.930607        25.3231 
  63   0.0000       0.940725        25.5984 
  64   0.0000       0.993743        27.0411 
  65   0.0000       1.009172        27.4610 
  66   0.0000       1.025169        27.8963 
  67   0.0000       1.027842        27.9690 
  68   0.0000       1.033215        28.1152 
  69   0.0000       1.035839        28.1866 
  70   0.0000       1.043076        28.3835 
  71   0.0000       1.055412        28.7192 
  72   0.0000       1.063170        28.9303 
  73   0.0000       1.069628        29.1061 
  74   0.0000       1.078473        29.3467 
  75   0.0000       1.084920        29.5222 
  76   0.0000       1.104068        30.0432 
  77   0.0000       1.110018        30.2051 
  78   0.0000       1.124428        30.5972 
  79   0.0000       1.133419        30.8419 
  80   0.0000       1.179818        32.1045 
  81   0.0000       1.208329        32.8803 
  82   0.0000       1.252905        34.0933 
  83   0.0000       1.264323        34.4040 
  84   0.0000       1.279087        34.8057 
  85   0.0000       1.290073        35.1047 
  86   0.0000       1.296224        35.2720 
  87   0.0000       1.341434        36.5023 
  88   0.0000       1.352229        36.7960 
  89   0.0000       1.468213        39.9521 
  90   0.0000       1.521071        41.3904 
  91   0.0000       1.529739        41.6263 
  92   0.0000       1.586523        43.1715 
  93   0.0000       1.603204        43.6254 
  94   0.0000       1.633320        44.4449 
  95   0.0000       1.669533        45.4303 
  96   0.0000       1.676012        45.6066 
  97   0.0000       1.826708        49.7072 
  98   0.0000       1.930065        52.5197 
  99   0.0000       1.962286        53.3965 
 100   0.0000       2.041370        55.5485 
 101   0.0000       2.056049        55.9479 
 102   0.0000       2.438496        66.3548 
 103   0.0000       2.458417        66.8969 
 104   0.0000       2.478295        67.4378 
 105   0.0000       2.519594        68.5616 
 106   0.0000      13.818173       376.0116 
 107   0.0000      51.146234      1391.7598 
 108   0.0000     282.753614      7694.1170 

                    ********************************
                    * MULLIKEN POPULATION ANALYSIS *
                    ********************************

-----------------------
MULLIKEN ATOMIC CHARGES
-----------------------
   0 Pt:    0.210750
   1 Cl:   -0.389788
   2 Cl:   -0.438049
   3 Cl:   -0.391587
   4 C :   -0.828664
   5 H :    0.239124
   6 H :    0.127819
   7 H :    0.235880
   8 H :    0.234515
Sum of atomic charges:   -1.0000000

--------------------------------
MULLIKEN REDUCED ORBITAL CHARGES
--------------------------------
  0 Pts       :     2.725377  s :     2.725377
      pz      :     2.135103  p :     6.461556
      px      :     2.169130
      py      :     2.157323
      dz2     :     1.485672  d :     8.572207
      dxz     :     1.880986
      dyz     :     1.791162
      dx2y2   :     1.735661
      dxy     :     1.678726
      f0      :     0.006656  f :     0.030111
      f+1     :     0.005901
      f-1     :     0.004515
      f+2     :     0.001982
      f-2     :     0.003461
      f+3     :     0.004080
      f-3     :     0.003516
  1 Cls       :     5.940811  s :     5.940811
      pz      :     3.608595  p :    11.432332
      px      :     3.923651
      py      :     3.900086
      dz2     :     0.006756  d :     0.016644
      dxz     :     0.004037
      dyz     :     0.004458
      dx2y2   :     0.000644
      dxy     :     0.000749
  2 Cls       :     5.948290  s :     5.948290
      pz      :     3.918869  p :    11.478160
      px      :     3.718903
      py      :     3.840387
      dz2     :     0.001676  d :     0.011599
      dxz     :     0.002935
      dyz     :     0.000970
      dx2y2   :     0.002498
      dxy     :     0.003521
  3 Cls       :     5.940714  s :     5.940714
      pz      :     3.600669  p :    11.434172
      px      :     3.926204
      py      :     3.907299
      dz2     :     0.006531  d :     0.016701
      dxz     :     0.004196
      dyz     :     0.004637
      dx2y2   :     0.000655
      dxy     :     0.000681
  4 C s       :     3.452226  s :     3.452226
      pz      :     1.128000  p :     3.341481
      px      :     1.137388
      py      :     1.076092
      dz2     :     0.006680  d :     0.034957
      dxz     :     0.010485
      dyz     :     0.004235
      dx2y2   :     0.003246
      dxy     :     0.010311
  5 H s       :     0.760876  s :     0.760876
  6 H s       :     0.872181  s :     0.872181
  7 H s       :     0.764120  s :     0.764120
  8 H s       :     0.765485  s :     0.765485


                     *******************************
                     * LOEWDIN POPULATION ANALYSIS *
                     *******************************

----------------------
LOEWDIN ATOMIC CHARGES
----------------------
   0 Pt:   -0.786795
   1 Cl:   -0.106514
   2 Cl:   -0.195504
   3 Cl:   -0.106132
   4 C :   -0.394965
   5 H :    0.142754
   6 H :    0.156527
   7 H :    0.140908
   8 H :    0.149721

-------------------------------
LOEWDIN REDUCED ORBITAL CHARGES
-------------------------------
  0 Pts       :     2.703285  s :     2.703285
      pz      :     2.345143  p :     6.942231
      px      :     2.333004
      py      :     2.264084
      dz2     :     1.646671  d :     9.092860
      dxz     :     1.983207
      dyz     :     1.902082
      dx2y2   :     1.798564
      dxy     :     1.762336
      f0      :     0.011689  f :     0.048420
      f+1     :     0.009434
      f-1     :     0.007738
      f+2     :     0.003032
      f-2     :     0.005837
      f+3     :     0.005934
      f-3     :     0.004755
  1 Cls       :     5.753623  s :     5.753623
      pz      :     3.585175  p :    11.334072
      px      :     3.887195
      py      :     3.861702
      dz2     :     0.007629  d :     0.018819
      dxz     :     0.004607
      dyz     :     0.005015
      dx2y2   :     0.000718
      dxy     :     0.000851
  2 Cls       :     5.773291  s :     5.773291
      pz      :     3.887273  p :    11.408694
      px      :     3.710039
      py      :     3.811382
      dz2     :     0.001974  d :     0.013519
      dxz     :     0.003535
      dyz     :     0.001071
      dx2y2   :     0.002603
      dxy     :     0.004336
  3 Cls       :     5.753288  s :     5.753288
      pz      :     3.586284  p :    11.333946
      px      :     3.884596
      py      :     3.863066
      dz2     :     0.007415  d :     0.018897
      dxz     :     0.004857
      dyz     :     0.005216
      dx2y2   :     0.000684
      dxy     :     0.000724
  4 C s       :     2.995033  s :     2.995033
      pz      :     1.123194  p :     3.339073
      px      :     1.124799
      py      :     1.091080
      dz2     :     0.011211  d :     0.060859
      dxz     :     0.017841
      dyz     :     0.007605
      dx2y2   :     0.006068
      dxy     :     0.018134
  5 H s       :     0.857246  s :     0.857246
  6 H s       :     0.843473  s :     0.843473
  7 H s       :     0.859092  s :     0.859092
  8 H s       :     0.850279  s :     0.850279


                      *****************************
                      * MAYER POPULATION ANALYSIS *
                      *****************************

  NA   - Mulliken gross atomic population
  ZA   - Total nuclear charge
  QA   - Mulliken gross atomic charge
  VA   - Mayer's total valence
  BVA  - Mayer's bonded valence
  FA   - Mayer's free valence

  ATOM       NA         ZA         QA         VA         BVA        FA
  0 Pt    17.7893    18.0000     0.2107     3.8517     3.8517     0.0000
  1 Cl    17.3898    17.0000    -0.3898     0.9908     0.9908     0.0000
  2 Cl    17.4380    17.0000    -0.4380     0.9704     0.9704     0.0000
  3 Cl    17.3916    17.0000    -0.3916     0.9875     0.9875     0.0000
  4 C      6.8287     6.0000    -0.8287     3.7731     3.7731     0.0000
  5 H      0.7609     1.0000     0.2391     0.8973     0.8973     0.0000
  6 H      0.8722     1.0000     0.1278     0.9821     0.9821     0.0000
  7 H      0.7641     1.0000     0.2359     0.8976     0.8976     0.0000
  8 H      0.7655     1.0000     0.2345     0.8922     0.8922     0.0000

  Mayer bond orders larger than 0.100000
B(  0-Pt,  1-Cl) :   0.7821 B(  0-Pt,  2-Cl) :   0.7278 B(  0-Pt,  3-Cl) :   0.7773 
B(  0-Pt,  4-C ) :   0.7842 B(  0-Pt,  6-H ) :   0.7626 B(  1-Cl,  3-Cl) :   0.1420 
B(  2-Cl,  4-C ) :   0.1244 B(  4-C ,  5-H ) :   0.8926 B(  4-C ,  6-H ) :   0.1154 
B(  4-C ,  7-H ) :   0.8970 B(  4-C ,  8-H ) :   0.9025 

-------
TIMINGS
-------

Total SCF time: 0 days 0 hours 0 min 4 sec 

Total time                  ....       4.868 sec
Sum of individual times     ....       4.626 sec  ( 95.0%)

Fock matrix formation       ....       4.239 sec  ( 87.1%)
  Split-RI-J                ....       0.447 sec  ( 10.5% of F)
  Chain of spheres X        ....       3.373 sec  ( 79.6% of F)
  XC integration            ....       0.400 sec  (  9.4% of F)
    Basis function eval.    ....       0.153 sec  ( 38.4% of XC)
    Density eval.           ....       0.061 sec  ( 15.3% of XC)
    XC-Functional eval.     ....       0.057 sec  ( 14.2% of XC)
    XC-Potential eval.      ....       0.055 sec  ( 13.8% of XC)
Diagonalization             ....       0.024 sec  (  0.5%)
Density matrix formation    ....       0.002 sec  (  0.0%)
Population analysis         ....       0.024 sec  (  0.5%)
Initial guess               ....       0.004 sec  (  0.1%)
Orbital Transformation      ....       0.000 sec  (  0.0%)
Orbital Orthonormalization  ....       0.002 sec  (  0.0%)
DIIS solution               ....       0.020 sec  (  0.4%)
Grid generation             ....       0.314 sec  (  6.4%)

Maximum memory used throughout the entire SCF-calculation: 62.2 MB


-------------------------------------------------------------------------------
                          DFT DISPERSION CORRECTION                            
                                                                               
                              DFTD3 V3.1  Rev 1                                
                          USING Becke-Johnson damping                          
-------------------------------------------------------------------------------
The PBEh-3c composite method is recognized
Using three-body term ABC
Active option DFTDOPT                   ...         4   

molecular C6(AA) [au] = 3373.332854 


            DFT-D V3
 parameters
 s6 scaling factor         :     1.0000 
 a1 scaling factor         :     0.4860 
 s8 scaling factor         :     0.0000 
 a2 scaling factor         :     4.5000 
 Damping factor alpha9(ATM):    16.0000 
 ad hoc parameters k1-k3   :    16.0000     1.3333    -4.0000 

 Edisp/kcal,au: -3.369813601753  -0.005370139227 
 E6   /kcal   :  -3.380488760 
 E8   /kcal   :  -0.000000000 
 E6(ABC)      :   0.010675159 
 % E8         :   0.000000000 
 % E6(ABC)    :  -0.316787805 

-------------------------   ----------------
Dispersion correction           -0.005370139
-------------------------   ----------------

 ** NOTE ** -> element pt will be treated as ni
NOTIFICATION: Different basis set in ORCA and otool_gcp:
ORCA: 109  gCP: 108 
If you are NOT using ECPs, check your basis set inputs!
------------------   -----------------
gCP correction             0.021200703
------------------   -----------------

-------------------------   --------------------
FINAL SINGLE POINT ENERGY     -1539.031441517033
-------------------------   --------------------

                                *** OPTIMIZATION RUN DONE ***

                            ***************************************
                            *     ORCA property calculations      *
                            ***************************************

                                    ---------------------
                                    Active property flags
                                    ---------------------
   (+) Dipole Moment


------------------------------------------------------------------------------
                       ORCA ELECTRIC PROPERTIES CALCULATION
------------------------------------------------------------------------------

Dipole Moment Calculation                       ... on
Quadrupole Moment Calculation                   ... off
Polarizability Calculation                      ... off
GBWName                                         ... reaction-6-prod-pbeh3c-orca_opt.gbw
Electron density                                ... reaction-6-prod-pbeh3c-orca_opt.scfp
The origin for moment calculation is the CENTER OF MASS  = (-1.060142, -1.869252  0.850106)

-------------
DIPOLE MOMENT
-------------
                                X             Y             Z
Electronic contribution:     17.95883      -0.30426      -3.70291
Nuclear contribution   :    -16.74394       1.09810       3.19527
                        -----------------------------------------
Total Dipole Moment    :      1.21489       0.79384      -0.50764
                        -----------------------------------------
Magnitude (a.u.)       :      1.53748
Magnitude (Debye)      :      3.90796



--------------------
Rotational spectrum 
--------------------
 
Rotational constants in cm-1:     0.063699     0.042287     0.026491 
Rotational constants in MHz :  1909.657475  1267.725234   794.166757 

 Dipole components along the rotational axes: 
x,y,z [a.u.] :     0.002281     1.537109    -0.033552 
x,y,z [Debye]:     0.005797     3.907020    -0.085283 

 

Timings for individual modules:

Sum of individual times         ...      187.731 sec (=   3.129 min)
GTO integral calculation        ...       11.688 sec (=   0.195 min)   6.2 %
SCF iterations                  ...      132.356 sec (=   2.206 min)  70.5 %
SCF Gradient evaluation         ...       42.561 sec (=   0.709 min)  22.7 %
Geometry relaxation             ...        1.126 sec (=   0.019 min)   0.6 %
                             ****ORCA TERMINATED NORMALLY****
TOTAL RUN TIME: 0 days 0 hours 3 minutes 15 seconds 740 msec
